   12   12    1    1
  0.1849176E+02  0.6500240E-09  0.6500240E-09  0.6428867E-09  0.5000000E-15
  1.000000000000000E-004
  CAR 
 CGS                                     
  112   42   80
 
  0.0000000E+00  0.0000000E+00  0.0000000E+00  0.1250000E-01
   1      -68.648689
   2      -68.640254
   3      -68.639217
   4      -68.627410
   5      -68.616208
   6      -68.609062
   7      -68.599184
   8      -68.590624
   9      -68.582873
  10      -68.572507
  11      -68.566100
  12      -68.554659
  13      -12.724161
  14      -11.124481
  15      -10.925826
  16      -10.603438
  17      -10.248986
  18      -10.229481
  19       -5.991670
  20       -4.981817
  21       -2.756854
  22       -2.212282
  23       -2.068949
  24       -1.921291
  25       -1.572883
  26       -0.982270
  27       -0.950257
  28       -0.691168
  29       -0.404913
  30       -0.274505
  31       -0.261219
  32       -0.233729
  33       -0.192287
  34       -0.153822
  35       -0.039607
  36        0.032139
  37        1.350627
  38        1.363314
  39        1.414749
  40        1.456940
  41        1.471656
  42        1.474556
  43        1.520902
  44        1.532510
  45        1.575734
  46        1.712162
  47        1.891410
  48        1.929382
  49        2.058126
  50        2.650831
  51        2.728805
  52        3.093365
  53        3.217271
  54        4.007850
  55        4.039476
  56        4.173250
  57        5.536790
  58        6.357093
  59        7.630278
  60        8.001147
  61        8.600787
  62        8.779149
  63        9.561097
  64        9.737749
  65        9.816904
  66       10.427533
  67       10.585299
  68       10.700800
  69       10.722409
  70       11.287011
  71       11.711048
  72       12.392780
  73       12.452349
  74       12.729577
  75       13.320710
  76       13.387456
  77       13.835604
  78       13.882721
  79       14.146168
  80       14.179755
 
  0.2500000E+00  0.7372575E-17  0.1387779E-16  0.2500000E-01
   1      -68.648665
   2      -68.640208
   3      -68.639192
   4      -68.627371
   5      -68.616100
   6      -68.608957
   7      -68.599187
   8      -68.590649
   9      -68.582803
  10      -68.572454
  11      -68.566065
  12      -68.554624
  13      -12.599525
  14      -11.122939
  15      -10.991761
  16      -10.674926
  17      -10.363597
  18      -10.272672
  19       -5.939956
  20       -4.771276
  21       -2.644206
  22       -2.247928
  23       -2.093443
  24       -1.691701
  25       -1.336311
  26       -1.002392
  27       -0.771689
  28       -0.623765
  29       -0.548775
  30       -0.443361
  31       -0.358481
  32       -0.240840
  33       -0.190872
  34       -0.169198
  35       -0.045186
  36        0.036868
  37        1.279503
  38        1.337559
  39        1.355982
  40        1.390907
  41        1.427450
  42        1.472098
  43        1.500895
  44        1.528644
  45        1.724863
  46        1.858713
  47        2.056432
  48        2.096024
  49        2.231782
  50        2.413559
  51        2.557652
  52        2.826305
  53        2.948052
  54        3.243591
  55        3.664000
  56        4.041038
  57        6.170091
  58        6.904664
  59        8.151082
  60        8.263127
  61        8.588492
  62        9.008467
  63        9.239111
  64        9.532074
  65        9.859635
  66       10.377222
  67       10.635985
  68       10.812607
  69       10.941567
  70       11.190853
  71       11.656936
  72       11.773929
  73       12.118731
  74       12.441097
  75       12.621461
  76       13.008982
  77       13.505579
  78       13.873611
  79       14.210601
  80       14.710909
 
  0.5000000E+00  0.1474515E-16  0.2775558E-16  0.1250000E-01
   1      -68.648495
   2      -68.640092
   3      -68.639112
   4      -68.627294
   5      -68.616086
   6      -68.608906
   7      -68.599120
   8      -68.590563
   9      -68.582748
  10      -68.572443
  11      -68.565950
  12      -68.554454
  13      -12.440736
  14      -11.251008
  15      -10.959836
  16      -10.761441
  17      -10.426518
  18      -10.351615
  19       -5.877653
  20       -4.546129
  21       -2.494236
  22       -2.242453
  23       -1.951030
  24       -1.467245
  25       -1.228386
  26       -1.101010
  27       -0.902244
  28       -0.858585
  29       -0.600339
  30       -0.535669
  31       -0.274689
  32       -0.202265
  33       -0.194922
  34       -0.148665
  35       -0.027009
  36        0.076580
  37        1.255522
  38        1.330751
  39        1.346066
  40        1.396422
  41        1.471982
  42        1.480932
  43        1.501024
  44        1.551390
  45        1.749552
  46        1.789723
  47        1.971916
  48        2.145967
  49        2.324936
  50        2.366509
  51        2.552857
  52        2.670863
  53        2.935639
  54        3.079111
  55        3.251216
  56        3.862952
  57        6.385142
  58        7.095959
  59        7.994419
  60        8.196835
  61        8.517860
  62        8.819347
  63        9.333433
  64        9.885241
  65       10.012817
  66       10.517982
  67       10.687400
  68       10.796950
  69       11.127334
  70       11.398703
  71       11.610325
  72       11.775782
  73       11.947485
  74       12.505522
  75       12.777798
  76       12.997898
  77       13.397056
  78       13.535224
  79       13.944157
  80       14.270446
 
  0.7372575E-17  0.2500000E+00  0.1387779E-16  0.2500000E-01
   1      -68.648644
   2      -68.640230
   3      -68.639177
   4      -68.627385
   5      -68.616096
   6      -68.608961
   7      -68.599212
   8      -68.590622
   9      -68.582818
  10      -68.572438
  11      -68.566065
  12      -68.554626
  13      -12.599813
  14      -11.125162
  15      -10.984297
  16      -10.681946
  17      -10.359256
  18      -10.274981
  19       -5.940287
  20       -4.770892
  21       -2.644340
  22       -2.259072
  23       -2.078267
  24       -1.690006
  25       -1.345695
  26       -1.001837
  27       -0.768455
  28       -0.621360
  29       -0.558134
  30       -0.435187
  31       -0.360231
  32       -0.240682
  33       -0.193943
  34       -0.164439
  35       -0.047688
  36        0.038025
  37        1.279813
  38        1.334525
  39        1.354470
  40        1.394584
  41        1.428230
  42        1.472777
  43        1.496358
  44        1.533143
  45        1.725088
  46        1.861095
  47        2.055069
  48        2.093188
  49        2.232768
  50        2.413826
  51        2.556639
  52        2.825644
  53        2.949429
  54        3.245714
  55        3.663460
  56        4.040370
  57        6.169633
  58        6.904262
  59        8.129467
  60        8.286064
  61        8.586123
  62        9.006898
  63        9.235683
  64        9.534036
  65        9.864666
  66       10.374926
  67       10.633321
  68       10.814086
  69       10.941898
  70       11.195974
  71       11.656837
  72       11.770446
  73       12.117894
  74       12.444553
  75       12.618181
  76       13.010956
  77       13.518971
  78       13.896076
  79       14.272547
  80       14.832299
 
  0.2500000E+00  0.2500000E+00  0.0000000E+00  0.2500000E-01
   1      -68.648666
   2      -68.640231
   3      -68.639079
   4      -68.627270
   5      -68.616232
   6      -68.609093
   7      -68.599089
   8      -68.590524
   9      -68.582935
  10      -68.572570
  11      -68.566083
  12      -68.554642
  13      -12.444967
  14      -11.191039
  15      -10.944798
  16      -10.877689
  17      -10.388834
  18      -10.344819
  19       -5.883121
  20       -4.519148
  21       -2.417948
  22       -2.247778
  23       -1.790566
  24       -1.682585
  25       -1.359626
  26       -1.298449
  27       -1.082331
  28       -0.683128
  29       -0.523979
  30       -0.296897
  31       -0.281031
  32       -0.222413
  33       -0.183700
  34       -0.123480
  35       -0.091291
  36        0.076143
  37        1.293809
  38        1.312002
  39        1.415868
  40        1.427256
  41        1.464048
  42        1.483100
  43        1.496140
  44        1.569751
  45        1.671677
  46        1.880328
  47        1.941048
  48        2.135144
  49        2.280437
  50        2.321299
  51        2.559773
  52        2.652316
  53        2.902575
  54        2.945987
  55        3.699498
  56        3.833000
  57        6.170421
  58        6.990440
  59        8.015388
  60        8.317734
  61        8.435880
  62        8.567283
  63        9.154952
  64        9.252303
  65       10.354587
  66       10.490708
  67       10.916409
  68       11.179967
  69       11.324670
  70       11.557775
  71       11.812697
  72       11.963082
  73       12.313149
  74       12.504341
  75       12.711891
  76       12.911334
  77       13.334238
  78       13.445703
  79       14.258416
  80       14.366855
 
  0.5000000E+00  0.2500000E+00 -0.2775558E-16  0.2500000E-01
   1      -68.648413
   2      -68.639967
   3      -68.639227
   4      -68.627348
   5      -68.616011
   6      -68.608859
   7      -68.599145
   8      -68.590569
   9      -68.582709
  10      -68.572397
  11      -68.565951
  12      -68.554481
  13      -12.445293
  14      -11.354612
  15      -10.939785
  16      -10.737537
  17      -10.383949
  18      -10.268653
  19       -5.955332
  20       -4.641532
  21       -2.392510
  22       -2.228126
  23       -2.055562
  24       -1.643781
  25       -1.352424
  26       -1.286140
  27       -1.024157
  28       -0.510382
  29       -0.478595
  30       -0.330455
  31       -0.282642
  32       -0.218094
  33       -0.150151
  34       -0.132904
  35       -0.009472
  36        0.110116
  37        1.248107
  38        1.314477
  39        1.385342
  40        1.437636
  41        1.463278
  42        1.490937
  43        1.497194
  44        1.547639
  45        1.747721
  46        1.828629
  47        1.926564
  48        2.133980
  49        2.221329
  50        2.386190
  51        2.558732
  52        2.790218
  53        2.979989
  54        3.312663
  55        3.604586
  56        3.748868
  57        6.088074
  58        6.938799
  59        7.614822
  60        8.073642
  61        8.406235
  62        8.611995
  63        8.985731
  64        9.153810
  65       10.083340
  66       10.337014
  67       10.726574
  68       11.104559
  69       11.461312
  70       11.594814
  71       11.793453
  72       12.084573
  73       12.478303
  74       12.921775
  75       13.032015
  76       13.823264
  77       14.196675
  78       14.654629
  79       15.421635
  80       15.644984
 
 -0.2500000E+00  0.2500000E+00  0.0000000E+00  0.2500000E-01
   1      -68.648656
   2      -68.640220
   3      -68.639159
   4      -68.627351
   5      -68.616031
   6      -68.608892
   7      -68.599184
   8      -68.590620
   9      -68.582759
  10      -68.572394
  11      -68.566066
  12      -68.554626
  13      -12.602703
  14      -11.250306
  15      -10.994492
  16      -10.571747
  17      -10.361219
  18      -10.177037
  19       -6.017572
  20       -4.893993
  21       -2.646069
  22       -2.313335
  23       -1.971936
  24       -1.644879
  25       -1.494703
  26       -1.182836
  27       -0.790628
  28       -0.583056
  29       -0.445782
  30       -0.331095
  31       -0.293239
  32       -0.232887
  33       -0.175051
  34       -0.136570
  35       -0.008595
  36        0.070771
  37        1.259743
  38        1.320684
  39        1.365704
  40        1.423037
  41        1.431298
  42        1.476673
  43        1.504336
  44        1.544413
  45        1.725042
  46        1.812687
  47        1.995000
  48        2.072090
  49        2.417091
  50        2.465117
  51        2.528060
  52        2.872927
  53        3.143561
  54        3.228066
  55        3.784914
  56        4.070461
  57        5.979999
  58        6.685334
  59        7.536224
  60        8.229744
  61        8.614358
  62        8.901815
  63        9.303396
  64        9.431231
  65        9.801891
  66       10.272148
  67       10.544757
  68       10.835763
  69       10.971548
  70       11.380966
  71       11.476541
  72       11.735284
  73       12.104467
  74       12.665028
  75       12.941377
  76       13.104252
  77       13.352619
  78       13.519063
  79       14.472258
  80       14.756138
 
  0.1474515E-16  0.5000000E+00  0.2775558E-16  0.1250000E-01
   1      -68.648522
   2      -68.640062
   3      -68.639102
   4      -68.627301
   5      -68.616043
   6      -68.608948
   7      -68.599128
   8      -68.590557
   9      -68.582808
  10      -68.572380
  11      -68.565897
  12      -68.554514
  13      -12.441640
  14      -11.246849
  15      -10.956573
  16      -10.770799
  17      -10.417328
  18      -10.358010
  19       -5.878387
  20       -4.545096
  21       -2.494465
  22       -2.251728
  23       -1.938163
  24       -1.470444
  25       -1.224645
  26       -1.103310
  27       -0.899649
  28       -0.869006
  29       -0.595702
  30       -0.535135
  31       -0.271710
  32       -0.211063
  33       -0.198213
  34       -0.137622
  35       -0.029056
  36        0.077645
  37        1.254324
  38        1.325680
  39        1.350632
  40        1.398415
  41        1.470209
  42        1.478214
  43        1.499819
  44        1.556905
  45        1.755093
  46        1.793281
  47        1.964209
  48        2.150173
  49        2.317599
  50        2.359121
  51        2.560194
  52        2.672191
  53        2.941547
  54        3.078833
  55        3.247935
  56        3.862465
  57        6.384863
  58        7.097083
  59        7.979287
  60        8.205611
  61        8.510290
  62        8.830055
  63        9.326514
  64        9.887435
  65       10.016002
  66       10.520536
  67       10.685350
  68       10.788865
  69       11.143341
  70       11.410190
  71       11.607280
  72       11.773193
  73       11.939866
  74       12.507609
  75       12.812213
  76       13.028343
  77       13.550427
  78       13.684165
  79       14.553063
  80       15.249454
 
  0.2500000E+00  0.5000000E+00 -0.2775558E-16  0.2500000E-01
   1      -68.648442
   2      -68.639987
   3      -68.639167
   4      -68.627328
   5      -68.615990
   6      -68.608900
   7      -68.599147
   8      -68.590589
   9      -68.582740
  10      -68.572358
  11      -68.565908
  12      -68.554522
  13      -12.445745
  14      -11.353075
  15      -10.939401
  16      -10.738866
  17      -10.384053
  18      -10.268723
  19       -5.955594
  20       -4.641278
  21       -2.392701
  22       -2.226302
  23       -2.058658
  24       -1.639406
  25       -1.367985
  26       -1.272035
  27       -1.024847
  28       -0.509399
  29       -0.484991
  30       -0.331846
  31       -0.284079
  32       -0.211412
  33       -0.147735
  34       -0.131662
  35       -0.012643
  36        0.110463
  37        1.246284
  38        1.317317
  39        1.380946
  40        1.437550
  41        1.461458
  42        1.492722
  43        1.498892
  44        1.552462
  45        1.752286
  46        1.827894
  47        1.919565
  48        2.135589
  49        2.218691
  50        2.383007
  51        2.564432
  52        2.791295
  53        2.979073
  54        3.312530
  55        3.604344
  56        3.748626
  57        6.087966
  58        6.937946
  59        7.609713
  60        8.082923
  61        8.401060
  62        8.610677
  63        8.990005
  64        9.151170
  65       10.084134
  66       10.328747
  67       10.733681
  68       11.101107
  69       11.458126
  70       11.578394
  71       11.792879
  72       12.030252
  73       12.519332
  74       12.681571
  75       12.914176
  76       13.208964
  77       14.229876
  78       14.765001
  79       15.252659
  80       15.909803
 
  0.5000000E+00  0.5000000E+00  0.0000000E+00  0.1250000E-01
   1      -68.648277
   2      -68.639757
   3      -68.639043
   4      -68.627148
   5      -68.615890
   6      -68.608779
   7      -68.598953
   8      -68.590383
   9      -68.582644
  10      -68.572271
  11      -68.565738
  12      -68.554293
  13      -12.437731
  14      -11.500705
  15      -10.915009
  16      -10.618301
  17      -10.391747
  18      -10.196697
  19       -6.034498
  20       -4.810825
  21       -2.313298
  22       -2.262569
  23       -2.098445
  24       -1.697089
  25       -1.241418
  26       -1.114378
  27       -0.842504
  28       -0.774771
  29       -0.726877
  30       -0.242261
  31       -0.198329
  32       -0.178627
  33       -0.152897
  34       -0.045534
  35       -0.001257
  36        0.183590
  37        1.265979
  38        1.318608
  39        1.376435
  40        1.413974
  41        1.434035
  42        1.493279
  43        1.509092
  44        1.550543
  45        1.787602
  46        1.846281
  47        1.997142
  48        2.151828
  49        2.252549
  50        2.336979
  51        2.559334
  52        2.761569
  53        2.773388
  54        3.370243
  55        3.763315
  56        4.008552
  57        5.855575
  58        6.761498
  59        7.086206
  60        8.409056
  61        8.573168
  62        8.772496
  63        9.134065
  64        9.232165
  65        9.960513
  66       10.283559
  67       10.726902
  68       10.822353
  69       10.875830
  70       11.274560
  71       11.754719
  72       11.916436
  73       11.974625
  74       12.370060
  75       12.541788
  76       13.451446
  77       14.289797
  78       14.676057
  79       16.744671
  80       16.754812
 
 -0.2168404E-18 -0.2168404E-18  0.2000000E+00  0.2500000E-01
   1      -68.648692
   2      -68.640254
   3      -68.639188
   4      -68.627379
   5      -68.616126
   6      -68.608987
   7      -68.599208
   8      -68.590643
   9      -68.582845
  10      -68.572480
  11      -68.566102
  12      -68.554661
  13      -12.620910
  14      -11.425374
  15      -10.782462
  16      -10.608370
  17      -10.248201
  18      -10.231072
  19       -5.836669
  20       -5.045455
  21       -2.598613
  22       -2.374980
  23       -1.961630
  24       -1.771409
  25       -1.439612
  26       -1.125579
  27       -1.066728
  28       -0.776671
  29       -0.474286
  30       -0.294109
  31       -0.240195
  32       -0.230797
  33       -0.190685
  34       -0.145964
  35       -0.017382
  36        0.024402
  37        1.333739
  38        1.382162
  39        1.417100
  40        1.440148
  41        1.462751
  42        1.469229
  43        1.514986
  44        1.546033
  45        1.633368
  46        1.758950
  47        1.787330
  48        1.950676
  49        2.087852
  50        2.659205
  51        2.719082
  52        3.196899
  53        3.253334
  54        3.522414
  55        3.895939
  56        3.978304
  57        6.044701
  58        6.415873
  59        7.832023
  60        7.913653
  61        8.350930
  62        8.806940
  63        9.771397
  64        9.795649
  65       10.061059
  66       10.592085
  67       10.651039
  68       10.817486
  69       10.859149
  70       11.498145
  71       11.557939
  72       12.026019
  73       12.579741
  74       12.776293
  75       12.914989
  76       13.202734
  77       13.536390
  78       13.822340
  79       14.197894
  80       14.703806
 
  0.2500000E+00  0.1517883E-17  0.2000000E+00  0.2500000E-01
   1      -68.648630
   2      -68.640191
   3      -68.639172
   4      -68.627365
   5      -68.616166
   6      -68.609032
   7      -68.599168
   8      -68.590597
   9      -68.582860
  10      -68.572485
  11      -68.566033
  12      -68.554604
  13      -12.462334
  14      -11.466941
  15      -10.872342
  16      -10.682555
  17      -10.371880
  18      -10.240815
  19       -5.771609
  20       -4.802641
  21       -2.446789
  22       -2.234439
  23       -1.849976
  24       -1.714710
  25       -1.426265
  26       -1.192230
  27       -0.895631
  28       -0.743926
  29       -0.609757
  30       -0.518014
  31       -0.311020
  32       -0.246641
  33       -0.170226
  34       -0.121076
  35       -0.051079
  36        0.059141
  37        1.303160
  38        1.335593
  39        1.369663
  40        1.435032
  41        1.446069
  42        1.481115
  43        1.519259
  44        1.548365
  45        1.641669
  46        1.867832
  47        1.983765
  48        2.046028
  49        2.195273
  50        2.476410
  51        2.596733
  52        2.840060
  53        2.961849
  54        3.136299
  55        3.569516
  56        3.726994
  57        6.440310
  58        6.954809
  59        8.179084
  60        8.243689
  61        8.834833
  62        9.121123
  63        9.470053
  64        9.794641
  65       10.081986
  66       10.294415
  67       10.739201
  68       11.083115
  69       11.289311
  70       11.421315
  71       11.636573
  72       11.725205
  73       12.083806
  74       12.264434
  75       12.541287
  76       12.660704
  77       12.954893
  78       13.060169
  79       13.638544
  80       14.688300
 
  0.5000000E+00  0.9107298E-17  0.2000000E+00  0.2500000E-01
   1      -68.648409
   2      -68.640042
   3      -68.639120
   4      -68.627283
   5      -68.616034
   6      -68.608878
   7      -68.599094
   8      -68.590499
   9      -68.582743
  10      -68.572400
  11      -68.565983
  12      -68.554516
  13      -12.360078
  14      -11.418399
  15      -10.952641
  16      -10.679961
  17      -10.477024
  18      -10.330533
  19       -5.757957
  20       -4.721558
  21       -2.522095
  22       -2.182920
  23       -1.959934
  24       -1.534769
  25       -1.303295
  26       -1.095539
  27       -0.864108
  28       -0.762313
  29       -0.548164
  30       -0.446844
  31       -0.286534
  32       -0.179551
  33       -0.142540
  34       -0.107413
  35       -0.041135
  36        0.019661
  37        1.274468
  38        1.297824
  39        1.351301
  40        1.429951
  41        1.451991
  42        1.482088
  43        1.502402
  44        1.587266
  45        1.719208
  46        1.929790
  47        2.077937
  48        2.145661
  49        2.270144
  50        2.406785
  51        2.570784
  52        2.597583
  53        2.895160
  54        3.011833
  55        3.360833
  56        3.900277
  57        6.365719
  58        6.892684
  59        7.574629
  60        8.091078
  61        8.543606
  62        8.796866
  63        9.280750
  64        9.623217
  65        9.932459
  66       10.276789
  67       10.659018
  68       10.927266
  69       10.974289
  70       11.275372
  71       11.513381
  72       11.790794
  73       12.247201
  74       12.547129
  75       13.098665
  76       13.518226
  77       14.292831
  78       14.567946
  79       15.129564
  80       16.263981
 
 -0.2500000E+00 -0.4098284E-16  0.2000000E+00  0.2500000E-01
   1      -68.648682
   2      -68.640252
   3      -68.639163
   4      -68.627355
   5      -68.616137
   6      -68.608990
   7      -68.599195
   8      -68.590627
   9      -68.582856
  10      -68.572504
  11      -68.566100
  12      -68.554649
  13      -12.544627
  14      -11.341104
  15      -10.872618
  16      -10.606749
  17      -10.393571
  18      -10.280126
  19       -5.831289
  20       -4.974163
  21       -2.663405
  22       -2.454734
  23       -2.038019
  24       -1.577298
  25       -1.163897
  26       -0.986920
  27       -0.798203
  28       -0.655868
  29       -0.517388
  30       -0.383713
  31       -0.273543
  32       -0.253200
  33       -0.192092
  34       -0.142842
  35       -0.045220
  36        0.013332
  37        1.291541
  38        1.309629
  39        1.392154
  40        1.407250
  41        1.434325
  42        1.454957
  43        1.493595
  44        1.566027
  45        1.688068
  46        1.916588
  47        1.987383
  48        2.145415
  49        2.334220
  50        2.564150
  51        2.618710
  52        2.830924
  53        2.972074
  54        3.248230
  55        3.686174
  56        3.945234
  57        6.179201
  58        6.634429
  59        7.776334
  60        7.966259
  61        8.211863
  62        8.553066
  63        9.379109
  64        9.574353
  65        9.912704
  66       10.251758
  67       10.548150
  68       10.788398
  69       10.841154
  70       11.068755
  71       11.572340
  72       12.022550
  73       12.522680
  74       12.751699
  75       12.958909
  76       13.306615
  77       13.415264
  78       13.736619
  79       13.848877
  80       14.726206
 
  0.1517883E-17  0.2500000E+00  0.2000000E+00  0.2500000E-01
   1      -68.648626
   2      -68.640194
   3      -68.639171
   4      -68.627365
   5      -68.616173
   6      -68.609025
   7      -68.599161
   8      -68.590604
   9      -68.582850
  10      -68.572496
  11      -68.566045
  12      -68.554592
  13      -12.462543
  14      -11.468334
  15      -10.857447
  16      -10.698831
  17      -10.368608
  18      -10.241058
  19       -5.772847
  20       -4.801279
  21       -2.445654
  22       -2.236472
  23       -1.847411
  24       -1.713830
  25       -1.434345
  26       -1.189395
  27       -0.890493
  28       -0.748386
  29       -0.602240
  30       -0.528425
  31       -0.308121
  32       -0.239878
  33       -0.173447
  34       -0.121303
  35       -0.053977
  36        0.060756
  37        1.302092
  38        1.338361
  39        1.370174
  40        1.428949
  41        1.447434
  42        1.478358
  43        1.523568
  44        1.546304
  45        1.645172
  46        1.875404
  47        1.973567
  48        2.050264
  49        2.195321
  50        2.475514
  51        2.595038
  52        2.840161
  53        2.965911
  54        3.133722
  55        3.570499
  56        3.725209
  57        6.438427
  58        6.955686
  59        8.157587
  60        8.261185
  61        8.838796
  62        9.125604
  63        9.460776
  64        9.799004
  65       10.084152
  66       10.296675
  67       10.744448
  68       11.072149
  69       11.291917
  70       11.424517
  71       11.632806
  72       11.720666
  73       12.084198
  74       12.269402
  75       12.545550
  76       12.657657
  77       12.954122
  78       13.057641
  79       13.652597
  80       14.697748
 
  0.2500000E+00  0.2500000E+00  0.2000000E+00  0.2500000E-01
   1      -68.648537
   2      -68.640105
   3      -68.639019
   4      -68.627213
   5      -68.616007
   6      -68.608869
   7      -68.599043
   8      -68.590478
   9      -68.582726
  10      -68.572358
  11      -68.565951
  12      -68.554508
  13      -12.331592
  14      -11.476986
  15      -10.864678
  16      -10.853601
  17      -10.406429
  18      -10.281554
  19       -5.754512
  20       -4.690431
  21       -2.243412
  22       -2.141243
  23       -1.929156
  24       -1.847830
  25       -1.455642
  26       -1.395170
  27       -1.038038
  28       -0.522721
  29       -0.462533
  30       -0.349502
  31       -0.247437
  32       -0.215720
  33       -0.158208
  34       -0.109705
  35       -0.089011
  36        0.078150
  37        1.262526
  38        1.348215
  39        1.398097
  40        1.435731
  41        1.453658
  42        1.510784
  43        1.534612
  44        1.545376
  45        1.753744
  46        1.818993
  47        2.040288
  48        2.134672
  49        2.285149
  50        2.311797
  51        2.521984
  52        2.769352
  53        2.901552
  54        3.262949
  55        3.497742
  56        3.801917
  57        6.181430
  58        6.839376
  59        7.823800
  60        8.047000
  61        8.187571
  62        8.730667
  63        9.155176
  64        9.311570
  65       10.214903
  66       10.436243
  67       10.588574
  68       11.004241
  69       11.236868
  70       11.489314
  71       11.808625
  72       12.171555
  73       12.206181
  74       12.574453
  75       12.692584
  76       13.115221
  77       13.415464
  78       13.883417
  79       14.005314
  80       14.528571
 
  0.5000000E+00  0.2500000E+00  0.2000000E+00  0.2500000E-01
   1      -68.648388
   2      -68.639899
   3      -68.639204
   4      -68.627348
   5      -68.616000
   6      -68.608917
   7      -68.599122
   8      -68.590535
   9      -68.582738
  10      -68.572397
  11      -68.565915
  12      -68.554483
  13      -12.377616
  14      -11.477836
  15      -10.933461
  16      -10.654497
  17      -10.413484
  18      -10.302723
  19       -5.808281
  20       -4.836476
  21       -2.527224
  22       -2.244769
  23       -1.870588
  24       -1.647202
  25       -1.501254
  26       -1.306132
  27       -0.900198
  28       -0.539316
  29       -0.373254
  30       -0.345298
  31       -0.222861
  32       -0.178833
  33       -0.162905
  34       -0.077510
  35       -0.024058
  36        0.079125
  37        1.190150
  38        1.364992
  39        1.399180
  40        1.441891
  41        1.463578
  42        1.505192
  43        1.520310
  44        1.585987
  45        1.739813
  46        1.820109
  47        2.038065
  48        2.234493
  49        2.272616
  50        2.362962
  51        2.485809
  52        2.671579
  53        3.053200
  54        3.410974
  55        3.729755
  56        3.865842
  57        5.931387
  58        6.609897
  59        7.356661
  60        7.940024
  61        8.061846
  62        8.719840
  63        8.913264
  64        9.142537
  65        9.842003
  66       10.323055
  67       10.552190
  68       10.925599
  69       11.226710
  70       11.413157
  71       11.749866
  72       12.003669
  73       12.495730
  74       12.831196
  75       13.203981
  76       14.186984
  77       14.714771
  78       15.169160
  79       15.911223
  80       16.565098
 
 -0.2500000E+00  0.2500000E+00  0.2000000E+00  0.2500000E-01
   1      -68.648629
   2      -68.640158
   3      -68.639220
   4      -68.627405
   5      -68.616082