       N       E                     dE             d eps       ncg     rms          ort
SDA:   1     0.757197109452E+02    0.75720E+02   -0.21364E+03  3360   0.534E+03 0.000E+00
DMP:   2    -0.823972948391E+01   -0.83959E+02   -0.14719E+03  3360   0.396E+03-0.744E+02
DMP:   3    -0.148713052795E+02   -0.66316E+01   -0.20035E+03  3360   0.676E+03-0.459E+03
DMP:   4    -0.223254201967E+02   -0.74541E+01   -0.10804E+03  3360   0.393E+03-0.321E+03
DMP:   5    -0.607959090562E+02   -0.38470E+02   -0.15094E+02  3360   0.707E+02-0.864E+02
DMP:   6    -0.659426011379E+02   -0.51467E+01   -0.81584E+01  3360   0.246E+02-0.110E+02
DMP:   7    -0.674803657696E+02   -0.15378E+01   -0.41237E+01  3360   0.147E+02-0.114E+02
DMP:   8    -0.690865496786E+02   -0.16062E+01   -0.76950E+00  3360   0.283E+01-0.237E+01
DMP:   9    -0.693953379747E+02   -0.30879E+00   -0.38563E+00  3360   0.111E+01-0.370E+00
DMP:  10    -0.694990536894E+02   -0.10372E+00   -0.15190E+00  3360   0.546E+00-0.436E+00
DMP:  11    -0.695685053651E+02   -0.69452E-01   -0.37044E-01  3360   0.105E+00-0.337E-01
DMP:  12    -0.695809390010E+02   -0.12434E-01   -0.22796E-01  3360   0.688E-01-0.309E-01
DMP:  13    -0.695905761584E+02   -0.96372E-02   -0.51203E-02  3360   0.161E-01-0.875E-02
DMP:  14    -0.695930277264E+02   -0.24516E-02   -0.37707E-02  3360   0.963E-02-0.534E-03
DMP:  15    -0.695945289686E+02   -0.15012E-02   -0.10334E-02  3360   0.332E-02-0.193E-02
DMP:  16    -0.695950961807E+02   -0.56721E-03   -0.40805E-03  3360   0.916E-03 0.272E-03
DMP:  17    -0.695952684948E+02   -0.17231E-03   -0.20798E-03  3360   0.578E-03-0.152E-03
DMP:  18    -0.695953849435E+02   -0.11645E-03   -0.55898E-04  3360   0.119E-03 0.541E-04
DMP:  19    -0.695954136195E+02   -0.28676E-04   -0.35069E-04  3360   0.879E-04-0.599E-06
DMP:  20    -0.695954332194E+02   -0.19600E-04   -0.11480E-04  3360   0.240E-04 0.123E-04
DMP:  21    -0.695954405263E+02   -0.73069E-05   -0.69563E-05  3360   0.140E-04 0.898E-05
   1 F= -.69595441E+02 E0= -.69595627E+02  d E =0.558287E-03
