 vasp.5.3.3 18Dez12 (build Nov 13 2015 09:58:40) complex                        
  
 executed on             LinuxIFC date 2017.10.18  13:04:00
 running on   48 total cores
 distrk:  each k-point on   16 cores,    3 groups
 distr:  one band on NCORES_PER_BAND=   1 cores,   16 groups


--------------------------------------------------------------------------------------------------------


 INCAR:
 POTCAR:    PAW_PBE Cu_pv 06Sep2000               
 POTCAR:    PAW_PBE Ge 05Jan2001                  
 POTCAR:    PAW_PBE S 17Jan2003                   

 ----------------------------------------------------------------------------- 
|                                                                             |
|           W    W    AA    RRRRR   N    N  II  N    N   GGGG   !!!           |
|           W    W   A  A   R    R  NN   N  II  NN   N  G    G  !!!           |
|           W    W  A    A  R    R  N N  N  II  N N  N  G       !!!           |
|           W WW W  AAAAAA  RRRRR   N  N N  II  N  N N  G  GGG   !            |
|           WW  WW  A    A  R   R   N   NN  II  N   NN  G    G                |
|           W    W  A    A  R    R  N    N  II  N    N   GGGG   !!!           |
|                                                                             |
|      For optimal performance we recommend that you set                      |
|        NPAR = 4 - approx SQRT( number of cores)                             |
|      (number of cores/NPAR must be integer)                                 |
|      This setting will greatly improve the performance of VASP for DFT.     |
|      The default NPAR=number of cores might be grossly inefficient          |
|      on modern multi-core architectures or massively parallel machines.     |
|      Do your own testing.                                                   |
|      Unfortunately you need to use the default for hybrid, GW and RPA       |
|      calculations.                                                          |
|                                                                             |
 ----------------------------------------------------------------------------- 


 ----------------------------------------------------------------------------- 
|                                                                             |
|           W    W    AA    RRRRR   N    N  II  N    N   GGGG   !!!           |
|           W    W   A  A   R    R  NN   N  II  NN   N  G    G  !!!           |
|           W    W  A    A  R    R  N N  N  II  N N  N  G       !!!           |
|           W WW W  AAAAAA  RRRRR   N  N N  II  N  N N  G  GGG   !            |
|           WW  WW  A    A  R   R   N   NN  II  N   NN  G    G                |
|           W    W  A    A  R    R  N    N  II  N    N   GGGG   !!!           |
|                                                                             |
|      You have enabled k-point parallelism (KPAR>1).                         |
|      This developmental code was originally  written by Paul Kent at ORNL,  |
|      and carefully double checked in Vienna.                                |
|      GW as well as linear response parallelism added by Martijn Marsman     |
|      and Georg Kresse.                                                      |
|      Carefully verify results versus KPAR=1.                                |
|      Report problems to Paul Kent and Vienna.                               |
|                                                                             |
 ----------------------------------------------------------------------------- 

 POTCAR:    PAW_PBE Cu_pv 06Sep2000               
   VRHFIN =Cu: d10 p1                                                           
   LEXCH  = PE                                                                  
   EATOM  =  4120.1201 eV,  302.8203 Ry                                         
                                                                                
   TITEL  = PAW_PBE Cu_pv 06Sep2000                                             
   LULTRA =        F    use ultrasoft PP ?                                      
   IUNSCR =        1    unscreen: 0-lin 1-nonlin 2-no                           
   RPACOR =    1.500    partial core radius                                     
   POMASS =   63.546; ZVAL   =   17.000    mass and valenz                      
   RCORE  =    2.000    outmost cutoff radius                                   
   RWIGS  =    2.000; RWIGS  =    1.058    wigner-seitz radius (au A)           
   ENMAX  =  368.648; ENMIN  =  276.486 eV                                      
   RCLOC  =    1.304    cutoff for local pot                                    
   LCOR   =        T    correct aug charges                                     
   LPAW   =        T    paw PP                                                  
   EAUG   =  758.233                                                            
   DEXC   =    0.000                                                            
   RMAX   =    2.046    core radius for proj-oper                               
   RAUG   =    1.300    factor for augmentation sphere                          
   RDEP   =    2.025    radius for radial grids                                 
   RDEPT  =    1.558    core radius for aug-charge                              
                                                                                
   Atomic configuration                                                         
    8 entries                                                                   
     n  l   j            E        occ.                                          
     1  0  0.50     -8850.2467   2.0000                                         
     2  0  0.50     -1062.3498   2.0000                                         
     2  1  1.50      -916.8226   6.0000                                         
     3  0  0.50      -114.6929   2.0000                                         
     3  1  1.50       -72.1325   6.0000                                         
     3  2  2.50        -5.0394  10.0000                                         
     4  0  0.50        -4.6097   1.0000                                         
     4  3  2.50        -1.3606   0.0000                                         
   Description                                                                  
     l       E           TYP  RCUT    TYP  RCUT                                 
     1    -72.1324777     23  1.700                                             
     1     -1.3605826     23  1.700                                             
     2     -5.0393776     23  2.000                                             
     2     -6.3999602     23  2.000                                             
     0     -4.6097062     23  1.800                                             
     0     14.1620818     23  1.800                                             
  local pseudopotential read in
  partial core-charges read in
  partial kinetic energy density read in
  atomic valenz-charges read in
  non local Contribution for L=           1  read in
    real space projection operators read in
  non local Contribution for L=           1  read in
    real space projection operators read in
  non local Contribution for L=           2  read in
    real space projection operators read in
  non local Contribution for L=           2  read in
    real space projection operators read in
  non local Contribution for L=           0  read in
    real space projection operators read in
  non local Contribution for L=           0  read in
    real space projection operators read in
    PAW grid and wavefunctions read in
 
   number of l-projection  operators is LMAX  =           6
   number of lm-projection operators is LMMAX =          18
 
 POTCAR:    PAW_PBE Ge 05Jan2001                  
   VRHFIN =Ge: s2p2                                                             
   LEXCH  = PE                                                                  
   EATOM  =   104.9960 eV,    7.7170 Ry                                         
                                                                                
   TITEL  = PAW_PBE Ge 05Jan2001                                                
   LULTRA =        F    use ultrasoft PP ?                                      
   IUNSCR =        1    unscreen: 0-lin 1-nonlin 2-no                           
   RPACOR =    2.170    partial core radius                                     
   POMASS =   72.610; ZVAL   =    4.000    mass and valenz                      
   RCORE  =    2.300    outmost cutoff radius                                   
   RWIGS  =    2.300; RWIGS  =    1.217    wigner-seitz radius (au A)           
   ENMAX  =  173.807; ENMIN  =  130.355 eV                                      
   ICORE  =        3    local potential                                         
   LCOR   =        T    correct aug charges                                     
   LPAW   =        T    paw PP                                                  
   EAUG   =  385.843                                                            
   DEXC   =    0.000                                                            
   RMAX   =    2.342    core radius for proj-oper                               
   RAUG   =    1.300    factor for augmentation sphere                          
   RDEP   =    2.318    radius for radial grids                                 
   RDEPT  =    2.103    core radius for aug-charge                              
                                                                                
   Atomic configuration                                                         
   10 entries                                                                   
     n  l   j            E        occ.                                          
     1  0  0.50    -10959.8463   2.0000                                         
     2  0  0.50     -1371.6056   2.0000                                         
     2  1  1.50     -1198.4791   6.0000                                         
     3  0  0.50      -168.4733   2.0000                                         
     3  1  1.50      -115.6019   6.0000                                         
     3  2  2.50       -29.3106  10.0000                                         
     4  0  0.50       -11.7309   2.0000                                         
     4  1  0.50        -3.8952   2.0000                                         
     4  2  1.50        -4.0817   0.0000                                         
     4  3  2.50        -4.0817   0.0000                                         
   Description                                                                  
     l       E           TYP  RCUT    TYP  RCUT                                 
     0    -11.7309493     23  2.300                                             
     0     -7.4578696     23  2.300                                             
     1     -3.8952261     23  2.300                                             
     1      6.1178114     23  2.300                                             
     2     -4.0817478     23  2.300                                             
     3     -1.3605826      7  2.300                                             
  local pseudopotential read in
  partial core-charges read in
  partial kinetic energy density read in
  atomic valenz-charges read in
  non local Contribution for L=           0  read in
    real space projection operators read in
  non local Contribution for L=           0  read in
    real space projection operators read in
  non local Contribution for L=           1  read in
    real space projection operators read in
  non local Contribution for L=           1  read in
    real space projection operators read in
  non local Contribution for L=           2  read in
    real space projection operators read in
    PAW grid and wavefunctions read in
 
   number of l-projection  operators is LMAX  =           5
   number of lm-projection operators is LMMAX =          13
 
 POTCAR:    PAW_PBE S 17Jan2003                   
   VRHFIN =S : s2p4                                                             
   LEXCH  = PE                                                                  
   EATOM  =   276.8230 eV,   20.3459 Ry                                         
                                                                                
   TITEL  = PAW_PBE S 17Jan2003                                                 
   LULTRA =        F    use ultrasoft PP ?                                      
   IUNSCR =        1    unscreen: 0-lin 1-nonlin 2-no                           
   RPACOR =    1.500    partial core radius                                     
   POMASS =   32.066; ZVAL   =    6.000    mass and valenz                      
   RCORE  =    1.900    outmost cutoff radius                                   
   RWIGS  =    2.200; RWIGS  =    1.164    wigner-seitz radius (au A)           
   ENMAX  =  280.000; ENMIN  =  194.016 eV                                      
   ICORE  =        2    local potential                                         
   LCOR   =        T    correct aug charges                                     
   LPAW   =        T    paw PP                                                  
   EAUG   =  335.092                                                            
   DEXC   =     .000                                                            
   RMAX   =    2.867    core radius for proj-oper                               
   RAUG   =    1.300    factor for augmentation sphere                          
   RDEP   =    1.954    radius for radial grids                                 
   QCUT   =   -4.360; QGAM   =    8.721    optimization parameters              
                                                                                
   Description                                                                  
     l     E      TYP  RCUT    TYP  RCUT                                        
     0   .000     23  1.900                                                     
     0   .000     23  1.900                                                     
     1   .000     23  1.900                                                     
     1   .000     23  1.900                                                     
     2   .000     23  1.900                                                     
  local pseudopotential read in
  partial core-charges read in
  atomic valenz-charges read in
  non local Contribution for L=           0  read in
    real space projection operators read in
  non local Contribution for L=           0  read in
    real space projection operators read in
  non local Contribution for L=           1  read in
    real space projection operators read in
  non local Contribution for L=           1  read in
    real space projection operators read in
    PAW grid and wavefunctions read in
 
   number of l-projection  operators is LMAX  =           4
   number of lm-projection operators is LMMAX =           8
 
  PAW_PBE Cu_pv 06Sep2000               :
 energy of atom  1       EATOM=-4120.1201
 kinetic energy error for atom=    0.0996 (will be added to EATOM!!)
  PAW_PBE Ge 05Jan2001                  :
 energy of atom  2       EATOM= -104.9960
 kinetic energy error for atom=    0.0003 (will be added to EATOM!!)
  PAW_PBE S 17Jan2003                   :
 energy of atom  3       EATOM= -276.8230
 kinetic energy error for atom=    0.0046 (will be added to EATOM!!)
 
 
 POSCAR: Cu Ge S                                 
  positions in direct lattice
  No initial velocities read in
 exchange correlation table for  LEXCH =        8
   RHO(1)=    0.500       N(1)  =     2000
   RHO(2)=  100.500       N(2)  =     4000
 


--------------------------------------------------------------------------------------------------------


 ion  position               nearest neighbor table
   1  0.618  0.121  0.120-   9 2.29  11 2.29  12 2.30   8 2.35
   2  0.121  0.618  0.620-  12 2.29   7 2.29   9 2.30  10 2.35
   3  0.963  0.792  0.119-  11 2.29  12 2.30   7 2.31   8 2.36
   4  0.790  0.963  0.619-   7 2.30   9 2.30  11 2.31  10 2.36
   5  0.440  0.267  0.599-   7 2.19   9 2.19  10 2.31   8 2.33
   6  0.267  0.440  0.099-  11 2.19  12 2.19   8 2.31  10 2.33
   7  0.079  0.912  0.497-   5 2.19   2 2.29   4 2.30   3 2.31
   8  0.571  0.412  0.980-   6 2.31   5 2.33   1 2.35   3 2.36
   9  0.737  0.250  0.495-   5 2.19   1 2.29   4 2.30   2 2.30
  10  0.412  0.571  0.480-   5 2.31   6 2.33   2 2.35   4 2.36
  11  0.912  0.079  0.997-   6 2.19   3 2.29   1 2.29   4 2.31
  12  0.250  0.737  0.995-   6 2.19   2 2.29   3 2.30   1 2.30
 
  Warning from LATTYP: Got some problem with cell dimensions!
  Tried to take original basis but could not verify dimensions!
  LATTYP: Found a base centered monoclinic cell.
 ALAT       =     6.4499010947
 B/A-ratio  =     1.7500516418
 C/A-ratio  =     1.9305142024
 COS(beta)  =    -0.4326083233
  
  Lattice vectors:
  
 A1 = (   3.2247960000,   5.6438300000,   0.0315720000)
 A2 = (   3.2247960000,  -5.6438300000,   0.0315720000)
 A3 = ( -10.7972380000,   0.0000000000,  -6.2018250000)


Analysis of symmetry for initial positions (statically):
=====================================================================
 Subroutine PRICEL returns:
 Original cell was already a primitive cell.
 

 Routine SETGRP: Setting up the symmetry group for a 
 base centered monoclinic supercell.


 Subroutine GETGRP returns: Found  1 space group operations
 (whereof  1 operations were pure point group operations)
 out of a pool of  4 trial point group operations.


The static configuration has the point symmetry C_1 .


Analysis of symmetry for dynamics (positions and initial velocities):
=====================================================================
 Subroutine PRICEL returns:
 Original cell was already a primitive cell.
 

 Routine SETGRP: Setting up the symmetry group for a 
 base centered monoclinic supercell.


 Subroutine GETGRP returns: Found  1 space group operations
 (whereof  1 operations were pure point group operations)
 out of a pool of  4 trial point group operations.


The dynamic configuration has the point symmetry C_1 .


 irot  :   1
 --------------------------------------------------------------------
 isymop:   1   0   0
           0   1   0
           0   0   1

 gtrans:     0.0000000     0.0000000     0.0000000

 ptrans:     0.0000000     0.0000000     0.0000000
 rotmap:
 (   1->   1)  (   2->   2)  (   3->   3)  (   4->   4)  (   5->   5) 
 (   6->   6)  (   7->   7)  (   8->   8)  (   9->   9)  (  10->  10) 
 (  11->  11)  (  12->  12) 
 
 
 KPOINTS: pymatgen 4.7.6+ generated KPOINTS with g

Automatic generation of k-mesh.
Space group operators:
 irot       det(A)        alpha          n_x          n_y          n_z        tau_x        tau_y        tau_z
    1     1.000000     0.000000     1.000000     0.000000     0.000000     0.000000     0.000000     0.000000
 
 Subroutine IBZKPT returns following result:
 ===========================================
 
 Found     42 irreducible k-points:
 
 Following reciprocal coordinates:
            Coordinates               Weight
  0.000000  0.000000  0.000000      1.000000
  0.250000  0.000000  0.000000      2.000000
  0.500000  0.000000  0.000000      1.000000
  0.000000  0.250000  0.000000      2.000000
  0.250000  0.250000  0.000000      2.000000
  0.500000  0.250000 -0.000000      2.000000
 -0.250000  0.250000  0.000000      2.000000
  0.000000  0.500000  0.000000      1.000000
  0.250000  0.500000 -0.000000      2.000000
  0.500000  0.500000  0.000000      1.000000
 -0.000000 -0.000000  0.200000      2.000000
  0.250000  0.000000  0.200000      2.000000
  0.500000  0.000000  0.200000      2.000000
 -0.250000 -0.000000  0.200000      2.000000
  0.000000  0.250000  0.200000      2.000000
  0.250000  0.250000  0.200000      2.000000
  0.500000  0.250000  0.200000      2.000000
 -0.250000  0.250000  0.200000      2.000000
  0.000000  0.500000  0.200000      2.000000
  0.250000  0.500000  0.200000      2.000000
  0.500000  0.500000  0.200000      2.000000
 -0.250000  0.500000  0.200000      2.000000
 -0.000000 -0.250000  0.200000      2.000000
  0.250000 -0.250000  0.200000      2.000000
  0.500000 -0.250000  0.200000      2.000000
 -0.250000 -0.250000  0.200000      2.000000
 -0.000000 -0.000000  0.400000      2.000000
  0.250000  0.000000  0.400000      2.000000
  0.500000  0.000000  0.400000      2.000000
 -0.250000  0.000000  0.400000      2.000000
  0.000000  0.250000  0.400000      2.000000
  0.250000  0.250000  0.400000      2.000000
  0.500000  0.250000  0.400000      2.000000
 -0.250000  0.250000  0.400000      2.000000
  0.000000  0.500000  0.400000      2.000000
  0.250000  0.500000  0.400000      2.000000
  0.500000  0.500000  0.400000      2.000000
 -0.250000  0.500000  0.400000      2.000000
  0.000000 -0.250000  0.400000      2.000000
  0.250000 -0.250000  0.400000      2.000000
  0.500000 -0.250000  0.400000      2.000000
 -0.250000 -0.250000  0.400000      2.000000
 
 Following cartesian coordinates:
            Coordinates               Weight
  0.000000  0.000000  0.000000      1.000000
  0.038631 -0.022148  0.013365      2.000000
  0.077263 -0.044296  0.026730      1.000000
  0.038631  0.022148  0.013365      2.000000
  0.077263  0.000000  0.026730      2.000000
  0.115894 -0.022148  0.040096      2.000000
  0.000000  0.044296  0.000000      2.000000
  0.077263  0.044296  0.026730      1.000000
  0.115894  0.022148  0.040096      2.000000
  0.154525  0.000000  0.053461      1.000000
 -0.000321  0.000000  0.032808      2.000000
  0.038310 -0.022148  0.046173      2.000000
  0.076941 -0.044296  0.059538      2.000000
 -0.038952  0.022148  0.019443      2.000000
  0.038310  0.022148  0.046173      2.000000
  0.076941  0.000000  0.059538      2.000000
  0.115573 -0.022148  0.072903      2.000000
 -0.000321  0.044296  0.032808      2.000000
  0.076941  0.044296  0.059538      2.000000
  0.115573  0.022148  0.072903      2.000000
  0.154204  0.000000  0.086269      2.000000
  0.038310  0.066444  0.046173      2.000000
 -0.038952 -0.022148  0.019443      2.000000
 -0.000321 -0.044296  0.032808      2.000000
  0.038310 -0.066444  0.046173      2.000000
 -0.077584  0.000000  0.006077      2.000000
 -0.000642  0.000000  0.065616      2.000000
  0.037989 -0.022148  0.078981      2.000000
  0.076620 -0.044296  0.092346      2.000000
 -0.039274  0.022148  0.052250      2.000000
  0.037989  0.022148  0.078981      2.000000
  0.076620  0.000000  0.092346      2.000000
  0.115251 -0.022148  0.105711      2.000000
 -0.000642  0.044296  0.065616      2.000000
  0.076620  0.044296  0.092346      2.000000
  0.115251  0.022148  0.105711      2.000000
  0.153883  0.000000  0.119076      2.000000
  0.037989  0.066444  0.078981      2.000000
 -0.039274 -0.022148  0.052250      2.000000
 -0.000642 -0.044296  0.065616      2.000000
  0.037989 -0.066444  0.078981      2.000000
 -0.077905  0.000000  0.038885      2.000000
 
 
 Subroutine IBZKPT_HF returns following result:
 ==============================================
 
 Found     80 k-points in 1st BZ
 the following     80 k-points will be used (e.g. in the exchange kernel)
 Following reciprocal coordinates:   # in IRBZ
  0.000000  0.000000  0.000000       1 t-inv F
  0.250000  0.000000  0.000000       2 t-inv F
  0.500000  0.000000  0.000000       3 t-inv F
  0.000000  0.250000  0.000000       4 t-inv F
  0.250000  0.250000  0.000000       5 t-inv F
  0.500000  0.250000 -0.000000       6 t-inv F
 -0.250000  0.250000  0.000000       7 t-inv F
  0.000000  0.500000  0.000000       8 t-inv F
  0.250000  0.500000 -0.000000       9 t-inv F
  0.500000  0.500000  0.000000      10 t-inv F
 -0.000000 -0.000000  0.200000      11 t-inv F
  0.250000  0.000000  0.200000      12 t-inv F
  0.500000  0.000000  0.200000      13 t-inv F
 -0.250000 -0.000000  0.200000      14 t-inv F
  0.000000  0.250000  0.200000      15 t-inv F
  0.250000  0.250000  0.200000      16 t-inv F
  0.500000  0.250000  0.200000      17 t-inv F
 -0.250000  0.250000  0.200000      18 t-inv F
  0.000000  0.500000  0.200000      19 t-inv F
  0.250000  0.500000  0.200000      20 t-inv F
  0.500000  0.500000  0.200000      21 t-inv F
 -0.250000  0.500000  0.200000      22 t-inv F
 -0.000000 -0.250000  0.200000      23 t-inv F
  0.250000 -0.250000  0.200000      24 t-inv F
  0.500000 -0.250000  0.200000      25 t-inv F
 -0.250000 -0.250000  0.200000      26 t-inv F
 -0.000000 -0.000000  0.400000      27 t-inv F
  0.250000  0.000000  0.400000      28 t-inv F
  0.500000  0.000000  0.400000      29 t-inv F
 -0.250000  0.000000  0.400000      30 t-inv F
  0.000000  0.250000  0.400000      31 t-inv F
  0.250000  0.250000  0.400000      32 t-inv F
  0.500000  0.250000  0.400000      33 t-inv F
 -0.250000  0.250000  0.400000      34 t-inv F
  0.000000  0.500000  0.400000      35 t-inv F
  0.250000  0.500000  0.400000      36 t-inv F
  0.500000  0.500000  0.400000      37 t-inv F
 -0.250000  0.500000  0.400000      38 t-inv F
  0.000000 -0.250000  0.400000      39 t-inv F
  0.250000 -0.250000  0.400000      40 t-inv F
  0.500000 -0.250000  0.400000      41 t-inv F
 -0.250000 -0.250000  0.400000      42 t-inv F
 -0.250000 -0.000000 -0.000000       2 t-inv T
 -0.000000 -0.250000 -0.000000       4 t-inv T
 -0.250000 -0.250000  0.000000       5 t-inv T
 -0.500000 -0.250000  0.000000       6 t-inv T
  0.250000 -0.250000  0.000000       7 t-inv T
 -0.250000 -0.500000  0.000000       9 t-inv T
  0.000000  0.000000 -0.200000      11 t-inv T
 -0.250000 -0.000000 -0.200000      12 t-inv T
 -0.500000 -0.000000 -0.200000      13 t-inv T
  0.250000  0.000000 -0.200000      14 t-inv T
 -0.000000 -0.250000 -0.200000      15 t-inv T
 -0.250000 -0.250000 -0.200000      16 t-inv T
 -0.500000 -0.250000 -0.200000      17 t-inv T
  0.250000 -0.250000 -0.200000      18 t-inv T
 -0.000000 -0.500000 -0.200000      19 t-inv T
 -0.250000 -0.500000 -0.200000      20 t-inv T
 -0.500000 -0.500000 -0.200000      21 t-inv T
  0.250000 -0.500000 -0.200000      22 t-inv T
  0.000000  0.250000 -0.200000      23 t-inv T
 -0.250000  0.250000 -0.200000      24 t-inv T
 -0.500000  0.250000 -0.200000      25 t-inv T
  0.250000  0.250000 -0.200000      26 t-inv T
  0.000000  0.000000 -0.400000      27 t-inv T
 -0.250000 -0.000000 -0.400000      28 t-inv T
 -0.500000 -0.000000 -0.400000      29 t-inv T
  0.250000 -0.000000 -0.400000      30 t-inv T
 -0.000000 -0.250000 -0.400000      31 t-inv T
 -0.250000 -0.250000 -0.400000      32 t-inv T
 -0.500000 -0.250000 -0.400000      33 t-inv T
  0.250000 -0.250000 -0.400000      34 t-inv T
 -0.000000 -0.500000 -0.400000      35 t-inv T
 -0.250000 -0.500000 -0.400000      36 t-inv T
 -0.500000 -0.500000 -0.400000      37 t-inv T
  0.250000 -0.500000 -0.400000      38 t-inv T
 -0.000000  0.250000 -0.400000      39 t-inv T
 -0.250000  0.250000 -0.400000      40 t-inv T
 -0.500000  0.250000 -0.400000      41 t-inv T
  0.250000  0.250000 -0.400000      42 t-inv T


--------------------------------------------------------------------------------------------------------




 Dimension of arrays:
   k-points           NKPTS =     42   k-points in BZ     NKDIM =     80   number of bands    NBANDS=     80
   number of dos      NEDOS =    301   number of ions     NIONS =     12
   non local maximal  LDIM  =      6   non local SUM 2l+1 LMDIM =     18
   total plane-waves  NPLWV =  32768
   max r-space proj   IRMAX =      1   max aug-charges    IRDMAX=   8224
   dimension x,y,z NGX =    32 NGY =   32 NGZ =   32
   dimension x,y,z NGXF=    64 NGYF=   64 NGZF=   64
   support grid    NGXF=    64 NGYF=   64 NGZF=   64
   ions per type =               4   2   6
 NGX,Y,Z   is equivalent  to a cutoff of   8.18,  8.18,  8.27 a.u.
 NGXF,Y,Z  is equivalent  to a cutoff of  16.37, 16.37, 16.55 a.u.


 I would recommend the setting:
   dimension x,y,z NGX =    32 NGY =   32 NGZ =   31
 SYSTEM =  CGS                                     
 POSCAR =  Cu Ge S                                 

 Startparameter for this run:
   NWRITE =      2    write-flag & timer
   PREC   = normal    normal or accurate (medium, high low for compatibility)
   ISTART =      1    job   : 0-new  1-cont  2-samecut
   ICHARG =      0    charge: 1-file 2-atom 10-const
   ISPIN  =      1    spin polarized calculation?
   LNONCOLLINEAR =      F non collinear calculations
   LSORBIT =      F    spin-orbit coupling
   INIWAV =      1    electr: 0-lowe 1-rand  2-diag
   LASPH  =      F    aspherical Exc in radial PAW
   METAGGA=      F    non-selfconsistent MetaGGA calc.

 Electronic Relaxation 1
   ENCUT  =  400.0 eV  29.40 Ry    5.42 a.u.  10.60 10.60 10.48*2*pi/ulx,y,z
   ENINI  =  400.0     initial cutoff
   ENAUG  =  758.2 eV  augmentation charge cutoff
   NELM   =     60;   NELMIN=  2; NELMDL=  0     # of ELM steps 
   EDIFF  = 0.1E-04   stopping-criterion for ELM
   LREAL  =      F    real-space projection
   NLSPLINE    = F    spline interpolate recip. space projectors
   LCOMPAT=      F    compatible to vasp.4.4
   GGA_COMPAT  = T    GGA compatible to vasp.4.4-vasp.4.6
   LMAXPAW     = -100 max onsite density
   LMAXMIX     =    2 max onsite mixed and CHGCAR
   VOSKOWN=      0    Vosko Wilk Nusair interpolation
   ROPT   =    0.00000   0.00000   0.00000
 Ionic relaxation
   EDIFFG = 0.1E-03   stopping-criterion for IOM
   NSW    =      0    number of steps for IOM
   NBLOCK =      1;   KBLOCK =      1    inner block; outer block 
   IBRION =     -1    ionic relax: 0-MD 1-quasi-New 2-CG
   NFREE  =      0    steps in history (QN), initial steepest desc. (CG)
   ISIF   =      0    stress and relaxation
   IWAVPR =     10    prediction:  0-non 1-charg 2-wave 3-comb
   ISYM   =      3    0-nonsym 1-usesym 2-fastsym
   LCORR  =      T    Harris-Foulkes like correction to forces

   POTIM  = 0.5000    time-step for ionic-motion
   TEIN   =    0.0    initial temperature
   TEBEG  =    0.0;   TEEND  =   0.0 temperature during run
   SMASS  =  -3.00    Nose mass-parameter (am)
   estimated Nose-frequenzy (Omega)   =  0.10E-29 period in steps =****** mass=  -0.966E-27a.u.
   SCALEE = 1.0000    scale energy and forces
   NPACO  =    256;   APACO  = 16.0  distance and # of slots for P.C.
   PSTRESS=    0.0 pullay stress

  Mass of Ions in am
   POMASS =  63.55 72.61 32.07
  Ionic Valenz
   ZVAL   =  17.00  4.00  6.00
  Atomic Wigner-Seitz radii
   RWIGS  =  -1.00 -1.00 -1.00
  virtual crystal weights 
   VCA    =   1.00  1.00  1.00
   NELECT =     112.0000    total number of electrons
   NUPDOWN=      -1.0000    fix difference up-down

 DOS related values:
   EMIN   =  10.00;   EMAX   =-10.00  energy-range for DOS
   EFERMI =   0.00
   ISMEAR =     1;   SIGMA  =   0.10  broadening in eV -4-tet -1-fermi 0-gaus

 Electronic relaxation 2 (details)
   IALGO  =     53    algorithm
   LDIAG  =      T    sub-space diagonalisation (order eigenvalues)
   LSUBROT=      T    optimize rotation matrix (better conditioning)
   TURBO    =      0    0=normal 1=particle mesh
   IRESTART =      0    0=no restart 2=restart with 2 vectors
   NREBOOT  =      0    no. of reboots
   NMIN     =      0    reboot dimension
   EREF     =   0.00    reference energy to select bands
   IMIX   =      4    mixing-type and parameters
     AMIX     =   0.40;   BMIX     =  1.00
     AMIX_MAG =   1.60;   BMIX_MAG =  1.00
     AMIN     =   0.10
     WC   =   100.;   INIMIX=   1;  MIXPRE=   1;  MAXMIX= -45

 Intra band minimization:
   WEIMIN = 0.0000     energy-eigenvalue tresh-hold
   EBREAK =  0.31E-07  absolut break condition
   DEPER  =   0.30     relativ break condition  

   TIME   =   0.40     timestep for ELM

  volume/ion in A,a.u.               =      18.49       124.79
  Fermi-wavevector in a.u.,A,eV,Ry     =   1.303450  2.463163 23.116052  1.698982
  Thomas-Fermi vector in A             =   2.434451
 
 Write flags
   LWAVE  =      T    write WAVECAR
   LCHARG =      T    write CHGCAR
   LVTOT  =      F    write LOCPOT, total local potential
   LVHAR  =      F    write LOCPOT, Hartree potential only
   LELF   =      F    write electronic localiz. function (ELF)
   LORBIT =      0    0 simple, 1 ext, 2 COOP (PROOUT)


 Dipole corrections
   LMONO  =      F    monopole corrections only (constant potential shift)
   LDIPOL =      F    correct potential (dipole corrections)
   IDIPOL =      0    1-x, 2-y, 3-z, 4-all directions 
   EPSILON=  1.0000000 bulk dielectric constant

 Exchange correlation treatment:
   GGA     =    PE    GGA type
   LEXCH   =     8    internal setting for exchange type
   VOSKOWN=      0    Vosko Wilk Nusair interpolation
   EXXOEP  =     0    0=HF, 1=EXX-LHF (local Hartree Fock) 2=EXX OEP
   LHFCALC =     T    Hartree Fock is set to
   LSYMGRAD=     F    symmetrize gradient (conserves proper symmetry)
   PRECFOCK=fast      Normal, Fast or Accurate (Low or Medium for compatibility)
   LRHFCALC=     F    long range Hartree Fock
   LRSCOR  =     F    long range correlation only (use DFT for short range part)
   LTHOMAS =     F    Thomas Fermi screening in HF
   LMODELHF=     F    short range full HF, long range fraction AEXX
   ENCUT4O =  -1.0   cutoff for four orbital integrals eV
   LMAXFOCK=     4    L truncation for augmentation on plane wave grid
   LMAXFOCKAE=  -1    L truncation for all-electron charge restoration on plane wave grid
   NMAXFOCKAE=   1    number of basis functions for all-electron charge restoration
   LFOCKAEDFT=     F  apply the AE augmentation even for DFT
   NKREDX  =     1    reduce k-point grid by
   NKREDY  =     1    reduce k-point grid by
   NKREDZ  =     1    reduce k-point grid by
   SHIFTRED=     F    shift reduced grid of Gamma
   HFKIDENT=     F    idential grid for each k-point
   ODDONLY =     F    use only odd q-grid points
   EVENONLY=     F    use only even q-grid points
   HFALPHA =   -1.0000 decay constant for conv. correction
   MCALPHA =    0.0000 extent of test-charge in conv. correction in multipole expansion
   AEXX    =    0.2500 exact exchange contribution
   HFSCREEN=    0.2000 screening length (either q_TF or 0.3 A-1)
   HFSCREENC=   0.2000 screening length for correlation (either q_TF or 0.3 A-1)
   HFRCUT  =    0.0000 spherical cutoff for potential kernel
   ALDAX   =    0.7500 LDA exchange part
   AGGAX   =    0.7500 GGA exchange part
   ALDAC   =    1.0000 LDA correlation
   AGGAC   =    1.0000 GGA correlation
   NBANDSGWLOW=     1    first orbital included in HF term
 Linear response parameters
   LEPSILON=     F    determine dielectric tensor
   LRPA    =     F    only Hartree local field effects (RPA)
   LNABLA  =     F    use nabla operator in PAW spheres
   LVEL    =     F    velocity operator in full k-point grid
   LINTERFAST=   F  fast interpolation
   KINTER  =     0    interpolate to denser k-point grid
   CSHIFT  =0.1000    complex shift for real part using Kramers Kronig
   OMEGAMAX=  -1.0    maximum frequency
   DEG_THRESHOLD= 0.2000000E-02 threshold for treating states as degnerate
   RTIME   =    0.100 relaxation time in fs

 Orbital magnetization related:
   ORBITALMAG=     F  switch on orbital magnetization
   LCHIMAG   =     F  perturbation theory with respect to B field
   DQ        =  0.001000  dq finite difference perturbation B field



--------------------------------------------------------------------------------------------------------


 Static calculation
 charge density and potential will be updated during run
 non-spin polarized calculation
 Conjugate gradient for all bands, subspace preconditioning
 perform sub-space diagonalisation
    before iterative eigenvector-optimisation
 modified Broyden-mixing scheme, WC =      100.0
 initial mixing is a Kerker type mixing with AMIX =  0.4000 and BMIX =      1.0000
 Hartree-type preconditioning will be used
 using additional bands           24
 reciprocal scheme for non local part
 use partial core corrections
 no Harris-corrections to forces 
 use gradient corrections 
 use of overlap-Matrix (Vanderbilt PP)
 Methfessel and Paxton  Order N= 1 SIGMA  =   0.10


--------------------------------------------------------------------------------------------------------


  energy-cutoff  :      400.00
  volume of cell :      221.90
      direct lattice vectors                 reciprocal lattice vectors
     3.224796000 -5.643830000  0.031572000     0.154525165 -0.088592321  0.053460880
     3.224796000  5.643830000  0.031572000     0.154525165  0.088592321  0.053460880
    -2.101946000  0.000000000  6.075537000    -0.001606004  0.000000000  0.164038877

  length of vectors
     6.500240234  6.500240234  6.428866683     0.185969598  0.185969598  0.164046738


 
 old parameters found on file WAVECAR:
  energy-cutoff  :      400.00
  volume of cell :      222.35
      direct lattice vectors                 reciprocal lattice vectors
     3.227235519 -5.642745207  0.030241751     0.154430495 -0.088609353  0.053450002
     3.227235519  5.642745207  0.030241751     0.154430495  0.088609353  0.053450002
    -2.106135241  0.000000000  6.085154262    -0.001534965  0.000000000  0.163803104

  length of vectors

 
 k-points in units of 2pi/SCALE and weight: pymatgen 4.7.6+ generated KPOINTS with g
   0.00000000  0.00000000  0.00000000       0.013
   0.03863129 -0.02214808  0.01336522       0.025
   0.07726258 -0.04429616  0.02673044       0.013
   0.03863129  0.02214808  0.01336522       0.025
   0.07726258  0.00000000  0.02673044       0.025
   0.11589387 -0.02214808  0.04009566       0.025
   0.00000000  0.04429616  0.00000000       0.025
   0.07726258  0.04429616  0.02673044       0.013
   0.11589387  0.02214808  0.04009566       0.025
   0.15452516  0.00000000  0.05346088       0.013
  -0.00032120  0.00000000  0.03280778       0.025
   0.03831009 -0.02214808  0.04617300       0.025
   0.07694138 -0.04429616  0.05953822       0.025
  -0.03895249  0.02214808  0.01944256       0.025
   0.03831009  0.02214808  0.04617300       0.025
   0.07694138  0.00000000  0.05953822       0.025
   0.11557267 -0.02214808  0.07290344       0.025
  -0.00032120  0.04429616  0.03280778       0.025
   0.07694138  0.04429616  0.05953822       0.025
   0.11557267  0.02214808  0.07290344       0.025
   0.15420396  0.00000000  0.08626865       0.025
   0.03831009  0.06644424  0.04617300       0.025
  -0.03895249 -0.02214808  0.01944256       0.025
  -0.00032120 -0.04429616  0.03280778       0.025
   0.03831009 -0.06644424  0.04617300       0.025
  -0.07758378  0.00000000  0.00607734       0.025
  -0.00064240  0.00000000  0.06561555       0.025
   0.03798889 -0.02214808  0.07898077       0.025
   0.07662018 -0.04429616  0.09234599       0.025
  -0.03927369  0.02214808  0.05225033       0.025
   0.03798889  0.02214808  0.07898077       0.025
   0.07662018  0.00000000  0.09234599       0.025
   0.11525147 -0.02214808  0.10571121       0.025
  -0.00064240  0.04429616  0.06561555       0.025
   0.07662018  0.04429616  0.09234599       0.025
   0.11525147  0.02214808  0.10571121       0.025
   0.15388276  0.00000000  0.11907643       0.025
   0.03798889  0.06644424  0.07898077       0.025
  -0.03927369 -0.02214808  0.05225033       0.025
  -0.00064240 -0.04429616  0.06561555       0.025
   0.03798889 -0.06644424  0.07898077       0.025
  -0.07790498  0.00000000  0.03888511       0.025
 
 k-points in reciprocal lattice and weights: pymatgen 4.7.6+ generated KPOINTS with g
   0.00000000  0.00000000  0.00000000       0.013
   0.25000000  0.00000000  0.00000000       0.025
   0.50000000  0.00000000  0.00000000       0.013
   0.00000000  0.25000000  0.00000000       0.025
   0.25000000  0.25000000  0.00000000       0.025
   0.50000000  0.25000000 -0.00000000       0.025
  -0.25000000  0.25000000  0.00000000       0.025
   0.00000000  0.50000000  0.00000000       0.013
   0.25000000  0.50000000 -0.00000000       0.025
   0.50000000  0.50000000  0.00000000       0.013
  -0.00000000 -0.00000000  0.20000000       0.025
   0.25000000  0.00000000  0.20000000       0.025
   0.50000000  0.00000000  0.20000000       0.025
  -0.25000000 -0.00000000  0.20000000       0.025
   0.00000000  0.25000000  0.20000000       0.025
   0.25000000  0.25000000  0.20000000       0.025
   0.50000000  0.25000000  0.20000000       0.025
  -0.25000000  0.25000000  0.20000000       0.025
   0.00000000  0.50000000  0.20000000       0.025
   0.25000000  0.50000000  0.20000000       0.025
   0.50000000  0.50000000  0.20000000       0.025
  -0.25000000  0.50000000  0.20000000       0.025
  -0.00000000 -0.25000000  0.20000000       0.025
   0.25000000 -0.25000000  0.20000000       0.025
   0.50000000 -0.25000000  0.20000000       0.025
  -0.25000000 -0.25000000  0.20000000       0.025
  -0.00000000 -0.00000000  0.40000000       0.025
   0.25000000  0.00000000  0.40000000       0.025
   0.50000000  0.00000000  0.40000000       0.025
  -0.25000000  0.00000000  0.40000000       0.025
   0.00000000  0.25000000  0.40000000       0.025
   0.25000000  0.25000000  0.40000000       0.025
   0.50000000  0.25000000  0.40000000       0.025
  -0.25000000  0.25000000  0.40000000       0.025
   0.00000000  0.50000000  0.40000000       0.025
   0.25000000  0.50000000  0.40000000       0.025
   0.50000000  0.50000000  0.40000000       0.025
  -0.25000000  0.50000000  0.40000000       0.025
   0.00000000 -0.25000000  0.40000000       0.025
   0.25000000 -0.25000000  0.40000000       0.025
   0.50000000 -0.25000000  0.40000000       0.025
  -0.25000000 -0.25000000  0.40000000       0.025
 
 position of ions in fractional coordinates (direct lattice) 
   0.61844300  0.12117100  0.11953300
   0.12117100  0.61844300  0.61953300
   0.96295700  0.79186040  0.11881300
   0.79032200  0.96295700  0.61881300
   0.43973200  0.26728100  0.59904700
   0.26728100  0.43973200  0.09904700
   0.07949800  0.91167500  0.49736300
   0.57140300  0.41236400  0.98018400
   0.73711100  0.25006200  0.49504900
   0.41236400  0.57140300  0.48018400
   0.91167500  0.07949800  0.99736300
   0.25006200  0.73711100  0.99504900
 
 position of ions in cartesian coordinates  (Angst):
   2.13385236 -2.80651863  0.74957826
   1.08287936  2.80651863  3.78734676
   5.40918964 -0.96564010  0.77725587
   4.35325560  0.97432259  3.81497580
   1.02080825 -0.97328413  3.66185403
   2.07178125  0.97328413  0.62408553
   2.15090056  4.69666552  3.05304062
   1.11215405 -0.89758908  5.98620365
   2.14286528 -2.74882176  3.03885554
   2.16312705  0.89758908  2.94843515
   1.09992756 -4.69666552  6.09080912
   1.09189228  2.74882176  6.07662404
 


--------------------------------------------------------------------------------------------------------


 k-point  1 :   0.0000 0.0000 0.0000  plane waves:    4051
 k-point  2 :   0.2500 0.0000 0.0000  plane waves:    4032
 k-point  3 :   0.5000 0.0000 0.0000  plane waves:    4030
 k-point  4 :   0.0000 0.2500 0.0000  plane waves:    4032
 k-point  5 :   0.2500 0.2500 0.0000  plane waves:    4038
 k-point  6 :   0.5000 0.2500-0.0000  plane waves:    4037
 k-point  7 :  -0.2500 0.2500 0.0000  plane waves:    4042
 k-point  8 :   0.0000 0.5000 0.0000  plane waves:    4030
 k-point  9 :   0.2500 0.5000-0.0000  plane waves:    4037
 k-point 10 :   0.5000 0.5000 0.0000  plane waves:    4026
 k-point 11 :  -0.0000-0.0000 0.2000  plane waves:    4046
 k-point 12 :   0.2500 0.0000 0.2000  plane waves:    4034
 k-point 13 :   0.5000 0.0000 0.2000  plane waves:    4025
 k-point 14 :  -0.2500-0.0000 0.2000  plane waves:    4044
 k-point 15 :   0.0000 0.2500 0.2000  plane waves:    4034
 k-point 16 :   0.2500 0.2500 0.2000  plane waves:    4017
 k-point 17 :   0.5000 0.2500 0.2000  plane waves:    4039
 k-point 18 :  -0.2500 0.2500 0.2000  plane waves:    4042
 k-point 19 :   0.0000 0.5000 0.2000  plane waves:    4025
 k-point 20 :   0.2500 0.5000 0.2000  plane waves:    4039
 k-point 21 :   0.5000 0.5000 0.2000  plane waves:    4030
 k-point 22 :  -0.2500 0.5000 0.2000  plane waves:    4030
 k-point 23 :  -0.0000-0.2500 0.2000  plane waves:    4044
 k-point 24 :   0.2500-0.2500 0.2000  plane waves:    4042
 k-point 25 :   0.5000-0.2500 0.2000  plane waves:    4030
 k-point 26 :  -0.2500-0.2500 0.2000  plane waves:    4020
 k-point 27 :  -0.0000-0.0000 0.4000  plane waves:    4027
 k-point 28 :   0.2500 0.0000 0.4000  plane waves:    4034
 k-point 29 :   0.5000 0.0000 0.4000  plane waves:    4013
 k-point 30 :  -0.2500 0.0000 0.4000  plane waves:    4042
 k-point 31 :   0.0000 0.2500 0.4000  plane waves:    4034
 k-point 32 :   0.2500 0.2500 0.4000  plane waves:    4009
 k-point 33 :   0.5000 0.2500 0.4000  plane waves:    4026
 k-point 34 :  -0.2500 0.2500 0.4000  plane waves:    4027
 k-point 35 :   0.0000 0.5000 0.4000  plane waves:    4013
 k-point 36 :   0.2500 0.5000 0.4000  plane waves:    4026
 k-point 37 :   0.5000 0.5000 0.4000  plane waves:    4037
 k-point 38 :  -0.2500 0.5000 0.4000  plane waves:    4022
 k-point 39 :   0.0000-0.2500 0.4000  plane waves:    4042
 k-point 40 :   0.2500-0.2500 0.4000  plane waves:    4027
 k-point 41 :   0.5000-0.2500 0.4000  plane waves:    4022
 k-point 42 :  -0.2500-0.2500 0.4000  plane waves:    4015

 maximum and minimum number of plane-waves per node :      4051     4009

 maximum number of plane-waves:      4051
 maximum index in each direction: 
   IXMAX=   10   IYMAX=   10   IZMAX=   10
   IXMIN=  -11   IYMIN=  -11   IZMIN=  -10

 WARNING: aliasing errors must be expected set NGX to  44 to avoid them
 WARNING: aliasing errors must be expected set NGY to  44 to avoid them
 WARNING: aliasing errors must be expected set NGZ to  42 to avoid them
 aliasing errors are usually negligible using standard VASP settings
 and one can safely disregard these warnings

 serial   3D FFT for wavefunctions
 parallel 3D FFT for charge:
    minimum data exchange during FFTs selected (reduces bandwidth)


 FFT grid for exact exchange (Hartree Fock) 
  NGX = 24; NGY = 24; NGZ = 24

 
 Radii for the augmentation spheres in the non-local exchange
 for species   1 augmentation radius   1.120 (default was   0.830)
       energy cutoff for augmentation   1600.0
 for species   2 augmentation radius   1.570 (default was   1.163)
       energy cutoff for augmentation   1600.0
 for species   3 augmentation radius   1.034 (default was   0.970)
       energy cutoff for augmentation   1600.0

 total amount of memory used by VASP on root node   151697. kBytes
========================================================================

   base      :      30000. kBytes
   nonl-proj :      74517. kBytes
   fftplans  :        702. kBytes
   grid      :       2400. kBytes
   one-center:        186. kBytes
   HF        :        194. kBytes
   nonlr-proj:       1122. kBytes
   wavefun   :      42576. kBytes
 
 Broyden mixing: mesh for mixing (old mesh)
   NGX = 21   NGY = 21   NGZ = 21
  (NGX  = 64   NGY  = 64   NGZ  = 64)
  gives a total of   9261 points

 charge density for first step will be calculated from the start-wavefunctions


--------------------------------------------------------------------------------------------------------


 Maximum index for augmentation-charges          485 (set IRDMAX)


--------------------------------------------------------------------------------------------------------


 initial charge from wavefunction
 First call to EWALD:  gamma=   0.293
 Maximum number of real-space cells 3x 3x 3
 Maximum number of reciprocal cells 3x 3x 3

 FEWALD executed in parallel
    FEWALD:  cpu time    0.00: real time    0.00


----------------------------------------- Iteration    1(   1)  ---------------------------------------


    POTLOK:  cpu time    0.05: real time    0.05
    SETDIJ:  cpu time    1.91: real time    1.90
 
    SUBROT:  cpu time    0.68: real time    0.68
    SUBROT:  cpu time    0.32: real time    0.32
    SUBROT:  cpu time    0.32: real time    0.32
    --------------------------------------------
    SUBRT+:  cpu time    1.33: real time    1.34

 Broyden mixing:
  rms(total) = 0.31841E-01    rms(broyden)= 0.31827E-01
  rms(prec ) = 0.47660E-01
  weight for this iteration     100.00

 eigenvalues of (default mixing * dielectric matrix)
  average eigenvalue GAMMA=   1.7286
  1.0100  2.4473
 
    TRIAL :  cpu time  235.19: real time  234.99
    CORREC:  cpu time    0.00: real time    0.00
    CHARGE:  cpu time    0.05: real time    0.06
    --------------------------------------------
      LOOP:  cpu time  237.21: real time  237.01

 eigenvalue-minimisations  :     0
 total energy-change (2. order) : 0.7571971E+02  (-0.2136394E+03)
 number of electron     112.0001446 magnetization 
 augmentation part       38.9143918 magnetization 

 Free energy of the ion-electron system (eV)
  ---------------------------------------------------
  alpha Z        PSCENC =       339.31929130
  Ewald energy   TEWEN  =     -9064.66049938
  -1/2 Hartree   DENC   =     -8066.95665064
  -exchange  EXHF       =       327.43873959
  -V(xc)+E(xc)   XCENC  =       369.89326116
  PAW double counting   =     16955.26255803   -17448.00697459
  entropy T*S    EENTRO =        -0.00147645
  eigenvalues    EBANDS =     -1657.55369787
  atomic energy  EATOM  =     18320.98302006
  ---------------------------------------------------
  free energy    TOTEN  =        75.71971095 eV

  energy without entropy =       75.72118739  energy(sigma->0) =       75.72020309


--------------------------------------------------------------------------------------------------------




----------------------------------------- Iteration    1(   2)  ---------------------------------------


    POTLOK:  cpu time    0.05: real time    0.05
    SETDIJ:  cpu time    1.99: real time    1.99
 
    SUBROT:  cpu time    0.65: real time    0.65
    SUBROT:  cpu time    0.34: real time    0.34
    SUBROT:  cpu time    0.33: real time    0.34
    SUBROT:  cpu time    0.34: real time    0.34
    --------------------------------------------
    SUBRT+:  cpu time    1.67: real time    1.68

 Broyden mixing:
  rms(total) = 0.28170E-01    rms(broyden)= 0.28160E-01
  rms(prec ) = 0.51173E-01
  weight for this iteration     100.00

 eigenvalues of (default mixing * dielectric matrix)
  average eigenvalue GAMMA=   1.5627
  2.5424  1.2833  0.8624
 
    TRIAL :  cpu time  240.93: real time  240.73
    CORREC:  cpu time    0.00: real time    0.00
    CHARGE:  cpu time    0.06: real time    0.06
    --------------------------------------------
      LOOP:  cpu time  243.04: real time  242.84

 eigenvalue-minimisations  :     0
 total energy-change (2. order) :-0.8395944E+02  (-0.1471930E+03)
 number of electron     112.0001354 magnetization 
 augmentation part       35.4407244 magnetization 

 Free energy of the ion-electron system (eV)
  ---------------------------------------------------
  alpha Z        PSCENC =       339.31929130
  Ewald energy   TEWEN  =     -9064.66049938
  -1/2 Hartree   DENC   =     -8371.15045173
  -exchange  EXHF       =       338.97283715
  -V(xc)+E(xc)   XCENC  =       377.34090826
  PAW double counting   =     17431.78272165   -17971.05219289
  entropy T*S    EENTRO =         0.00038608
  eigenvalues    EBANDS =     -1409.77388746
  atomic energy  EATOM  =     18320.98302006
  ---------------------------------------------------
  free energy    TOTEN  =        -8.23972948 eV

  energy without entropy =       -8.24011557  energy(sigma->0) =       -8.23985818


--------------------------------------------------------------------------------------------------------




----------------------------------------- Iteration    1(   3)  ---------------------------------------


    POTLOK:  cpu time    0.06: real time    0.06
    SETDIJ:  cpu time    2.03: real time    2.03
 
    SUBROT:  cpu time    0.67: real time    0.67
    SUBROT:  cpu time    0.32: real time    0.32
    SUBROT:  cpu time    0.32: real time    0.33
    SUBROT:  cpu time    0.33: real time    0.33
    --------------------------------------------
    SUBRT+:  cpu time    1.65: real time    1.65

 Broyden mixing:
  rms(total) = 0.28059E-01    rms(broyden)= 0.28048E-01
  rms(prec ) = 0.52352E-01
  weight for this iteration     100.00

 eigenvalues of (default mixing * dielectric matrix)
  average eigenvalue GAMMA=   1.7752
  1.0115  2.4990  1.8150
 
    TRIAL :  cpu time  239.79: real time  239.58
    CORREC:  cpu time    0.00: real time    0.00
    CHARGE:  cpu time    0.05: real time    0.06
    --------------------------------------------
      LOOP:  cpu time  241.94: real time  241.73

 eigenvalue-minimisations  :     0
 total energy-change (2. order) :-0.6631576E+01  (-0.2003465E+03)
 number of electron     112.0001477 magnetization 
 augmentation part       39.6966922 magnetization 

 Free energy of the ion-electron system (eV)
  ---------------------------------------------------
  alpha Z        PSCENC =       339.31929130
  Ewald energy   TEWEN  =     -9064.66049938
  -1/2 Hartree   DENC   =     -7473.82823748
  -exchange  EXHF       =       324.91565508
  -V(xc)+E(xc)   XCENC  =       357.32361316
  PAW double counting   =     15147.69528412   -15577.00217816
  entropy T*S    EENTRO =         0.00028957
  eigenvalues    EBANDS =     -2389.61764006
  atomic energy  EATOM  =     18320.98302006
  ---------------------------------------------------
  free energy    TOTEN  =       -14.87130528 eV

  energy without entropy =      -14.87159485  energy(sigma->0) =      -14.87140180


--------------------------------------------------------------------------------------------------------




----------------------------------------- Iteration    1(   4)  ---------------------------------------


    POTLOK:  cpu time    0.05: real time    0.05
    SETDIJ:  cpu time    2.02: real time    2.02
 
    SUBROT:  cpu time    0.68: real time    0.68
    SUBROT:  cpu time    0.33: real time    0.33
    SUBROT:  cpu time    0.32: real time    0.32
    SUBROT:  cpu time    0.32: real time    0.33
    SUBROT:  cpu time    0.35: real time    0.35
    --------------------------------------------
    SUBRT+:  cpu time    2.01: real time    2.02

 Broyden mixing:
  rms(total) = 0.10614E+00    rms(broyden)= 0.10596E+00
  rms(prec ) = 0.18771E+00
  weight for this iteration     100.00

 eigenvalues of (default mixing * dielectric matrix)
  average eigenvalue GAMMA=   1.3119
  2.7121  1.4947  0.6678  0.3728
 
    TRIAL :  cpu time  244.42: real time  244.21
    CORREC:  cpu time    0.00: real time    0.00
    CHARGE:  cpu time    0.07: real time    0.07
    --------------------------------------------
      LOOP:  cpu time  246.56: real time  246.36

 eigenvalue-minimisations  :     0
 total energy-change (2. order) :-0.7454115E+01  (-0.1080365E+03)
 number of electron     112.0001398 magnetization 
 augmentation part       37.2448448 magnetization 

 Free energy of the ion-electron system (eV)
  ---------------------------------------------------
  alpha Z        PSCENC =       339.31929130
  Ewald energy   TEWEN  =     -9064.66049938
  -1/2 Hartree   DENC   =     -8545.95818219
  -exchange  EXHF       =       343.02899165
  -V(xc)+E(xc)   XCENC  =       381.72120048
  PAW double counting   =     17644.37965609   -18225.69519855
  entropy T*S    EENTRO =         0.00035562
  eigenvalues    EBANDS =     -1215.44398923
  atomic energy  EATOM  =     18320.98302006
  ---------------------------------------------------
  free energy    TOTEN  =       -22.32542020 eV

  energy without entropy =      -22.32577582  energy(sigma->0) =      -22.32553874


--------------------------------------------------------------------------------------------------------




----------------------------------------- Iteration    1(   5)  ---------------------------------------


    POTLOK:  cpu time    0.05: real time    0.05
    SETDIJ:  cpu time    2.03: real time    2.03
 
    SUBROT:  cpu time    0.70: real time    0.70
    SUBROT:  cpu time    0.33: real time    0.33
    SUBROT:  cpu time    0.33: real time    0.33
    SUBROT:  cpu time    0.34: real time    0.34
    --------------------------------------------
    SUBRT+:  cpu time    1.70: real time    1.70

 Broyden mixing:
  rms(total) = 0.38757E-01    rms(broyden)= 0.38749E-01
  rms(prec ) = 0.81329E-01
  weight for this iteration     100.00

 eigenvalues of (default mixing * dielectric matrix)
  average eigenvalue GAMMA=   1.6985
  2.4623  0.9345  1.6986
 
    TRIAL :  cpu time  244.77: real time  244.56
    CORREC:  cpu time    0.00: real time    0.00
    CHARGE:  cpu time    0.05: real time    0.05
    --------------------------------------------
      LOOP:  cpu time  246.91: real time  246.70

 eigenvalue-minimisations  :     0
 total energy-change (2. order) :-0.3847049E+02  (-0.1509353E+02)
 number of electron     112.0001398 magnetization 
 augmentation part       37.2480059 magnetization 

 Free energy of the ion-electron system (eV)
  ---------------------------------------------------
  alpha Z        PSCENC =       339.31929130
  Ewald energy   TEWEN  =     -9064.66049938
  -1/2 Hartree   DENC   =     -8008.80626887
  -exchange  EXHF       =       336.38923198
  -V(xc)+E(xc)   XCENC  =       368.40468961
  PAW double counting   =     15872.16472497   -16341.61584140
  entropy T*S    EENTRO =         0.00064101
  eigenvalues    EBANDS =     -1882.97461295
  atomic energy  EATOM  =     18320.98302006
  ---------------------------------------------------
  free energy    TOTEN  =       -60.79590906 eV

  energy without entropy =      -60.79655006  energy(sigma->0) =      -60.79612273


--------------------------------------------------------------------------------------------------------




----------------------------------------- Iteration    1(   6)  ---------------------------------------


    POTLOK:  cpu time    0.10: real time    0.10
    SETDIJ:  cpu time    2.03: real time    2.02
 
    SUBROT:  cpu time    0.69: real time    0.69
    SUBROT:  cpu time    0.35: real time    0.36
    SUBROT:  cpu time    0.33: real time    0.33
    SUBROT:  cpu time    0.34: real time    0.34
    --------------------------------------------
    SUBRT+:  cpu time    1.72: real time    1.72

 Broyden mixing:
  rms(total) = 0.26503E-02    rms(broyden)= 0.26497E-02
  rms(prec ) = 0.44409E-02
  weight for this iteration     100.00

 eigenvalues of (default mixing * dielectric matrix)
  average eigenvalue GAMMA=   1.8186
  1.0270  2.5194  1.9093
 
    TRIAL :  cpu time  244.34: real time  244.12
    CORREC:  cpu time    0.00: real time    0.00
    CHARGE:  cpu time    0.06: real time    0.06
    --------------------------------------------
      LOOP:  cpu time  246.52: real time  246.31

 eigenvalue-minimisations  :     0
 total energy-change (2. order) :-0.5146692E+01  (-0.8158396E+01)
 number of electron     112.0001428 magnetization 
 augmentation part       38.2267626 magnetization 

 Free energy of the ion-electron system (eV)
  ---------------------------------------------------
  alpha Z        PSCENC =       339.31929130
  Ewald energy   TEWEN  =     -9064.66049938
  -1/2 Hartree   DENC   =     -8002.79103229
  -exchange  EXHF       =       337.17277848
  -V(xc)+E(xc)   XCENC  =       368.80217138
  PAW double counting   =     15774.29279389   -16243.22574953
  entropy T*S    EENTRO =         0.00066280
  eigenvalues    EBANDS =     -1895.83601607
  atomic energy  EATOM  =     18320.98302006
  ---------------------------------------------------
  free energy    TOTEN  =       -65.94260114 eV

  energy without entropy =      -65.94326394  energy(sigma->0) =      -65.94282207


--------------------------------------------------------------------------------------------------------




----------------------------------------- Iteration    1(   7)  ---------------------------------------


    POTLOK:  cpu time    0.06: real time    0.06
    SETDIJ:  cpu time    2.01: real time    2.01
 
    SUBROT:  cpu time    0.68: real time    0.68
    SUBROT:  cpu time    0.33: real time    0.33
    SUBROT:  cpu time    0.32: real time    0.32
    SUBROT:  cpu time    0.33: real time    0.33
    --------------------------------------------
    SUBRT+:  cpu time    1.67: real time    1.67

 Broyden mixing:
  rms(total) = 0.13097E-01    rms(broyden)= 0.13093E-01
  rms(prec ) = 0.23150E-01
  weight for this iteration     100.00

 eigenvalues of (default mixing * dielectric matrix)
  average eigenvalue GAMMA=   1.6295
  2.5024  0.8967  1.4892
 
    TRIAL :  cpu time  245.42: real time  245.21
    CORREC:  cpu time    0.00: real time    0.00
    CHARGE:  cpu time    0.06: real time    0.06
    --------------------------------------------
      LOOP:  cpu time  247.55: real time  247.34

 eigenvalue-minimisations  :     0
 total energy-change (2. order) :-0.1537765E+01  (-0.4123727E+01)
 number of electron     112.0001411 magnetization 
 augmentation part       37.7068934 magnetization 

 Free energy of the ion-electron system (eV)
  ---------------------------------------------------
  alpha Z        PSCENC =       339.31929130
  Ewald energy   TEWEN  =     -9064.66049938
  -1/2 Hartree   DENC   =     -8243.74292729
  -exchange  EXHF       =       341.63194790
  -V(xc)+E(xc)   XCENC  =       374.56009149
  PAW double counting   =     16207.52858178   -16710.71755804
  entropy T*S    EENTRO =         0.00042954
  eigenvalues    EBANDS =     -1632.38297640
  atomic energy  EATOM  =     18320.98302006
  ---------------------------------------------------
  free energy    TOTEN  =       -67.48036577 eV

  energy without entropy =      -67.48079531  energy(sigma->0) =      -67.48050895


--------------------------------------------------------------------------------------------------------




----------------------------------------- Iteration    1(   8)  ---------------------------------------


    POTLOK:  cpu time    0.06: real time    0.06
    SETDIJ:  cpu time    2.02: real time    2.02
 
    SUBROT:  cpu time    0.67: real time    0.67
    SUBROT:  cpu time    0.34: real time    0.34
    SUBROT:  cpu time    0.35: real time    0.35
    SUBROT:  cpu time    0.35: real time    0.35
    --------------------------------------------
    SUBRT+:  cpu time    1.71: real time    1.73

 Broyden mixing:
  rms(total) = 0.82704E-02    rms(broyden)= 0.82680E-02
  rms(prec ) = 0.13865E-01
  weight for this iteration     100.00

 eigenvalues of (default mixing * dielectric matrix)
  average eigenvalue GAMMA=   1.6772
  2.4562  0.9482  1.6272
 
    TRIAL :  cpu time  245.01: real time  244.82
    CORREC:  cpu time    0.00: real time    0.00
    CHARGE:  cpu time    0.08: real time    0.08
    --------------------------------------------
      LOOP:  cpu time  247.17: real time  246.98

 eigenvalue-minimisations  :     0
 total energy-change (2. order) :-0.1606184E+01  (-0.7694952E+00)
 number of electron     112.0001411 magnetization 
 augmentation part       37.7251011 magnetization 

 Free energy of the ion-electron system (eV)
  ---------------------------------------------------
  alpha Z        PSCENC =       339.31929130
  Ewald energy   TEWEN  =     -9064.66049938
  -1/2 Hartree   DENC   =     -8117.31171020
  -exchange  EXHF       =       339.53743945
  -V(xc)+E(xc)   XCENC  =       371.39422580
  PAW double counting   =     15917.07353772   -16398.41057096
  entropy T*S    EENTRO =         0.00073145
  eigenvalues    EBANDS =     -1777.01171300
  atomic energy  EATOM  =     18320.98302006
  ---------------------------------------------------
  free energy    TOTEN  =       -69.08654968 eV

  energy without entropy =      -69.08728113  energy(sigma->0) =      -69.08679350


--------------------------------------------------------------------------------------------------------




----------------------------------------- Iteration    1(   9)  ---------------------------------------


    POTLOK:  cpu time    0.11: real time    0.11
    SETDIJ:  cpu time    2.02: real time    2.01
 
    SUBROT:  cpu time    0.74: real time    0.74
    SUBROT:  cpu time    0.34: real time    0.34
    SUBROT:  cpu time    0.35: real time    0.35
    SUBROT:  cpu time    0.34: real time    0.34
    --------------------------------------------
    SUBRT+:  cpu time    1.77: real time    1.77

 Broyden mixing:
  rms(total) = 0.51767E-03    rms(broyden)= 0.51708E-03
  rms(prec ) = 0.80260E-03
  weight for this iteration     100.00

 eigenvalues of (default mixing * dielectric matrix)
  average eigenvalue GAMMA=   1.7069
  2.5289  1.0030  1.5889
 
    TRIAL :  cpu time  244.78: real time  244.57
    CORREC:  cpu time    0.00: real time    0.00
    CHARGE:  cpu time    0.06: real time    0.06
    --------------------------------------------
      LOOP:  cpu time  246.97: real time  246.77

 eigenvalue-minimisations  :     0
 total energy-change (2. order) :-0.3087883E+00  (-0.3856307E+00)
 number of electron     112.0001417 magnetization 
 augmentation part       37.9053727 magnetization 

 Free energy of the ion-electron system (eV)
  ---------------------------------------------------
  alpha Z        PSCENC =       339.31929130
  Ewald energy   TEWEN  =     -9064.66049938
  -1/2 Hartree   DENC   =     -8124.59377785
  -exchange  EXHF       =       339.60235988
  -V(xc)+E(xc)   XCENC  =       371.45024922
  PAW double counting   =     15912.56646201   -16393.81814453
  entropy T*S    EENTRO =         0.00086877
  eigenvalues    EBANDS =     -1770.24503014
  atomic energy  EATOM  =     18320.98302006
  ---------------------------------------------------
  free energy    TOTEN  =       -69.39533797 eV

  energy without entropy =      -69.39620675  energy(sigma->0) =      -69.39562756


--------------------------------------------------------------------------------------------------------




----------------------------------------- Iteration    1(  10)  ---------------------------------------


    POTLOK:  cpu time    0.06: real time    0.06
    SETDIJ:  cpu time    2.02: real time    2.02
 
    SUBROT:  cpu time    0.68: real time    0.68
    SUBROT:  cpu time    0.35: real time    0.35
    SUBROT:  cpu time    0.36: real time    0.36
    SUBROT:  cpu time    0.37: real time    0.37
    --------------------------------------------
    SUBRT+:  cpu time    1.77: real time    1.77

 Broyden mixing:
  rms(total) = 0.22762E-02    rms(broyden)= 0.22757E-02
  rms(prec ) = 0.38429E-02
  weight for this iteration     100.00

 eigenvalues of (default mixing * dielectric matrix)
  average eigenvalue GAMMA=   1.6895
  2.4746  0.9899  1.6039
 
    TRIAL :  cpu time  245.58: real time  245.36
    CORREC:  cpu time    0.00: real time    0.00
    CHARGE:  cpu time    0.07: real time    0.07
    --------------------------------------------
      LOOP:  cpu time  247.74: real time  247.52

 eigenvalue-minimisations  :     0
 total energy-change (2. order) :-0.1037157E+00  (-0.1518997E+00)
 number of electron     112.0001415 magnetization 
 augmentation part       37.8186171 magnetization 

 Free energy of the ion-electron system (eV)
  ---------------------------------------------------
  alpha Z        PSCENC =       339.31929130
  Ewald energy   TEWEN  =     -9064.66049938
  -1/2 Hartree   DENC   =     -8171.67727514
  -exchange  EXHF       =       340.39796738
  -V(xc)+E(xc)   XCENC  =       372.53996276
  PAW double counting   =     15993.79218742   -16481.76238399
  entropy T*S    EENTRO =         0.00070364
  eigenvalues    EBANDS =     -1718.43219287
  atomic energy  EATOM  =     18320.98302006
  ---------------------------------------------------
  free energy    TOTEN  =       -69.49905369 eV

  energy without entropy =      -69.49975733  energy(sigma->0) =      -69.49928824


--------------------------------------------------------------------------------------------------------




----------------------------------------- Iteration    1(  11)  ---------------------------------------


    POTLOK:  cpu time    0.05: real time    0.05
    SETDIJ:  cpu time    2.03: real time    2.02
 
    SUBROT:  cpu time    0.71: real time    0.71
    SUBROT:  cpu time    0.35: real time    0.35
    SUBROT:  cpu time    0.36: real time    0.36
    SUBROT:  cpu time    0.36: real time    0.36
    --------------------------------------------
    SUBRT+:  cpu time    1.79: real time    1.79

 Broyden mixing:
  rms(total) = 0.77419E-03    rms(broyden)= 0.77395E-03
  rms(prec ) = 0.15495E-02
  weight for this iteration     100.00

 eigenvalues of (default mixing * dielectric matrix)
  average eigenvalue GAMMA=   1.6760
  2.4939  0.9848  1.5493
 
    TRIAL :  cpu time  245.27: real time  245.06
    CORREC:  cpu time    0.00: real time    0.00
    CHARGE:  cpu time    0.08: real time    0.09
    --------------------------------------------
      LOOP:  cpu time  247.44: real time  247.23

 eigenvalue-minimisations  :     0
 total energy-change (2. order) :-0.6945168E-01  (-0.3704415E-01)
 number of electron     112.0001414 magnetization 
 augmentation part       37.7857541 magnetization 

 Free energy of the ion-electron system (eV)
  ---------------------------------------------------
  alpha Z        PSCENC =       339.31929130
  Ewald energy   TEWEN  =     -9064.66049938
  -1/2 Hartree   DENC   =     -8150.40567609
  -exchange  EXHF       =       340.06995550
  -V(xc)+E(xc)   XCENC  =       372.06865307
  PAW double counting   =     15942.07956394   -16427.03408117
  entropy T*S    EENTRO =         0.00059579
  eigenvalues    EBANDS =     -1741.98943625
  atomic energy  EATOM  =     18320.98302006
  ---------------------------------------------------
  free energy    TOTEN  =       -69.56850537 eV

  energy without entropy =      -69.56910115  energy(sigma->0) =      -69.56870396


--------------------------------------------------------------------------------------------------------




----------------------------------------- Iteration    1(  12)  ---------------------------------------


    POTLOK:  cpu time    0.06: real time    0.06
    SETDIJ:  cpu time    2.03: real time    2.03
 
    SUBROT:  cpu time    0.73: real time    0.73
    SUBROT:  cpu time    0.36: real time    0.36
    SUBROT:  cpu time    0.34: real time    0.34
    SUBROT:  cpu time    0.35: real time    0.35
    --------------------------------------------
    SUBRT+:  cpu time    1.79: real time    1.79

 Broyden mixing:
  rms(total) = 0.20540E-03    rms(broyden)= 0.20531E-03
  rms(prec ) = 0.45026E-03
  weight for this iteration     100.00

 eigenvalues of (default mixing * dielectric matrix)
  average eigenvalue GAMMA=   1.6566
  2.5053  0.9997  1.4648
 
    TRIAL :  cpu time  244.49: real time  244.29
    CORREC:  cpu time    0.00: real time    0.00
    CHARGE:  cpu time    0.08: real time    0.08
    --------------------------------------------
      LOOP:  cpu time  246.67: real time  246.46

 eigenvalue-minimisations  :     0
 total energy-change (2. order) :-0.1243364E-01  (-0.2279609E-01)
 number of electron     112.0001415 magnetization 
 augmentation part       37.8258743 magnetization 

 Free energy of the ion-electron system (eV)
  ---------------------------------------------------
  alpha Z        PSCENC =       339.31929130
  Ewald energy   TEWEN  =     -9064.66049938
  -1/2 Hartree   DENC   =     -8142.01595465
  -exchange  EXHF       =       339.95369387
  -V(xc)+E(xc)   XCENC  =       371.89363505
  PAW double counting   =     15920.34041960   -16404.20963822
  entropy T*S    EENTRO =         0.00054675
  eigenvalues    EBANDS =     -1751.18550242
  atomic energy  EATOM  =     18320.98302006
  ---------------------------------------------------
  free energy    TOTEN  =       -69.58093900 eV

  energy without entropy =      -69.58148575  energy(sigma->0) =      -69.58112125


--------------------------------------------------------------------------------------------------------




----------------------------------------- Iteration    1(  13)  ---------------------------------------


    POTLOK:  cpu time    0.07: real time    0.07
    SETDIJ:  cpu time    2.02: real time    2.02
 
    SUBROT:  cpu time    0.74: real time    0.74
    SUBROT:  cpu time    0.35: real time    0.35
    SUBROT:  cpu time    0.36: real time    0.36
    SUBROT:  cpu time    0.36: real time    0.36
    --------------------------------------------
    SUBRT+:  cpu time    1.81: real time    1.82

 Broyden mixing:
  rms(total) = 0.55570E-03    rms(broyden)= 0.55559E-03
  rms(prec ) = 0.94190E-03
  weight for this iteration     100.00

 eigenvalues of (default mixing * dielectric matrix)
  average eigenvalue GAMMA=   1.6961
  2.4797  0.9964  1.6122
 
    TRIAL :  cpu time  244.46: real time  244.25
    CORREC:  cpu time    0.00: real time    0.00
    CHARGE:  cpu time    0.09: real time    0.09
    --------------------------------------------
      LOOP:  cpu time  246.65: real time  246.44

 eigenvalue-minimisations  :     0
 total energy-change (2. order) :-0.9637157E-02  (-0.5120292E-02)
 number of electron     112.0001415 magnetization 
 augmentation part       37.8298243 magnetization 

 Free energy of the ion-electron system (eV)
  ---------------------------------------------------
  alpha Z        PSCENC =       339.31929130
  Ewald energy   TEWEN  =     -9064.66049938
  -1/2 Hartree   DENC   =     -8151.86475979
  -exchange  EXHF       =       340.12576526
  -V(xc)+E(xc)   XCENC  =       372.12683221
  PAW double counting   =     15936.55022709   -16421.90410030
  entropy T*S    EENTRO =         0.00053472
  eigenvalues    EBANDS =     -1740.26689936
  atomic energy  EATOM  =     18320.98302006
  ---------------------------------------------------
  free energy    TOTEN  =       -69.59057616 eV

  energy without entropy =      -69.59111087  energy(sigma->0) =      -69.59075440


--------------------------------------------------------------------------------------------------------




----------------------------------------- Iteration    1(  14)  ---------------------------------------


    POTLOK:  cpu time    0.05: real time    0.05
    SETDIJ:  cpu time    2.02: real time    2.01
 
    SUBROT:  cpu time    0.77: real time    0.77
    SUBROT:  cpu time    0.36: real time    0.36
    SUBROT:  cpu time    0.37: real time    0.37
    SUBROT:  cpu time    0.36: real time    0.36
    --------------------------------------------
    SUBRT+:  cpu time    1.86: real time    1.87

 Broyden mixing:
  rms(total) = 0.68684E-04    rms(broyden)= 0.68671E-04
  rms(prec ) = 0.13960E-03
  weight for this iteration     100.00

 eigenvalues of (default mixing * dielectric matrix)
  average eigenvalue GAMMA=   1.6825
  2.5144  0.9916  1.5415
 
    TRIAL :  cpu time  244.99: real time  244.79
    CORREC:  cpu time    0.00: real time    0.00
    CHARGE:  cpu time    0.09: real time    0.09
    --------------------------------------------
      LOOP:  cpu time  247.15: real time  246.95

 eigenvalue-minimisations  :     0
 total energy-change (2. order) :-0.2451568E-02  (-0.3770659E-02)
 number of electron     112.0001414 magnetization 
 augmentation part       37.8123474 magnetization 

 Free energy of the ion-electron system (eV)
  ---------------------------------------------------
  alpha Z        PSCENC =       339.31929130
  Ewald energy   TEWEN  =     -9064.66049938
  -1/2 Hartree   DENC   =     -8152.41669101
  -exchange  EXHF       =       340.12444598
  -V(xc)+E(xc)   XCENC  =       372.13672404
  PAW double counting   =     15934.56533443   -16420.08166259
  entropy T*S    EENTRO =         0.00055110
  eigenvalues    EBANDS =     -1739.56352528
  atomic energy  EATOM  =     18320.98302006
  ---------------------------------------------------
  free energy    TOTEN  =       -69.59302773 eV

  energy without entropy =      -69.59357882  energy(sigma->0) =      -69.59321142


--------------------------------------------------------------------------------------------------------




----------------------------------------- Iteration    1(  15)  ---------------------------------------


    POTLOK:  cpu time    0.05: real time    0.05
    SETDIJ:  cpu time    2.02: real time    2.02
 
    SUBROT:  cpu time    0.78: real time    0.78
    SUBROT:  cpu time    0.35: real time    0.35
    SUBROT:  cpu time    0.37: real time    0.37
    SUBROT:  cpu time    0.37: real time    0.37
    --------------------------------------------
    SUBRT+:  cpu time    1.87: real time    1.88

 Broyden mixing:
  rms(total) = 0.19475E-03    rms(broyden)= 0.19469E-03
  rms(prec ) = 0.33258E-03
  weight for this iteration     100.00

 eigenvalues of (default mixing * dielectric matrix)
  average eigenvalue GAMMA=   1.6902
  2.4711  0.9896  1.6099
 
    TRIAL :  cpu time  245.07: real time  244.86
    CORREC:  cpu time    0.00: real time    0.00
    CHARGE:  cpu time    0.08: real time    0.08
    --------------------------------------------
      LOOP:  cpu time  247.23: real time  247.02

 eigenvalue-minimisations  :     0
 total energy-change (2. order) :-0.1501242E-02  (-0.1033400E-02)
 number of electron     112.0001415 magnetization 
 augmentation part       37.8166635 magnetization 

 Free energy of the ion-electron system (eV)
  ---------------------------------------------------
  alpha Z        PSCENC =       339.31929130
  Ewald energy   TEWEN  =     -9064.66049938
  -1/2 Hartree   DENC   =     -8147.72815184
  -exchange  EXHF       =       340.03572303
  -V(xc)+E(xc)   XCENC  =       372.02588245
  PAW double counting   =     15922.55471856   -16407.46014081
  entropy T*S    EENTRO =         0.00056342
  eigenvalues    EBANDS =     -1744.66492344
  atomic energy  EATOM  =     18320.98302006
  ---------------------------------------------------
  free energy    TOTEN  =       -69.59452897 eV

  energy without entropy =      -69.59509239  energy(sigma->0) =      -69.59471678


--------------------------------------------------------------------------------------------------------




----------------------------------------- Iteration    1(  16)  ---------------------------------------


    POTLOK:  cpu time    0.05: real time    0.05
    SETDIJ:  cpu time    2.02: real time    2.02
 
    SUBROT:  cpu time    0.72: real time    0.73
    SUBROT:  cpu time    0.36: real time    0.36
    SUBROT:  cpu time    0.37: real time    0.37
    SUBROT:  cpu time    0.37: real time    0.37
    --------------------------------------------
    SUBRT+:  cpu time    1.83: real time    1.85

 Broyden mixing:
  rms(total) = 0.82023E-04    rms(broyden)= 0.82006E-04
  rms(prec ) = 0.13767E-03
  weight for this iteration     100.00

 eigenvalues of (default mixing * dielectric matrix)
  average eigenvalue GAMMA=   1.6880
  2.4862  0.9897  1.5879
 
    TRIAL :  cpu time  244.98: real time  244.77
    CORREC:  cpu time    0.00: real time    0.00
    CHARGE:  cpu time    0.08: real time    0.09
    --------------------------------------------
      LOOP:  cpu time  247.14: real time  246.94

 eigenvalue-minimisations  :     0
 total energy-change (2. order) :-0.5672121E-03  (-0.4080513E-03)
 number of electron     112.0001415 magnetization 
 augmentation part       37.8214672 magnetization 

 Free energy of the ion-electron system (eV)
  ---------------------------------------------------
  alpha Z        PSCENC =       339.31929130
  Ewald energy   TEWEN  =     -9064.66049938
  -1/2 Hartree   DENC   =     -8148.84774388
  -exchange  EXHF       =       340.05428457
  -V(xc)+E(xc)   XCENC  =       372.05298435
  PAW double counting   =     15923.42063183   -16408.51295567
  entropy T*S    EENTRO =         0.00056442
  eigenvalues    EBANDS =     -1743.40467280
  atomic energy  EATOM  =     18320.98302006
  ---------------------------------------------------
  free energy    TOTEN  =       -69.59509618 eV

[...]
     22      -2.2892      2.00000
     23      -1.9525      2.00000
     24      -1.6194      2.00000
     25      -1.2184      2.00000
     26      -1.0048      2.00000
     27      -0.9728      2.00000
     28      -0.7142      2.00000
     29      -0.5506      2.00000
     30      -0.3919      2.00000
     31      -0.2865      2.00000
     32      -0.1989      2.00000
     33      -0.1815      2.00000
     34      -0.1400      2.00000
     35      -0.0172      2.00000
     36       0.0184      2.00000
     37       1.2969      2.00000
     38       1.3081      2.00000
     39       1.3683      2.00000
     40       1.4110      2.00000
     41       1.4509      2.00000
     42       1.4658      2.00000
     43       1.5065      2.00000
     44       1.5498      2.00000
     45       1.7630      2.00000
     46       1.8944      2.00000
     47       1.9824      2.00000
     48       2.1518      2.00000
     49       2.3707      2.00000
     50       2.5762      2.00000
     51       2.7034      2.00000
     52       2.9086      2.00000
     53       3.0166      2.00000
     54       3.2196      2.00000
     55       3.3995      2.00000
     56       3.6560      2.00000
     57       6.3788     -0.00000
     58       6.5199     -0.00000
     59       7.7177      0.00000
     60       7.9020      0.00000
     61       8.2985      0.00000
     62       8.5733      0.00000
     63       9.3253      0.00000
     64       9.8444      0.00000
     65      10.0208      0.00000
     66      10.3531      0.00000
     67      10.5848      0.00000
     68      10.7879      0.00000
     69      10.9766      0.00000
     70      11.2560      0.00000
     71      11.3125      0.00000
     72      11.7045      0.00000
     73      12.2505      0.00000
     74      12.4624      0.00000
     75      13.0959      0.00000
     76      13.4831      0.00000
     77      13.8206      0.00000
     78      14.6925      0.00000
     79      15.0004      0.00000
     80      15.7235      0.00000

 k-point  40 :       0.2500   -0.2500    0.4000
  band No.  band energies     occupation 
      1     -68.6454      2.00000
      2     -68.6448      2.00000
      3     -68.6342      2.00000
      4     -68.6324      2.00000
      5     -68.6132      2.00000
      6     -68.6126      2.00000
      7     -68.5961      2.00000
      8     -68.5954      2.00000
      9     -68.5785      2.00000
     10     -68.5774      2.00000
     11     -68.5614      2.00000
     12     -68.5607      2.00000
     13     -12.2197      2.00000
     14     -11.8186      2.00000
     15     -10.8212      2.00000
     16     -10.6712      2.00000
     17     -10.3506      2.00000
     18     -10.2783      2.00000
     19      -5.4461      2.00000
     20      -5.1163      2.00000
     21      -2.4291      2.00000
     22      -2.1554      2.00000
     23      -2.0169      2.00000
     24      -1.5245      2.00000
     25      -1.3555      2.00000
     26      -1.1617      2.00000
     27      -0.9383      2.00000
     28      -0.8170      2.00000
     29      -0.5859      2.00000
     30      -0.5322      2.00000
     31      -0.2796      2.00000
     32      -0.2366      2.00000
     33      -0.1352      2.00000
     34      -0.0908      2.00000
     35      -0.0277      2.00000
     36       0.0332      2.00000
     37       1.3137      2.00000
     38       1.3451      2.00000
     39       1.3639      2.00000
     40       1.3963      2.00000
     41       1.4520      2.00000
     42       1.4823      2.00000
     43       1.4990      2.00000
     44       1.5654      2.00000
     45       1.8007      2.00000
     46       1.8455      2.00000
     47       1.9614      2.00000
     48       2.1104      2.00000
     49       2.2965      2.00000
     50       2.5301      2.00000
     51       2.6401      2.00000
     52       2.7700      2.00000
     53       2.9290      2.00000
     54       3.1594      2.00000
     55       3.3036      2.00000
     56       3.5738      2.00000
     57       6.5625     -0.00000
     58       6.7184     -0.00000
     59       7.9647      0.00000
     60       8.0016      0.00000
     61       8.7307      0.00000
     62       9.0929      0.00000
     63       9.4590      0.00000
     64       9.8252      0.00000
     65      10.2976      0.00000
     66      10.3691      0.00000
     67      10.7756      0.00000
     68      10.8494      0.00000
     69      11.1156      0.00000
     70      11.2714      0.00000
     71      11.3687      0.00000
     72      11.6175      0.00000
     73      12.0489      0.00000
     74      12.2937      0.00000
     75      12.6510      0.00000
     76      13.1245      0.00000
     77      13.2861      0.00000
     78      14.2427      0.00000
     79      15.6284      0.00000
     80      15.8302      0.00000

 k-point  41 :       0.5000   -0.2500    0.4000
  band No.  band energies     occupation 
      1     -68.6453      2.00000
      2     -68.6447      2.00000
      3     -68.6340      2.00000
      4     -68.6323      2.00000
      5     -68.6131      2.00000
      6     -68.6127      2.00000
      7     -68.5958      2.00000
      8     -68.5954      2.00000
      9     -68.5784      2.00000
     10     -68.5774      2.00000
     11     -68.5613      2.00000
     12     -68.5606      2.00000
     13     -12.0791      2.00000
     14     -11.7760      2.00000
     15     -10.8469      2.00000
     16     -10.7584      2.00000
     17     -10.5330      2.00000
     18     -10.3176      2.00000
     19      -5.4188      2.00000
     20      -4.9402      2.00000
     21      -2.4006      2.00000
     22      -2.1304      2.00000
     23      -1.8643      2.00000
     24      -1.7222      2.00000
     25      -1.4460      2.00000
     26      -1.1217      2.00000
     27      -0.8832      2.00000
     28      -0.6487      2.00000
     29      -0.6013      2.00000
     30      -0.4477      2.00000
     31      -0.2624      2.00000
     32      -0.1834      2.00000
     33      -0.1198      2.00000
     34      -0.0548      2.00000
     35      -0.0242      2.00000
     36       0.0212      2.00000
     37       1.2627      2.00000
     38       1.3161      2.00000
     39       1.4104      2.00000
     40       1.4370      2.00000
     41       1.4846      2.00000
     42       1.4924      2.00000
     43       1.5153      2.00000
     44       1.5741      2.00000
     45       1.7601      2.00000
     46       1.8420      2.00000
     47       2.1177      2.00000
     48       2.1852      2.00000
     49       2.3663      2.00000
     50       2.4610      2.00000
     51       2.4918      2.00000
     52       2.6969      2.00000
     53       2.8239      2.00000
     54       3.0880      2.00000
     55       3.2907      2.00000
     56       3.5237      2.00000
     57       6.4968     -0.00000
     58       6.5846     -0.00000
     59       7.4543      0.00000
     60       7.7188      0.00000
     61       8.5889      0.00000
     62       8.7455      0.00000
     63       9.2998      0.00000
     64       9.5327      0.00000
     65       9.9524      0.00000
     66      10.1861      0.00000
     67      10.6802      0.00000
     68      11.1132      0.00000
     69      11.2472      0.00000
     70      11.5679      0.00000
     71      11.7059      0.00000
     72      11.8937      0.00000
     73      12.2990      0.00000
     74      12.6581      0.00000
     75      13.0082      0.00000
     76      13.2299      0.00000
     77      13.6650      0.00000
     78      14.0704      0.00000
     79      14.3935      0.00000
     80      16.5214      0.00000

 k-point  42 :      -0.2500   -0.2500    0.4000
  band No.  band energies     occupation 
      1     -68.6453      2.00000
      2     -68.6450      2.00000
      3     -68.6339      2.00000
      4     -68.6323      2.00000
      5     -68.6131      2.00000
      6     -68.6127      2.00000
      7     -68.5959      2.00000
      8     -68.5953      2.00000
      9     -68.5785      2.00000
     10     -68.5774      2.00000
     11     -68.5614      2.00000
     12     -68.5608      2.00000
     13     -12.1783      2.00000
     14     -11.7055      2.00000
     15     -10.7177      2.00000
     16     -10.6919      2.00000
     17     -10.5892      2.00000
     18     -10.3922      2.00000
     19      -5.4455      2.00000
     20      -5.0715      2.00000
     21      -2.5081      2.00000
     22      -2.3795      2.00000
     23      -1.9642      2.00000
     24      -1.3679      2.00000
     25      -1.3316      2.00000
     26      -1.0555      2.00000
     27      -0.8310      2.00000
     28      -0.7650      2.00000
     29      -0.4233      2.00000
     30      -0.3374      2.00000
     31      -0.2710      2.00000
     32      -0.2097      2.00000
     33      -0.1439      2.00000
     34      -0.1410      2.00000
     35      -0.0125      2.00000
     36       0.0279      2.00000
     37       1.1734      2.00000
     38       1.3711      2.00000
     39       1.3971      2.00000
     40       1.4533      2.00000
     41       1.4539      2.00000
     42       1.4993      2.00000
     43       1.5171      2.00000
     44       1.5499      2.00000
     45       1.7423      2.00000
     46       1.8203      2.00000
     47       1.9744      2.00000
     48       2.2263      2.00000
     49       2.3981      2.00000
     50       2.6103      2.00000
     51       2.6549      2.00000
     52       2.9155      2.00000
     53       3.0701      2.00000
     54       3.1193      2.00000
     55       3.2877      2.00000
     56       3.5812      2.00000
     57       6.2917     -0.00000
     58       6.3794     -0.00000
     59       7.3563      0.00000
     60       7.5242      0.00000
     61       8.3106      0.00000
     62       8.3342      0.00000
     63       9.1051      0.00000
     64       9.3593      0.00000
     65       9.7170      0.00000
     66       9.9490      0.00000
     67      10.5258      0.00000
     68      10.9894      0.00000
     69      11.4222      0.00000
     70      11.5626      0.00000
     71      12.0222      0.00000
     72      12.2845      0.00000
     73      12.4309      0.00000
     74      12.4744      0.00000
     75      13.0373      0.00000
     76      13.1451      0.00000
     77      14.1384      0.00000
     78      14.4401      0.00000
     79      15.1666      0.00000
     80      15.8713      0.00000


--------------------------------------------------------------------------------------------------------


 soft charge-density along one line, spin component           1
         0         1         2         3         4         5         6         7         8         9
 total charge-density along one line
 
 pseudopotential strength for first ion, spin component:           1
-65.424   0.002   0.006   7.363   0.000  -0.003   0.001   0.007
  0.002 -65.393  -0.005   0.000   7.353   0.001  -0.001  -0.024
  0.006  -0.005 -65.384  -0.003   0.001   7.349  -0.036  -0.001
  7.363   0.000  -0.003   6.110   0.000   0.001   0.002  -0.003
  0.000   7.353   0.001   0.000   6.113  -0.000   0.000   0.007
 -0.003   0.001   7.349   0.001  -0.000   6.114   0.008   0.000
  0.001  -0.001  -0.036   0.002   0.000   0.008  -2.979  -0.003
  0.007  -0.024  -0.001  -0.003   0.007   0.000  -0.003  -2.985
  0.022   0.043   0.009  -0.005  -0.008  -0.003  -0.003   0.008
 -0.001  -0.017   0.007   0.000   0.005  -0.003   0.004   0.007
  0.025   0.000  -0.035  -0.007  -0.000   0.007  -0.000   0.007
  0.001  -0.001  -0.036   0.002   0.000   0.008  -3.626  -0.003
  0.007  -0.023  -0.001  -0.003   0.007   0.000  -0.003  -3.631
  0.022   0.042   0.009  -0.005  -0.008  -0.003  -0.003   0.008
 -0.001  -0.017   0.007   0.000   0.004  -0.003   0.004   0.007
  0.025   0.000  -0.034  -0.007  -0.000   0.006  -0.000   0.007
  0.007  -0.005   0.004  -0.001   0.001  -0.001  -0.002   0.000
  0.015  -0.010   0.009  -0.002   0.001  -0.002  -0.003   0.001
 total augmentation occupancy for first ion, spin component:           1
  2.000  -0.000   0.000  -0.003  -0.000   0.000   0.007  -0.005   0.001  -0.001  -0.005  -0.007   0.005  -0.001   0.001   0.004
 -0.000   2.000  -0.000  -0.000  -0.003   0.000  -0.001   0.005   0.004   0.001   0.000   0.001  -0.005  -0.005  -0.001  -0.000
  0.000  -0.000   2.000   0.000   0.000  -0.003  -0.000  -0.000  -0.001  -0.005  -0.004   0.001   0.000   0.001   0.005   0.005
 -0.003  -0.000   0.000   0.095   0.006  -0.005  -0.334   0.233  -0.074   0.011   0.017   0.281  -0.197   0.058  -0.007  -0.011
 -0.000  -0.003   0.000   0.006   0.102   0.001   0.020  -0.048  -0.445   0.015   0.011  -0.013   0.037   0.377  -0.011  -0.009
  0.000   0.000  -0.003  -0.005   0.001   0.099   0.098  -0.002  -0.014   0.236   0.354  -0.077   0.001   0.011  -0.202  -0.297
  0.007  -0.001  -0.000  -0.334   0.020   0.098   4.009  -0.793   0.097   0.216   0.147  -1.737   0.744  -0.089  -0.182  -0.141
 -0.005   0.005  -0.000   0.233  -0.048  -0.002  -0.793   3.511   0.291   0.159   0.297   0.744  -1.270  -0.215  -0.115  -0.206
  0.001   0.004  -0.001  -0.074  -0.445  -0.014   0.097   0.291   4.691  -0.040  -0.117  -0.090  -0.215  -2.400   0.034   0.086
 -0.001   0.001  -0.005   0.011   0.015   0.236   0.216   0.159  -0.040   3.635   0.798  -0.182  -0.115   0.034  -1.354  -0.759
 -0.005   0.000  -0.004   0.017   0.011   0.354   0.147   0.297  -0.117   0.798   3.994  -0.142  -0.206   0.086  -0.760  -1.740
 -0.007   0.001   0.001   0.281  -0.013  -0.077  -1.737   0.744  -0.090  -0.182  -0.142   1.443  -0.696   0.082   0.154   0.136
  0.005  -0.005   0.000  -0.197   0.037   0.001   0.744  -1.270  -0.215  -0.115  -0.206  -0.696   1.006   0.153   0.079   0.132
 -0.001  -0.005   0.001   0.058   0.377   0.011  -0.089  -0.215  -2.400   0.034   0.086   0.082   0.153   2.083  -0.029  -0.063
  0.001  -0.001   0.005  -0.007  -0.011  -0.202  -0.182  -0.115   0.034  -1.354  -0.760   0.154   0.079  -0.029   1.059   0.721
  0.004  -0.000   0.005  -0.011  -0.009  -0.297  -0.141  -0.206   0.086  -0.759  -1.740   0.136   0.132  -0.063   0.721   1.460
 -0.024   0.016  -0.013  -0.020   0.011  -0.006   0.080  -0.100  -0.023  -0.006   0.026  -0.063   0.088   0.035   0.006   0.005
  0.012  -0.008   0.006   0.001  -0.000  -0.000  -0.009   0.003  -0.004   0.004  -0.019   0.004  -0.005  -0.002  -0.001   0.003


------------------------ aborting loop because EDIFF is reached ----------------------------------------


    FORLOC:  cpu time    0.00: real time    0.00
    FORHF :  cpu time  472.88: real time  472.46
    FORNL :  cpu time    0.39: real time    0.39
    FORCOR:  cpu time    2.08: real time    2.07

 VOLUME and BASIS-vectors are now :
 -----------------------------------------------------------------------------
  energy-cutoff  :      400.00
  volume of cell :      221.90
      direct lattice vectors                 reciprocal lattice vectors
     3.224796000 -5.643830000  0.031572000     0.154525165 -0.088592321  0.053460880
     3.224796000  5.643830000  0.031572000     0.154525165  0.088592321  0.053460880
    -2.101946000  0.000000000  6.075537000    -0.001606004  0.000000000  0.164038877

  length of vectors
     6.500240234  6.500240234  6.428866683     0.185969598  0.185969598  0.164046738


 FORCES acting on ions:
    Electron-Ion                     Ewald-Force                    Non-Local-Force
 -----------------------------------------------------------------------------------------------
   -.153E+02 -.986E+02 0.114E+02   0.141E+02 0.962E+02 -.985E+01   0.103E+01 0.209E+01 -.141E+01
   -.143E+02 0.968E+02 0.118E+02   0.131E+02 -.944E+02 -.102E+02   0.103E+01 -.210E+01 -.142E+01
   0.269E+02 -.125E+02 0.400E+01   -.237E+02 0.124E+02 -.272E+01   -.290E+01 0.222E-01 -.111E+01
   0.256E+02 0.164E+02 0.475E+01   -.223E+02 -.162E+02 -.348E+01   -.285E+01 -.161E+00 -.110E+01
   -.111E+02 -.314E+02 -.113E+02   0.104E+02 0.300E+02 0.102E+02   0.683E+00 0.134E+01 0.113E+01
   -.112E+02 0.311E+02 -.112E+02   0.105E+02 -.298E+02 0.100E+02   0.683E+00 -.134E+01 0.113E+01
   -.135E+03 -.900E+01 -.491E+02   0.132E+03 0.902E+01 0.483E+02   0.279E+01 -.203E-01 0.736E+00
   0.693E+02 -.125E+03 0.957E+02   -.675E+02 0.123E+03 -.936E+02   -.157E+01 0.230E+01 -.188E+01
   0.664E+02 -.133E+03 -.499E+02   -.649E+02 0.130E+03 0.489E+02   -.135E+01 0.218E+01 0.875E+00
   0.702E+02 0.126E+03 0.962E+02   -.685E+02 -.123E+03 -.942E+02   -.156E+01 -.230E+01 -.187E+01
   -.136E+03 0.774E+01 -.482E+02   0.133E+03 -.774E+01 0.473E+02   0.278E+01 0.239E-01 0.738E+00
   0.679E+02 0.132E+03 -.503E+02   -.664E+02 -.129E+03 0.493E+02   -.135E+01 -.218E+01 0.875E+00
 -----------------------------------------------------------------------------------------------
   0.282E+01 0.128E+00 0.376E+01   -.853E-13 -.284E-13 -.284E-13   -.258E+01 -.150E+00 -.331E+01
 
 
 POSITION                                       TOTAL-FORCE (eV/Angst)
 -----------------------------------------------------------------------------------
      2.13385     -2.80652      0.74958        -0.002614      0.001629      0.000119
      1.08288      2.80652      3.78735        -0.002198      0.002592      0.000456
      5.40919     -0.96564      0.77726        -0.018331     -0.055029      0.004068
      4.35326      0.97432      3.81498         0.003555      0.000969     -0.000315
      1.02081     -0.97328      3.66185         0.000338      0.009454      0.003975
      2.07178      0.97328      0.62409         0.008742     -0.003529      0.002120
      2.15090      4.69667      3.05304         0.003375      0.000981     -0.001748
      1.11215     -0.89759      5.98620         0.006582     -0.005822      0.002505
      2.14287     -2.74882      3.03886        -0.001057      0.003356     -0.000956
      2.16313      0.89759      2.94844        -0.000925      0.008125      0.000355
      1.09993     -4.69667      6.09081         0.012732      0.026296     -0.014473
      1.09189      2.74882      6.07662        -0.010200      0.010978      0.003892
 -----------------------------------------------------------------------------------
    total drift:                               -0.065567     -0.015932     -0.053356


--------------------------------------------------------------------------------------------------------



  FREE ENERGIE OF THE ION-ELECTRON SYSTEM (eV)
  ---------------------------------------------------
  free  energy   TOTEN  =       -69.59544053 eV

  energy  without entropy=      -69.59599881  energy(sigma->0) =      -69.59562662
 


--------------------------------------------------------------------------------------------------------


    POTLOK:  cpu time    2.16: real time    2.16


--------------------------------------------------------------------------------------------------------


 writing wavefunctions
     LOOP+:  cpu time 5659.74: real time 5657.17
    4ORBIT:  cpu time    0.00: real time    0.00

 total amount of memory used by VASP on root node   155705. kBytes
========================================================================

   base      :      30000. kBytes
   nonl-proj :      74517. kBytes
   fftplans  :        702. kBytes
   grid      :       2400. kBytes
   one-center:        186. kBytes
   HF        :        194. kBytes
   nonlr-proj:       5130. kBytes
   wavefun   :      42576. kBytes
 
  
  
 General timing and accounting informations for this job:
 ========================================================
  
                  Total CPU time used (sec):     5710.773
                            User time (sec):     5707.039
                          System time (sec):        3.733
                         Elapsed time (sec):     5710.838
  
                   Maximum memory used (kb):      293960.
                   Average memory used (kb):           0.
  
                          Minor page faults:        77729
                          Major page faults:            1
                 Voluntary context switches:         5347
