<?xml version="1.0" encoding="ISO-8859-1"?>
<modeling>
 <generator>
  <i name="program" type="string">vasp </i>
  <i name="version" type="string">5.3.3  </i>
  <i name="subversion" type="string">18Dez12 (build Nov 13 2015 09:58:40) complex                          parallel </i>
  <i name="platform" type="string">LinuxIFC </i>
  <i name="date" type="string">2017 10 18 </i>
  <i name="time" type="string">13:04:00 </i>
 </generator>
 <incar>
  <i type="string" name="SYSTEM"> CGS</i>
  <i type="string" name="PREC">normal</i>
  <i type="string" name="ALGO"> D</i>
  <i type="logical" name="LDIAG"> T  </i>
  <i name="EDIFF">      0.00001000</i>
  <i name="ENCUT">    400.00000000</i>
  <i name="TIME">      0.40000000</i>
  <i type="int" name="ISMEAR">     1</i>
  <i name="SIGMA">      0.10000000</i>
  <i type="logical" name="LHFCALC"> T  </i>
  <i type="string" name="GGA"> PE</i>
  <i name="HFSCREEN">      0.20000000</i>
  <i name="AEXX">      0.25000000</i>
  <i type="string" name="PRECFOCK">fast</i>
 </incar>
 <kpoints>
  <generation param="Gamma">
   <v type="int" name="divisions">       4        4        5 </v>
   <v name="usershift">      0.00000000       0.00000000       0.00000000 </v>
   <v name="genvec1">      0.25000000       0.00000000       0.00000000 </v>
   <v name="genvec2">      0.00000000       0.25000000       0.00000000 </v>
   <v name="genvec3">      0.00000000       0.00000000       0.20000000 </v>
   <v name="shift">      0.00000000       0.00000000       0.00000000 </v>
  </generation>
  <varray name="kpointlist" >
   <v>       0.00000000       0.00000000       0.00000000 </v>
   <v>       0.25000000       0.00000000       0.00000000 </v>
   <v>       0.50000000       0.00000000       0.00000000 </v>
   <v>       0.00000000       0.25000000       0.00000000 </v>
   <v>       0.25000000       0.25000000       0.00000000 </v>
   <v>       0.50000000       0.25000000      -0.00000000 </v>
   <v>      -0.25000000       0.25000000       0.00000000 </v>
   <v>       0.00000000       0.50000000       0.00000000 </v>
   <v>       0.25000000       0.50000000      -0.00000000 </v>
   <v>       0.50000000       0.50000000       0.00000000 </v>
   <v>      -0.00000000      -0.00000000       0.20000000 </v>
   <v>       0.25000000       0.00000000       0.20000000 </v>
   <v>       0.50000000       0.00000000       0.20000000 </v>
   <v>      -0.25000000      -0.00000000       0.20000000 </v>
   <v>       0.00000000       0.25000000       0.20000000 </v>
   <v>       0.25000000       0.25000000       0.20000000 </v>
   <v>       0.50000000       0.25000000       0.20000000 </v>
   <v>      -0.25000000       0.25000000       0.20000000 </v>
   <v>       0.00000000       0.50000000       0.20000000 </v>
   <v>       0.25000000       0.50000000       0.20000000 </v>
   <v>       0.50000000       0.50000000       0.20000000 </v>
   <v>      -0.25000000       0.50000000       0.20000000 </v>
   <v>      -0.00000000      -0.25000000       0.20000000 </v>
   <v>       0.25000000      -0.25000000       0.20000000 </v>
   <v>       0.50000000      -0.25000000       0.20000000 </v>
   <v>      -0.25000000      -0.25000000       0.20000000 </v>
   <v>      -0.00000000      -0.00000000       0.40000000 </v>
   <v>       0.25000000       0.00000000       0.40000000 </v>
   <v>       0.50000000       0.00000000       0.40000000 </v>
   <v>      -0.25000000       0.00000000       0.40000000 </v>
   <v>       0.00000000       0.25000000       0.40000000 </v>
   <v>       0.25000000       0.25000000       0.40000000 </v>
   <v>       0.50000000       0.25000000       0.40000000 </v>
   <v>      -0.25000000       0.25000000       0.40000000 </v>
   <v>       0.00000000       0.50000000       0.40000000 </v>
   <v>       0.25000000       0.50000000       0.40000000 </v>
   <v>       0.50000000       0.50000000       0.40000000 </v>
   <v>      -0.25000000       0.50000000       0.40000000 </v>
   <v>       0.00000000      -0.25000000       0.40000000 </v>
   <v>       0.25000000      -0.25000000       0.40000000 </v>
   <v>       0.50000000      -0.25000000       0.40000000 </v>
   <v>      -0.25000000      -0.25000000       0.40000000 </v>
  </varray>
  <varray name="weights" >
   <v>       0.01250000 </v>
   <v>       0.02500000 </v>
   <v>       0.01250000 </v>
   <v>       0.02500000 </v>
   <v>       0.02500000 </v>
   <v>       0.02500000 </v>
   <v>       0.02500000 </v>
   <v>       0.01250000 </v>
   <v>       0.02500000 </v>
   <v>       0.01250000 </v>
   <v>       0.02500000 </v>
   <v>       0.02500000 </v>
   <v>       0.02500000 </v>
   <v>       0.02500000 </v>
   <v>       0.02500000 </v>
   <v>       0.02500000 </v>
   <v>       0.02500000 </v>
   <v>       0.02500000 </v>
   <v>       0.02500000 </v>
   <v>       0.02500000 </v>
   <v>       0.02500000 </v>
   <v>       0.02500000 </v>
   <v>       0.02500000 </v>
   <v>       0.02500000 </v>
   <v>       0.02500000 </v>
   <v>       0.02500000 </v>
   <v>       0.02500000 </v>
   <v>       0.02500000 </v>
   <v>       0.02500000 </v>
   <v>       0.02500000 </v>
   <v>       0.02500000 </v>
   <v>       0.02500000 </v>
   <v>       0.02500000 </v>
   <v>       0.02500000 </v>
   <v>       0.02500000 </v>
   <v>       0.02500000 </v>
   <v>       0.02500000 </v>
   <v>       0.02500000 </v>
   <v>       0.02500000 </v>
   <v>       0.02500000 </v>
   <v>       0.02500000 </v>
   <v>       0.02500000 </v>
  </varray>
 </kpoints>
 <parameters>
  <separator name="general" >
   <i type="string" name="SYSTEM">CGS</i>
   <i type="logical" name="LCOMPAT"> F  </i>
  </separator>
  <separator name="electronic" >
   <i type="string" name="PREC">normal</i>
   <i name="ENMAX">    400.00000000</i>
   <i name="ENAUG">    758.23300000</i>
   <i name="EDIFF">      0.00001000</i>
   <i type="int" name="IALGO">    53</i>
   <i type="int" name="IWAVPR">    10</i>
   <i type="int" name="NBANDS">    80</i>
   <i name="NELECT">    112.00000000</i>
   <i type="int" name="TURBO">     0</i>
   <i type="int" name="IRESTART">     0</i>
   <i type="int" name="NREBOOT">     0</i>
   <i type="int" name="NMIN">     0</i>
   <i name="EREF">      0.00000000</i>
   <separator name="electronic smearing" >
    <i type="int" name="ISMEAR">     1</i>
    <i name="SIGMA">      0.10000000</i>
    <i name="KSPACING">      0.50000000</i>
    <i type="logical" name="KGAMMA"> T  </i>
   </separator>
   <separator name="electronic projectors" >
    <i type="logical" name="LREAL"> F  </i>
    <v name="ROPT">      0.00000000      0.00000000      0.00000000</v>
    <i type="int" name="LMAXPAW">  -100</i>
    <i type="int" name="LMAXMIX">     2</i>
    <i type="logical" name="NLSPLINE"> F  </i>
   </separator>
   <separator name="electronic startup" >
    <i type="int" name="ISTART">     1</i>
    <i type="int" name="ICHARG">     0</i>
    <i type="int" name="INIWAV">     1</i>
   </separator>
   <separator name="electronic spin" >
    <i type="int" name="ISPIN">     1</i>
    <i type="logical" name="LNONCOLLINEAR"> F  </i>
    <v name="MAGMOM">      1.00000000      1.00000000      1.00000000      1.00000000      1.00000000      1.00000000      1.00000000      1.00000000      1.00000000      1.00000000      1.00000000      1.00000000</v>
    <i name="NUPDOWN">     -1.00000000</i>
    <i type="logical" name="LSORBIT"> F  </i>
    <v name="SAXIS">      0.00000000      0.00000000      1.00000000</v>
    <i type="logical" name="LSPIRAL"> F  </i>
    <v name="QSPIRAL">      0.00000000      0.00000000      0.00000000</v>
    <i type="logical" name="LZEROZ"> F  </i>
   </separator>
   <separator name="electronic exchange-correlation" >
    <i type="logical" name="LASPH"> F  </i>
    <i type="logical" name="LMETAGGA"> F  </i>
   </separator>
   <separator name="electronic convergence" >
    <i type="int" name="NELM">    60</i>
    <i type="int" name="NELMDL">     0</i>
    <i type="int" name="NELMIN">     2</i>
    <i name="ENINI">    400.00000000</i>
    <separator name="electronic convergence detail" >
     <i type="logical" name="LDIAG"> T  </i>
     <i type="logical" name="LSUBROT"> T  </i>
     <i name="WEIMIN">      0.00000000</i>
     <i name="EBREAK">      0.00000003</i>
     <i name="DEPER">      0.30000000</i>
     <i type="int" name="NRMM">     4</i>
     <i name="TIME">      0.40000000</i>
    </separator>
   </separator>
   <separator name="electronic mixer" >
    <i name="AMIX">      0.40000000</i>
    <i name="BMIX">      1.00000000</i>
    <i name="AMIN">      0.10000000</i>
    <i name="AMIX_MAG">      1.60000000</i>
    <i name="BMIX_MAG">      1.00000000</i>
    <separator name="electronic mixer details" >
     <i type="int" name="IMIX">     4</i>
     <i type="int" name="MAXMIX">   -45</i>
     <i name="WC">    100.00000000</i>
     <i type="int" name="INIMIX">     1</i>
     <i type="int" name="MIXPRE">     1</i>
     <i type="int" name="MREMOVE">     5</i>
    </separator>
   </separator>
   <separator name="electronic dipolcorrection" >
    <i type="logical" name="LDIPOL"> F  </i>
    <i type="logical" name="LMONO"> F  </i>
    <i type="int" name="IDIPOL">     0</i>
    <i name="EPSILON">      1.00000000</i>
    <v name="DIPOL">   -100.00000000   -100.00000000   -100.00000000</v>
    <i name="EFIELD">      0.00000000</i>
   </separator>
  </separator>
  <separator name="grids" >
   <i type="int" name="NGX">    32</i>
   <i type="int" name="NGY">    32</i>
   <i type="int" name="NGZ">    32</i>
   <i type="int" name="NGXF">    64</i>
   <i type="int" name="NGYF">    64</i>
   <i type="int" name="NGZF">    64</i>
   <i type="logical" name="ADDGRID"> F  </i>
  </separator>
  <separator name="ionic" >
   <i type="int" name="NSW">     0</i>
   <i type="int" name="IBRION">    -1</i>
   <i type="int" name="ISIF">     0</i>
   <i name="PSTRESS">      0.00000000</i>
   <i name="EDIFFG">      0.00010000</i>
   <i type="int" name="NFREE">     0</i>
   <i name="POTIM">      0.50000000</i>
   <i name="SMASS">     -3.00000000</i>
   <i name="SCALEE">      1.00000000</i>
  </separator>
  <separator name="ionic md" >
   <i name="TEBEG">      0.00010000</i>
   <i name="TEEND">      0.00010000</i>
   <i type="int" name="NBLOCK">     1</i>
   <i type="int" name="KBLOCK">     1</i>
   <i type="int" name="NPACO">   256</i>
   <i name="APACO">     16.00000000</i>
  </separator>
  <separator name="symmetry" >
   <i type="int" name="ISYM">     3</i>
   <i name="SYMPREC">      0.00001000</i>
  </separator>
  <separator name="dos" >
   <i type="logical" name="LORBIT"> F  </i>
   <v name="RWIGS">     -1.00000000     -1.00000000     -1.00000000</v>
   <i type="int" name="NEDOS">   301</i>
   <i name="EMIN">     10.00000000</i>
   <i name="EMAX">    -10.00000000</i>
   <i name="EFERMI">      0.00000000</i>
  </separator>
  <separator name="writing" >
   <i type="int" name="NWRITE">     2</i>
   <i type="logical" name="LWAVE"> T  </i>
   <i type="logical" name="LCHARG"> T  </i>
   <i type="logical" name="LPARD"> F  </i>
   <i type="logical" name="LVTOT"> F  </i>
   <i type="logical" name="LVHAR"> F  </i>
   <i type="logical" name="LELF"> F  </i>
   <i type="logical" name="LOPTICS"> F  </i>
   <v name="STM">      0.00000000      0.00000000      0.00000000      0.00000000      0.00000000      0.00000000      0.00000000</v>
  </separator>
  <separator name="performance" >
   <i type="int" name="NPAR">    16</i>
   <i type="int" name="NSIM">     4</i>
   <i type="int" name="NBLK">    -1</i>
   <i type="logical" name="LPLANE"> T  </i>
   <i type="logical" name="LSCALAPACK"> T  </i>
   <i type="logical" name="LSCAAWARE"> F  </i>
   <i type="logical" name="LSCALU"> F  </i>
   <i type="logical" name="LASYNC"> F  </i>
   <i type="logical" name="LORBITALREAL"> F  </i>
  </separator>
  <separator name="miscellaneous" >
   <i type="int" name="IDIOT">     3</i>
   <i type="logical" name="LMUSIC"> F  </i>
   <v name="POMASS">     63.54600000     72.61000000     32.06600000</v>
   <v name="DARWINR">      0.00000000      0.00000000      0.00000000</v>
   <v name="DARWINV">      1.00000000      1.00000000      1.00000000</v>
   <i type="logical" name="LCORR"> T  </i>
  </separator>
  <i type="logical" name="GGA_COMPAT"> T  </i>
  <i type="logical" name="LBERRY"> F  </i>
  <i type="int" name="ICORELEVEL">     0</i>
  <i type="logical" name="LDAU"> F  </i>
  <i type="int" name="I_CONSTRAINED_M">     0</i>
  <separator name="electronic exchange-correlation" >
   <i type="string" name="GGA">PE</i>
   <i type="int" name="VOSKOWN">     0</i>
   <i type="logical" name="LHFCALC"> T  </i>
   <i type="string" name="PRECFOCK">fast</i>
   <i type="logical" name="LSYMGRAD"> F  </i>
   <i type="logical" name="LHFONE"> F  </i>
   <i type="logical" name="LRHFCALC"> F  </i>
   <i type="logical" name="LTHOMAS"> F  </i>
   <i type="logical" name="LMODELHF"> F  </i>
   <i name="ENCUT4O">     -1.00000000</i>
   <i type="int" name="EXXOEP">     0</i>
   <i type="int" name="FOURORBIT">     0</i>
   <i name="AEXX">      0.25000000</i>
   <i name="HFALPHA">     -1.00000000</i>
   <i name="MCALPHA">      0.00000000</i>
   <i name="ALDAX">      0.75000000</i>
   <i name="AGGAX">      0.75000000</i>
   <i name="ALDAC">      1.00000000</i>
   <i name="AGGAC">      1.00000000</i>
   <i type="int" name="NKREDX">     1</i>
   <i type="int" name="NKREDY">     1</i>
   <i type="int" name="NKREDZ">     1</i>
   <i type="logical" name="SHIFTRED"> F  </i>
   <i type="logical" name="ODDONLY"> F  </i>
   <i type="logical" name="EVENONLY"> F  </i>
   <i type="int" name="LMAXFOCK">     4</i>
   <i type="int" name="NMAXFOCKAE">     1</i>
   <i type="logical" name="LFOCKAEDFT"> F  </i>
   <i name="HFSCREEN">      0.20000000</i>
   <i name="HFSCREENC">      0.20000000</i>
   <i type="int" name="NBANDSGWLOW">     1</i>
  </separator>
  <separator name="vdW DFT" >
   <i type="logical" name="LUSE_VDW"> F  </i>
   <i name="Zab_VDW">     -0.84910000</i>
   <i name="PARAM1">      0.12340000</i>
   <i name="PARAM2">      1.00000000</i>
   <i name="PARAM3">      0.00000000</i>
  </separator>
  <separator name="model GW" >
   <i type="int" name="MODEL_GW">     0</i>
   <i name="MODEL_EPS0">     11.09505304</i>
   <i name="MODEL_ALPHA">      1.00000000</i>
  </separator>
  <separator name="linear response parameters" >
   <i type="logical" name="LEPSILON"> F  </i>
   <i type="logical" name="LRPA"> F  </i>
   <i type="logical" name="LNABLA"> F  </i>
   <i type="logical" name="LVEL"> F  </i>
   <i type="int" name="KINTER">     0</i>
   <i name="CSHIFT">      0.10000000</i>
   <i name="OMEGAMAX">     -1.00000000</i>
   <i name="DEG_THRESHOLD">      0.00200000</i>
  </separator>
  <separator name="orbital magnetization" >
   <i type="logical" name="NUCIND"> F  </i>
   <v name="MAGPOS">      0.00000000      0.00000000      0.00000000</v>
   <i type="logical" name="LNICSALL"> T  </i>
   <i type="logical" name="ORBITALMAG"> F  </i>
   <i type="logical" name="LMAGBLOCH"> F  </i>
   <i type="logical" name="LCHIMAG"> F  </i>
   <i type="logical" name="LGAUGE"> T  </i>
   <i type="int" name="MAGATOM">     0</i>
   <v name="MAGDIPOL">      0.00000000      0.00000000      0.00000000</v>
   <v name="AVECCONST">      0.00000000      0.00000000      0.00000000</v>
  </separator>
  <separator name="response functions" >
   <i type="logical" name="LADDER"> F  </i>
   <i type="logical" name="LFXC"> F  </i>
   <i type="logical" name="LHARTREE"> T  </i>
   <i type="int" name="IBSE">     0</i>
   <i type="logical" name="LTCTE"> F  </i>
   <i type="logical" name="LTETE"> F  </i>
   <i type="logical" name="LTRIPLET"> F  </i>
   <i type="logical" name="LFXCEPS"> F  </i>
   <i type="logical" name="L2ORDER"> F  </i>
   <i type="logical" name="LUSEW"> F  </i>
   <i name="ENCUTGW">     -2.00000000</i>
   <i name="ENCUTGWSOFT">     -2.00000000</i>
   <i name="ENCUTLF">     -1.00000000</i>
   <i type="int" name="LMAXMP2">    -1</i>
   <i name="SCISSOR">      0.00000000</i>
   <i type="int" name="NOMEGA">     0</i>
   <i type="int" name="NOMEGAR">     0</i>
   <i type="int" name="NBANDSGW">    -1</i>
   <i type="int" name="NBANDSO">    -1</i>
   <i type="int" name="NBANDSV">    -1</i>
   <i type="int" name="NELM">     1</i>
   <i type="int" name="DIM">     3</i>
   <i type="int" name="ANTIRES">     0</i>
   <i name="OMEGAMAX">    -30.00000000</i>
   <i name="OMEGATL">   -200.00000000</i>
   <i type="int" name="OMEGAGRID">     0</i>
   <i name="CSHIFT">     -0.10000000</i>
   <i type="logical" name="SELFENERGY"> F  </i>
   <i type="logical" name="LSPECTRAL"> F  </i>
   <i type="logical" name="ODDONLYGW"> F  </i>
   <i type="logical" name="EVENONLYGW"> F  </i>
   <i type="int" name="NKREDLFX">     1</i>
   <i type="int" name="NKREDLFY">     1</i>
   <i type="int" name="NKREDLFZ">     1</i>
   <i type="int" name="MAXMEM">  1800</i>
   <i type="int" name="TELESCOPE">     0</i>
  </separator>
 </parameters>
 <atominfo>
  <atoms>      12 </atoms>
  <types>       3 </types>
  <array name="atoms" >
   <dimension dim="1">ion</dimension>
   <field type="string">element</field>
   <field type="int">atomtype</field>
   <set>
    <rc><c>Cu</c><c>   1</c></rc>
    <rc><c>Cu</c><c>   1</c></rc>
    <rc><c>Cu</c><c>   1</c></rc>
    <rc><c>Cu</c><c>   1</c></rc>
    <rc><c>Ge</c><c>   2</c></rc>
    <rc><c>Ge</c><c>   2</c></rc>
    <rc><c>S </c><c>   3</c></rc>
    <rc><c>S </c><c>   3</c></rc>
    <rc><c>S </c><c>   3</c></rc>
    <rc><c>S </c><c>   3</c></rc>
    <rc><c>S </c><c>   3</c></rc>
    <rc><c>S </c><c>   3</c></rc>
   </set>
  </array>
  <array name="atomtypes" >
   <dimension dim="1">type</dimension>
   <field type="int">atomspertype</field>
   <field type="string">element</field>
   <field>mass</field>
   <field>valence</field>
   <field type="string">pseudopotential</field>
   <set>
    <rc><c>   4</c><c>Cu</c><c>     63.54600000</c><c>     17.00000000</c><c>  PAW_PBE Cu_pv 06Sep2000               </c></rc>
    <rc><c>   2</c><c>Ge</c><c>     72.61000000</c><c>      4.00000000</c><c>  PAW_PBE Ge 05Jan2001                  </c></rc>
    <rc><c>   6</c><c>S </c><c>     32.06600000</c><c>      6.00000000</c><c>  PAW_PBE S 17Jan2003                   </c></rc>
   </set>
  </array>
 </atominfo>
 <structure name="initialpos" >
  <crystal>
   <varray name="basis" >
    <v>       3.22479600      -5.64383000       0.03157200 </v>
    <v>       3.22479600       5.64383000       0.03157200 </v>
    <v>      -2.10194600       0.00000000       6.07553700 </v>
   </varray>
   <i name="volume">    221.90106089 </i>
   <varray name="rec_basis" >
    <v>       0.15452516      -0.08859232       0.05346088 </v>
    <v>       0.15452516       0.08859232       0.05346088 </v>
    <v>      -0.00160600       0.00000000       0.16403888 </v>
   </varray>
  </crystal>
  <varray name="positions" >
   <v>       0.61844300       0.12117100       0.11953300 </v>
   <v>       0.12117100       0.61844300       0.61953300 </v>
   <v>       0.96295700       0.79186040       0.11881300 </v>
   <v>       0.79032200       0.96295700       0.61881300 </v>
   <v>       0.43973200       0.26728100       0.59904700 </v>
   <v>       0.26728100       0.43973200       0.09904700 </v>
   <v>       0.07949800       0.91167500       0.49736300 </v>
   <v>       0.57140300       0.41236400       0.98018400 </v>
   <v>       0.73711100       0.25006200       0.49504900 </v>
   <v>       0.41236400       0.57140300       0.48018400 </v>
   <v>       0.91167500       0.07949800       0.99736300 </v>
   <v>       0.25006200       0.73711100       0.99504900 </v>
  </varray>
 </structure>
 <calculation>
  <scstep>
   <time name="total">  237.21  237.01</time>
   <energy>
    <i name="alphaZ">    339.31929130 </i>
    <i name="ewald">  -9064.66049938 </i>
    <i name="hartreedc">  -8066.95665064 </i>
    <i name="XCdc">    369.89326116 </i>
    <i name="pawpsdc">  16955.26255803 </i>
    <i name="pawaedc"> -17448.00697459 </i>
    <i name="eentropy">     -0.00147645 </i>
    <i name="bandstr">  -1657.55369787 </i>
    <i name="atom">  18320.98302006 </i>
    <i name="e_fr_energy">     75.71971095 </i>
    <i name="e_wo_entrp">     75.72118739 </i>
    <i name="e_0_energy">     75.72020309 </i>
   </energy>
  </scstep>
  <scstep>
   <time name="total">  243.04  242.84</time>
   <energy>
    <i name="e_fr_energy">     -8.23972948 </i>
    <i name="e_wo_entrp">     -8.24011557 </i>
    <i name="e_0_energy">     -8.23985818 </i>
   </energy>
  </scstep>
  <scstep>
   <time name="total">  241.94  241.73</time>
   <energy>
    <i name="e_fr_energy">    -14.87130528 </i>
    <i name="e_wo_entrp">    -14.87159485 </i>
    <i name="e_0_energy">    -14.87140180 </i>
   </energy>
  </scstep>
  <scstep>
   <time name="total">  246.56  246.36</time>
   <energy>
    <i name="e_fr_energy">    -22.32542020 </i>
    <i name="e_wo_entrp">    -22.32577582 </i>
    <i name="e_0_energy">    -22.32553874 </i>
   </energy>
  </scstep>
  <scstep>
   <time name="total">  246.91  246.70</time>
   <energy>
    <i name="e_fr_energy">    -60.79590906 </i>
    <i name="e_wo_entrp">    -60.79655006 </i>
    <i name="e_0_energy">    -60.79612273 </i>
   </energy>
  </scstep>
  <scstep>
   <time name="total">  246.52  246.31</time>
   <energy>
    <i name="e_fr_energy">    -65.94260114 </i>
    <i name="e_wo_entrp">    -65.94326394 </i>
    <i name="e_0_energy">    -65.94282207 </i>
   </energy>
  </scstep>
  <scstep>
   <time name="total">  247.55  247.34</time>
   <energy>
    <i name="e_fr_energy">    -67.48036577 </i>
    <i name="e_wo_entrp">    -67.48079531 </i>
    <i name="e_0_energy">    -67.48050895 </i>
   </energy>
  </scstep>
  <scstep>
   <time name="total">  247.17  246.98</time>
   <energy>
    <i name="e_fr_energy">    -69.08654968 </i>
    <i name="e_wo_entrp">    -69.08728113 </i>
    <i name="e_0_energy">    -69.08679350 </i>
   </energy>
  </scstep>
  <scstep>
   <time name="total">  246.97  246.77</time>
   <energy>
    <i name="e_fr_energy">    -69.39533797 </i>
    <i name="e_wo_entrp">    -69.39620675 </i>
    <i name="e_0_energy">    -69.39562756 </i>
   </energy>
  </scstep>
  <scstep>
   <time name="total">  247.74  247.52</time>
   <energy>
    <i name="e_fr_energy">    -69.49905369 </i>
    <i name="e_wo_entrp">    -69.49975733 </i>
    <i name="e_0_energy">    -69.49928824 </i>
   </energy>
  </scstep>
  <scstep>
   <time name="total">  247.44  247.23</time>
   <energy>
    <i name="e_fr_energy">    -69.56850537 </i>
    <i name="e_wo_entrp">    -69.56910115 </i>
    <i name="e_0_energy">    -69.56870396 </i>
   </energy>
  </scstep>
  <scstep>
   <time name="total">  246.67  246.46</time>
   <energy>
    <i name="e_fr_energy">    -69.58093900 </i>
    <i name="e_wo_entrp">    -69.58148575 </i>
    <i name="e_0_energy">    -69.58112125 </i>
   </energy>
  </scstep>
  <scstep>
   <time name="total">  246.65  246.44</time>
   <energy>
    <i name="e_fr_energy">    -69.59057616 </i>
    <i name="e_wo_entrp">    -69.59111087 </i>
    <i name="e_0_energy">    -69.59075440 </i>
   </energy>
  </scstep>
  <scstep>
   <time name="total">  247.15  246.95</time>
   <energy>
    <i name="e_fr_energy">    -69.59302773 </i>
    <i name="e_wo_entrp">    -69.59357882 </i>
    <i name="e_0_energy">    -69.59321142 </i>
   </energy>
  </scstep>
  <scstep>
   <time name="total">  247.23  247.02</time>
   <energy>
    <i name="e_fr_energy">    -69.59452897 </i>
    <i name="e_wo_entrp">    -69.59509239 </i>
    <i name="e_0_energy">    -69.59471678 </i>
   </energy>
  </scstep>
  <scstep>
   <time name="total">  247.14  246.94</time>
   <energy>
    <i name="e_fr_energy">    -69.59509618 </i>
    <i name="e_wo_entrp">    -69.59566060 </i>
    <i name="e_0_energy">    -69.59528432 </i>
   </energy>
  </scstep>
  <scstep>
   <time name="total">  250.11  249.90</time>
   <energy>
    <i name="e_fr_energy">    -69.59526849 </i>
    <i name="e_wo_entrp">    -69.59583016 </i>
    <i name="e_0_energy">    -69.59545572 </i>
   </energy>
  </scstep>
  <scstep>
   <time name="total">  249.48  249.27</time>
   <energy>
    <i name="e_fr_energy">    -69.59538494 </i>
    <i name="e_wo_entrp">    -69.59594373 </i>
    <i name="e_0_energy">    -69.59557121 </i>
   </energy>
  </scstep>
  <scstep>
   <time name="total">  249.47  249.27</time>
   <energy>
    <i name="e_fr_energy">    -69.59541362 </i>
    <i name="e_wo_entrp">    -69.59597102 </i>
    <i name="e_0_energy">    -69.59559942 </i>
   </energy>
  </scstep>
  <scstep>
   <time name="total">  249.20  249.00</time>
   <energy>
    <i name="e_fr_energy">    -69.59543322 </i>
    <i name="e_wo_entrp">    -69.59599095 </i>
    <i name="e_0_energy">    -69.59561913 </i>
   </energy>
  </scstep>
  <scstep>
   <time name="total">  249.11  248.91</time>
   <energy>
    <i name="alphaZ">    339.31929130 </i>
    <i name="ewald">  -9064.66049938 </i>
    <i name="hartreedc">  -8149.44052188 </i>
    <i name="XCdc">    372.06855898 </i>
    <i name="pawpsdc">  15922.02652295 </i>
    <i name="pawaedc"> -16407.21958214 </i>
    <i name="eentropy">      0.00055829 </i>
    <i name="bandstr">  -1742.73871866 </i>
    <i name="atom">  18320.98302006 </i>
    <i name="e_fr_energy">    -69.59544053 </i>
    <i name="e_wo_entrp">    -69.59599881 </i>
    <i name="e_0_energy">    -69.59562662 </i>
   </energy>
  </scstep>
  <structure>
   <crystal>
    <varray name="basis" >
     <v>       3.22479600      -5.64383000       0.03157200 </v>
     <v>       3.22479600       5.64383000       0.03157200 </v>
     <v>      -2.10194600       0.00000000       6.07553700 </v>
    </varray>
    <i name="volume">    221.90106089 </i>
    <varray name="rec_basis" >
     <v>       0.15452516      -0.08859232       0.05346088 </v>
     <v>       0.15452516       0.08859232       0.05346088 </v>
     <v>      -0.00160600       0.00000000       0.16403888 </v>
    </varray>
   </crystal>
   <varray name="positions" >
    <v>       0.61844300       0.12117100       0.11953300 </v>
    <v>       0.12117100       0.61844300       0.61953300 </v>
    <v>       0.96295700       0.79186040       0.11881300 </v>
    <v>       0.79032200       0.96295700       0.61881300 </v>
    <v>       0.43973200       0.26728100       0.59904700 </v>
    <v>       0.26728100       0.43973200       0.09904700 </v>
    <v>       0.07949800       0.91167500       0.49736300 </v>
    <v>       0.57140300       0.41236400       0.98018400 </v>
    <v>       0.73711100       0.25006200       0.49504900 </v>
    <v>       0.41236400       0.57140300       0.48018400 </v>
    <v>       0.91167500       0.07949800       0.99736300 </v>
    <v>       0.25006200       0.73711100       0.99504900 </v>
   </varray>
  </structure>
  <varray name="forces" >
   <v>      -0.00261352       0.00162940       0.00011947 </v>
   <v>      -0.00219832       0.00259200       0.00045648 </v>
   <v>      -0.01833064      -0.05502895       0.00406810 </v>
   <v>       0.00355526       0.00096882      -0.00031453 </v>
   <v>       0.00033830       0.00945368       0.00397477 </v>
   <v>       0.00874220      -0.00352890       0.00212047 </v>
   <v>       0.00337501       0.00098088      -0.00174824 </v>
   <v>       0.00658214      -0.00582190       0.00250515 </v>
   <v>      -0.00105717       0.00335649      -0.00095608 </v>
   <v>      -0.00092469       0.00812490       0.00035547 </v>
   <v>       0.01273165       0.02629580      -0.01447333 </v>
   <v>      -0.01020021       0.01097777       0.00389228 </v>
  </varray>
  <energy>
   <i name="e_fr_energy">    -69.59544053 </i>
   <i name="e_wo_entrp">    -69.59562662 </i>
   <i name="e_0_energy">      0.00055829 </i>
  </energy>
  <time name="totalsc"> 5659.74 5657.17</time>
  <eigenvalues>
   <array>
    <dimension dim="1">band</dimension>
    <dimension dim="2">kpoint</dimension>
    <dimension dim="3">spin</dimension>
    <field>eigene</field>
    <field>occ</field>
    <set>
     <set comment="spin 1">
      <set comment="kpoint 1">
       <r>  -68.6456    1.0000 </r>
       <r>  -68.6450    1.0000 </r>
       <r>  -68.6342    1.0000 </r>
       <r>  -68.6325    1.0000 </r>
       <r>  -68.6134    1.0000 </r>
       <r>  -68.6128    1.0000 </r>
       <r>  -68.5961    1.0000 </r>
       <r>  -68.5955    1.0000 </r>
       <r>  -68.5786    1.0000 </r>
       <r>  -68.5775    1.0000 </r>
       <r>  -68.5616    1.0000 </r>
       <r>  -68.5609    1.0000 </r>
       <r>  -12.7206    1.0000 </r>
       <r>  -11.1305    1.0000 </r>
       <r>  -10.9156    1.0000 </r>
       <r>  -10.6037    1.0000 </r>
       <r>  -10.2520    1.0000 </r>
       <r>  -10.2360    1.0000 </r>
       <r>   -5.9850    1.0000 </r>
       <r>   -4.9832    1.0000 </r>
       <r>   -2.7602    1.0000 </r>
       <r>   -2.2093    1.0000 </r>
       <r>   -2.0696    1.0000 </r>
       <r>   -1.9205    1.0000 </r>
       <r>   -1.5770    1.0000 </r>
       <r>   -0.9821    1.0000 </r>
       <r>   -0.9567    1.0000 </r>
       <r>   -0.6845    1.0000 </r>
       <r>   -0.4000    1.0000 </r>
       <r>   -0.2776    1.0000 </r>
       <r>   -0.2595    1.0000 </r>
       <r>   -0.2361    1.0000 </r>
       <r>   -0.1901    1.0000 </r>
       <r>   -0.1563    1.0000 </r>
       <r>   -0.0356    1.0000 </r>
       <r>    0.0288    1.0000 </r>
       <r>    1.3506    1.0000 </r>
       <r>    1.3619    1.0000 </r>
       <r>    1.4123    1.0000 </r>
       <r>    1.4565    1.0000 </r>
       <r>    1.4712    1.0000 </r>
       <r>    1.4736    1.0000 </r>
       <r>    1.5204    1.0000 </r>
       <r>    1.5333    1.0000 </r>
       <r>    1.5744    1.0000 </r>
       <r>    1.7120    1.0000 </r>
       <r>    1.8929    1.0000 </r>
       <r>    1.9274    1.0000 </r>
       <r>    2.0576    1.0000 </r>
       <r>    2.6496    1.0000 </r>
       <r>    2.7336    1.0000 </r>
       <r>    3.0904    1.0000 </r>
       <r>    3.2158    1.0000 </r>
       <r>    4.0062    1.0047 </r>
       <r>    4.0366    1.0126 </r>
       <r>    4.1726    0.8639 </r>
       <r>    5.5380   -0.0000 </r>
       <r>    6.3594   -0.0000 </r>
       <r>    7.6305    0.0000 </r>
       <r>    7.9867    0.0000 </r>
       <r>    8.6179    0.0000 </r>
       <r>    8.7922    0.0000 </r>
       <r>    9.5741    0.0000 </r>
       <r>    9.7383    0.0000 </r>
       <r>    9.8150    0.0000 </r>
       <r>   10.4205    0.0000 </r>
       <r>   10.5846    0.0000 </r>
       <r>   10.6960    0.0000 </r>
       <r>   10.7114    0.0000 </r>
       <r>   11.2814    0.0000 </r>
       <r>   11.7099    0.0000 </r>
       <r>   12.3918    0.0000 </r>
       <r>   12.4500    0.0000 </r>
       <r>   12.7286    0.0000 </r>
       <r>   13.3212    0.0000 </r>
       <r>   13.3862    0.0000 </r>
       <r>   13.8322    0.0000 </r>
       <r>   13.8840    0.0000 </r>
       <r>   14.1457    0.0000 </r>
       <r>   14.1807    0.0000 </r>
      </set>
      <set comment="kpoint 2">
       <r>  -68.6456    1.0000 </r>
       <r>  -68.6449    1.0000 </r>
       <r>  -68.6342    1.0000 </r>
       <r>  -68.6325    1.0000 </r>
       <r>  -68.6133    1.0000 </r>
       <r>  -68.6127    1.0000 </r>
       <r>  -68.5961    1.0000 </r>
       <r>  -68.5955    1.0000 </r>
       <r>  -68.5786    1.0000 </r>
       <r>  -68.5774    1.0000 </r>
       <r>  -68.5616    1.0000 </r>
       <r>  -68.5608    1.0000 </r>
       <r>  -12.5955    1.0000 </r>
       <r>  -11.1291    1.0000 </r>
       <r>  -10.9805    1.0000 </r>
       <r>  -10.6781    1.0000 </r>
       <r>  -10.3644    1.0000 </r>
       <r>  -10.2802    1.0000 </r>
       <r>   -5.9332    1.0000 </r>
       <r>   -4.7731    1.0000 </r>
       <r>   -2.6460    1.0000 </r>
       <r>   -2.2520    1.0000 </r>
       <r>   -2.0849    1.0000 </r>
       <r>   -1.6887    1.0000 </r>
       <r>   -1.3463    1.0000 </r>
       <r>   -0.9999    1.0000 </r>
       <r>   -0.7702    1.0000 </r>
       <r>   -0.6205    1.0000 </r>
       <r>   -0.5530    1.0000 </r>
       <r>   -0.4356    1.0000 </r>
       <r>   -0.3621    1.0000 </r>
       <r>   -0.2425    1.0000 </r>
       <r>   -0.1928    1.0000 </r>
       <r>   -0.1724    1.0000 </r>
       <r>   -0.0439    1.0000 </r>
       <r>    0.0371    1.0000 </r>
       <r>    1.2787    1.0000 </r>
       <r>    1.3356    1.0000 </r>
       <r>    1.3539    1.0000 </r>
       <r>    1.3919    1.0000 </r>
       <r>    1.4268    1.0000 </r>
       <r>    1.4722    1.0000 </r>
       <r>    1.4977    1.0000 </r>
       <r>    1.5309    1.0000 </r>
       <r>    1.7246    1.0000 </r>
       <r>    1.8603    1.0000 </r>
       <r>    2.0556    1.0000 </r>
       <r>    2.0945    1.0000 </r>
       <r>    2.2316    1.0000 </r>
       <r>    2.4151    1.0000 </r>
       <r>    2.5566    1.0000 </r>
       <r>    2.8252    1.0000 </r>
       <r>    2.9450    1.0000 </r>
       <r>    3.2424    1.0000 </r>
       <r>    3.6634    1.0000 </r>
       <r>    4.0410    1.0142 </r>
       <r>    6.1709   -0.0000 </r>
       <r>    6.9070   -0.0000 </r>
       <r>    8.1375    0.0000 </r>
       <r>    8.2691    0.0000 </r>
       <r>    8.5937    0.0000 </r>
       <r>    9.0124    0.0000 </r>
       <r>    9.2434    0.0000 </r>
       <r>    9.5306    0.0000 </r>
       <r>    9.8662    0.0000 </r>
       <r>   10.3757    0.0000 </r>
       <r>   10.6332    0.0000 </r>
       <r>   10.8134    0.0000 </r>
       <r>   10.9401    0.0000 </r>
       <r>   11.1901    0.0000 </r>
       <r>   11.6559    0.0000 </r>
       <r>   11.7720    0.0000 </r>
       <r>   12.1142    0.0000 </r>
       <r>   12.4441    0.0000 </r>
       <r>   12.6180    0.0000 </r>
       <r>   13.0066    0.0000 </r>
       <r>   13.5054    0.0000 </r>
       <r>   13.8734    0.0000 </r>
       <r>   14.2140    0.0000 </r>
       <r>   14.7113    0.0000 </r>
      </set>
      <set comment="kpoint 3">
       <r>  -68.6454    1.0000 </r>
       <r>  -68.6448    1.0000 </r>
       <r>  -68.6341    1.0000 </r>
       <r>  -68.6324    1.0000 </r>
       <r>  -68.6133    1.0000 </r>
       <r>  -68.6126    1.0000 </r>
       <r>  -68.5960    1.0000 </r>
       <r>  -68.5954    1.0000 </r>
       <r>  -68.5786    1.0000 </r>
       <r>  -68.5774    1.0000 </r>
       <r>  -68.5614    1.0000 </r>
       <r>  -68.5607    1.0000 </r>
       <r>  -12.4359    1.0000 </r>
       <r>  -11.2513    1.0000 </r>
       <r>  -10.9550    1.0000 </r>
       <r>  -10.7652    1.0000 </r>
       <r>  -10.4242    1.0000 </r>
       <r>  -10.3620    1.0000 </r>
       <r>   -5.8708    1.0000 </r>
       <r>   -4.5486    1.0000 </r>
       <r>   -2.4945    1.0000 </r>
       <r>   -2.2448    1.0000 </r>
       <r>   -1.9447    1.0000 </r>
       <r>   -1.4628    1.0000 </r>
       <r>   -1.2247    1.0000 </r>
       <r>   -1.1019    1.0000 </r>
       <r>   -0.9005    1.0000 </r>
       <r>   -0.8650    1.0000 </r>
       <r>   -0.5976    1.0000 </r>
       <r>   -0.5386    1.0000 </r>
       <r>   -0.2766    1.0000 </r>
       <r>   -0.2068    1.0000 </r>
       <r>   -0.2048    1.0000 </r>
       <r>   -0.1426    1.0000 </r>
       <r>   -0.0287    1.0000 </r>
       <r>    0.0794    1.0000 </r>
       <r>    1.2531    1.0000 </r>
       <r>    1.3269    1.0000 </r>
       <r>    1.3466    1.0000 </r>
       <r>    1.3979    1.0000 </r>
       <r>    1.4714    1.0000 </r>
       <r>    1.4785    1.0000 </r>
       <r>    1.5000    1.0000 </r>
       <r>    1.5549    1.0000 </r>
       <r>    1.7515    1.0000 </r>
       <r>    1.7928    1.0000 </r>
       <r>    1.9695    1.0000 </r>
       <r>    2.1473    1.0000 </r>
       <r>    2.3203    1.0000 </r>
       <r>    2.3609    1.0000 </r>
       <r>    2.5535    1.0000 </r>
       <r>    2.6728    1.0000 </r>
       <r>    2.9346    1.0000 </r>
       <r>    3.0779    1.0000 </r>
       <r>    3.2510    1.0000 </r>
       <r>    3.8633    1.0000 </r>
       <r>    6.3859   -0.0000 </r>
       <r>    7.0987    0.0000 </r>
       <r>    7.9818    0.0000 </r>
       <r>    8.2043    0.0000 </r>
       <r>    8.5188    0.0000 </r>
       <r>    8.8211    0.0000 </r>
       <r>    9.3251    0.0000 </r>
       <r>    9.8887    0.0000 </r>
       <r>   10.0104    0.0000 </r>
       <r>   10.5190    0.0000 </r>
       <r>   10.6903    0.0000 </r>
       <r>   10.7919    0.0000 </r>
       <r>   11.1398    0.0000 </r>
       <r>   11.4124    0.0000 </r>
       <r>   11.6085    0.0000 </r>
       <r>   11.7757    0.0000 </r>
       <r>   11.9419    0.0000 </r>
       <r>   12.5043    0.0000 </r>
       <r>   12.7785    0.0000 </r>
       <r>   13.0028    0.0000 </r>
       <r>   13.3910    0.0000 </r>
       <r>   13.5414    0.0000 </r>
       <r>   13.9401    0.0000 </r>
       <r>   14.2769    0.0000 </r>
      </set>
      <set comment="kpoint 4">
       <r>  -68.6455    1.0000 </r>
       <r>  -68.6449    1.0000 </r>
       <r>  -68.6342    1.0000 </r>
       <r>  -68.6325    1.0000 </r>
       <r>  -68.6133    1.0000 </r>
       <r>  -68.6127    1.0000 </r>
       <r>  -68.5961    1.0000 </r>
       <r>  -68.5955    1.0000 </r>
       <r>  -68.5785    1.0000 </r>
       <r>  -68.5775    1.0000 </r>
       <r>  -68.5616    1.0000 </r>
       <r>  -68.5608    1.0000 </r>
       <r>  -12.5955    1.0000 </r>
       <r>  -11.1272    1.0000 </r>
       <r>  -10.9812    1.0000 </r>
       <r>  -10.6805    1.0000 </r>
       <r>  -10.3659    1.0000 </r>
       <r>  -10.2775    1.0000 </r>
       <r>   -5.9333    1.0000 </r>
       <r>   -4.7727    1.0000 </r>
       <r>   -2.6450    1.0000 </r>
       <r>   -2.2515    1.0000 </r>
       <r>   -2.0873    1.0000 </r>
       <r>   -1.6885    1.0000 </r>
       <r>   -1.3459    1.0000 </r>
       <r>   -0.9988    1.0000 </r>
       <r>   -0.7708    1.0000 </r>
       <r>   -0.6226    1.0000 </r>
       <r>   -0.5513    1.0000 </r>
       <r>   -0.4386    1.0000 </r>
       <r>   -0.3620    1.0000 </r>
       <r>   -0.2417    1.0000 </r>
       <r>   -0.1937    1.0000 </r>
       <r>   -0.1690    1.0000 </r>
       <r>   -0.0435    1.0000 </r>
       <r>    0.0371    1.0000 </r>
       <r>    1.2795    1.0000 </r>
       <r>    1.3355    1.0000 </r>
       <r>    1.3540    1.0000 </r>
       <r>    1.3918    1.0000 </r>
       <r>    1.4268    1.0000 </r>
       <r>    1.4722    1.0000 </r>
       <r>    1.4981    1.0000 </r>
       <r>    1.5293    1.0000 </r>
       <r>    1.7242    1.0000 </r>
       <r>    1.8599    1.0000 </r>
       <r>    2.0560    1.0000 </r>
       <r>    2.0959    1.0000 </r>
       <r>    2.2310    1.0000 </r>
       <r>    2.4152    1.0000 </r>
       <r>    2.5550    1.0000 </r>
       <r>    2.8259    1.0000 </r>
       <r>    2.9466    1.0000 </r>
       <r>    3.2432    1.0000 </r>
       <r>    3.6612    1.0000 </r>
       <r>    4.0407    1.0141 </r>
       <r>    6.1710   -0.0000 </r>
       <r>    6.9063   -0.0000 </r>
       <r>    8.1373    0.0000 </r>
       <r>    8.2679    0.0000 </r>
       <r>    8.5935    0.0000 </r>
       <r>    9.0136    0.0000 </r>
       <r>    9.2431    0.0000 </r>
       <r>    9.5314    0.0000 </r>
       <r>    9.8661    0.0000 </r>
       <r>   10.3761    0.0000 </r>
       <r>   10.6350    0.0000 </r>
       <r>   10.8132    0.0000 </r>
       <r>   10.9402    0.0000 </r>
       <r>   11.1903    0.0000 </r>
       <r>   11.6590    0.0000 </r>
       <r>   11.7703    0.0000 </r>
       <r>   12.1166    0.0000 </r>
       <r>   12.4415    0.0000 </r>
       <r>   12.6172    0.0000 </r>
       <r>   13.0092    0.0000 </r>
       <r>   13.5154    0.0000 </r>
       <r>   13.8979    0.0000 </r>
       <r>   14.2709    0.0000 </r>
       <r>   14.8400    0.0000 </r>
      </set>
      <set comment="kpoint 5">
       <r>  -68.6456    1.0000 </r>
       <r>  -68.6449    1.0000 </r>
       <r>  -68.6341    1.0000 </r>
       <r>  -68.6324    1.0000 </r>
       <r>  -68.6134    1.0000 </r>
       <r>  -68.6128    1.0000 </r>
       <r>  -68.5960    1.0000 </r>
       <r>  -68.5954    1.0000 </r>
       <r>  -68.5787    1.0000 </r>
       <r>  -68.5776    1.0000 </r>
       <r>  -68.5616    1.0000 </r>
       <r>  -68.5608    1.0000 </r>
       <r>  -12.4398    1.0000 </r>
       <r>  -11.1910    1.0000 </r>
       <r>  -10.9415    1.0000 </r>
       <r>  -10.8810    1.0000 </r>
       <r>  -10.3925    1.0000 </r>
       <r>  -10.3491    1.0000 </r>
       <r>   -5.8760    1.0000 </r>
       <r>   -4.5215    1.0000 </r>
       <r>   -2.4180    1.0000 </r>
       <r>   -2.2451    1.0000 </r>
       <r>   -1.7916    1.0000 </r>
       <r>   -1.6809    1.0000 </r>
       <r>   -1.3556    1.0000 </r>
       <r>   -1.2998    1.0000 </r>
       <r>   -1.0822    1.0000 </r>
       <r>   -0.6834    1.0000 </r>
       <r>   -0.5226    1.0000 </r>
       <r>   -0.2968    1.0000 </r>
       <r>   -0.2835    1.0000 </r>
       <r>   -0.2247    1.0000 </r>
       <r>   -0.1887    1.0000 </r>
       <r>   -0.1240    1.0000 </r>
       <r>   -0.0923    1.0000 </r>
       <r>    0.0781    1.0000 </r>
       <r>    1.2928    1.0000 </r>
       <r>    1.3109    1.0000 </r>
       <r>    1.4165    1.0000 </r>
       <r>    1.4262    1.0000 </r>
       <r>    1.4629    1.0000 </r>
       <r>    1.4823    1.0000 </r>
       <r>    1.4933    1.0000 </r>
       <r>    1.5700    1.0000 </r>
       <r>    1.6712    1.0000 </r>
       <r>    1.8809    1.0000 </r>
       <r>    1.9401    1.0000 </r>
       <r>    2.1351    1.0000 </r>
       <r>    2.2803    1.0000 </r>
       <r>    2.3216    1.0000 </r>
       <r>    2.5601    1.0000 </r>
       <r>    2.6504    1.0000 </r>
       <r>    2.9012    1.0000 </r>
       <r>    2.9438    1.0000 </r>
       <r>    3.6995    1.0000 </r>
       <r>    3.8341    1.0000 </r>
       <r>    6.1720   -0.0000 </r>
       <r>    6.9901    0.0000 </r>
       <r>    8.0039    0.0000 </r>
       <r>    8.3270    0.0000 </r>
       <r>    8.4336    0.0000 </r>
       <r>    8.5712    0.0000 </r>
       <r>    9.1467    0.0000 </r>
       <r>    9.2485    0.0000 </r>
       <r>   10.3628    0.0000 </r>
       <r>   10.4961    0.0000 </r>
       <r>   10.9207    0.0000 </r>
       <r>   11.1849    0.0000 </r>
       <r>   11.3289    0.0000 </r>
       <r>   11.5574    0.0000 </r>
       <r>   11.8135    0.0000 </r>
       <r>   11.9629    0.0000 </r>
       <r>   12.3143    0.0000 </r>
       <r>   12.5033    0.0000 </r>
       <r>   12.7122    0.0000 </r>
       <r>   12.9112    0.0000 </r>
       <r>   13.3407    0.0000 </r>
       <r>   13.4439    0.0000 </r>
       <r>   14.2577    0.0000 </r>
       <r>   14.3688    0.0000 </r>
      </set>
      <set comment="kpoint 6">
       <r>  -68.6453    1.0000 </r>
       <r>  -68.6447    1.0000 </r>
       <r>  -68.6342    1.0000 </r>
       <r>  -68.6324    1.0000 </r>
       <r>  -68.6132    1.0000 </r>
       <r>  -68.6126    1.0000 </r>
       <r>  -68.5960    1.0000 </r>
       <r>  -68.5955    1.0000 </r>
       <r>  -68.5784    1.0000 </r>
       <r>  -68.5774    1.0000 </r>
       <r>  -68.5614    1.0000 </r>
       <r>  -68.5607    1.0000 </r>
       <r>  -12.4403    1.0000 </r>
       <r>  -11.3544    1.0000 </r>
       <r>  -10.9367    1.0000 </r>
       <r>  -10.7403    1.0000 </r>
       <r>  -10.3868    1.0000 </r>
       <r>  -10.2742    1.0000 </r>
       <r>   -5.9477    1.0000 </r>
       <r>   -4.6427    1.0000 </r>
       <r>   -2.3923    1.0000 </r>
       <r>   -2.2254    1.0000 </r>
       <r>   -2.0573    1.0000 </r>
       <r>   -1.6378    1.0000 </r>
       <r>   -1.3627    1.0000 </r>
       <r>   -1.2811    1.0000 </r>
       <r>   -1.0225    1.0000 </r>
       <r>   -0.5136    1.0000 </r>
       <r>   -0.4838    1.0000 </r>
       <r>   -0.3318    1.0000 </r>
       <r>   -0.2830    1.0000 </r>
       <r>   -0.2163    1.0000 </r>
       <r>   -0.1532    1.0000 </r>
       <r>   -0.1317    1.0000 </r>
       <r>   -0.0116    1.0000 </r>
       <r>    0.1137    1.0000 </r>
       <r>    1.2456    1.0000 </r>
       <r>    1.3150    1.0000 </r>
       <r>    1.3827    1.0000 </r>
       <r>    1.4371    1.0000 </r>
       <r>    1.4616    1.0000 </r>
       <r>    1.4909    1.0000 </r>
       <r>    1.4966    1.0000 </r>
       <r>    1.5504    1.0000 </r>
       <r>    1.7491    1.0000 </r>
       <r>    1.8286    1.0000 </r>
       <r>    1.9218    1.0000 </r>
       <r>    2.1348    1.0000 </r>
       <r>    2.2218    1.0000 </r>
       <r>    2.3837    1.0000 </r>
       <r>    2.5622    1.0000 </r>
       <r>    2.7899    1.0000 </r>
       <r>    2.9775    1.0000 </r>
       <r>    3.3127    1.0000 </r>
       <r>    3.6026    1.0000 </r>
       <r>    3.7500    1.0000 </r>
       <r>    6.0884   -0.0000 </r>
       <r>    6.9392   -0.0000 </r>
       <r>    7.6126    0.0000 </r>
       <r>    8.0694    0.0000 </r>
       <r>    8.4103    0.0000 </r>
       <r>    8.6157    0.0000 </r>
       <r>    8.9828    0.0000 </r>
       <r>    9.1518    0.0000 </r>
       <r>   10.0884    0.0000 </r>
       <r>   10.3355    0.0000 </r>
       <r>   10.7331    0.0000 </r>
       <r>   11.1084    0.0000 </r>
       <r>   11.4610    0.0000 </r>
       <r>   11.5975    0.0000 </r>
       <r>   11.7992    0.0000 </r>
       <r>   12.0813    0.0000 </r>
       <r>   12.4761    0.0000 </r>
       <r>   12.9169    0.0000 </r>
       <r>   13.0334    0.0000 </r>
       <r>   13.8237    0.0000 </r>
       <r>   14.1933    0.0000 </r>
       <r>   14.6565    0.0000 </r>
       <r>   15.4285    0.0000 </r>
       <r>   15.6393    0.0000 </r>
      </set>
      <set comment="kpoint 7">
       <r>  -68.6455    1.0000 </r>
       <r>  -68.6449    1.0000 </r>
       <r>  -68.6342    1.0000 </r>
       <r>  -68.6324    1.0000 </r>
       <r>  -68.6132    1.0000 </r>
       <r>  -68.6126    1.0000 </r>
       <r>  -68.5961    1.0000 </r>
       <r>  -68.5955    1.0000 </r>
       <r>  -68.5785    1.0000 </r>
       <r>  -68.5774    1.0000 </r>
       <r>  -68.5616    1.0000 </r>
       <r>  -68.5608    1.0000 </r>
       <r>  -12.5986    1.0000 </r>
       <r>  -11.2518    1.0000 </r>
       <r>  -10.9900    1.0000 </r>
       <r>  -10.5731    1.0000 </r>
       <r>  -10.3650    1.0000 </r>
       <r>  -10.1818    1.0000 </r>
       <r>   -6.0101    1.0000 </r>
       <r>   -4.8947    1.0000 </r>
       <r>   -2.6467    1.0000 </r>
       <r>   -2.3138    1.0000 </r>
       <r>   -1.9703    1.0000 </r>
       <r>   -1.6461    1.0000 </r>
       <r>   -1.4940    1.0000 </r>
       <r>   -1.1838    1.0000 </r>
       <r>   -0.7894    1.0000 </r>
       <r>   -0.5897    1.0000 </r>
       <r>   -0.4489    1.0000 </r>
       <r>   -0.3336    1.0000 </r>
       <r>   -0.2950    1.0000 </r>
       <r>   -0.2302    1.0000 </r>
       <r>   -0.1741    1.0000 </r>
       <r>   -0.1318    1.0000 </r>
       <r>   -0.0110    1.0000 </r>
       <r>    0.0741    1.0000 </r>
       <r>    1.2588    1.0000 </r>
       <r>    1.3206    1.0000 </r>
       <r>    1.3652    1.0000 </r>
       <r>    1.4232    1.0000 </r>
       <r>    1.4302    1.0000 </r>
       <r>    1.4753    1.0000 </r>
       <r>    1.5034    1.0000 </r>
       <r>    1.5431    1.0000 </r>
       <r>    1.7256    1.0000 </r>
       <r>    1.8121    1.0000 </r>
       <r>    1.9945    1.0000 </r>
       <r>    2.0729    1.0000 </r>
       <r>    2.4175    1.0000 </r>
       <r>    2.4626    1.0000 </r>
       <r>    2.5280    1.0000 </r>
       <r>    2.8740    1.0000 </r>
       <r>    3.1416    1.0000 </r>
       <r>    3.2276    1.0000 </r>
       <r>    3.7842    1.0000 </r>
       <r>    4.0691    1.0266 </r>
       <r>    5.9797   -0.0000 </r>
       <r>    6.6899   -0.0000 </r>
       <r>    7.5346    0.0000 </r>
       <r>    8.2226    0.0000 </r>
       <r>    8.6186    0.0000 </r>
       <r>    8.9129    0.0000 </r>
       <r>    9.3089    0.0000 </r>
       <r>    9.4313    0.0000 </r>
       <r>    9.8050    0.0000 </r>
       <r>   10.2716    0.0000 </r>
       <r>   10.5425    0.0000 </r>
       <r>   10.8310    0.0000 </r>
       <r>   10.9714    0.0000 </r>
       <r>   11.3819    0.0000 </r>
       <r>   11.4706    0.0000 </r>
       <r>   11.7324    0.0000 </r>
       <r>   12.1024    0.0000 </r>
       <r>   12.6642    0.0000 </r>
       <r>   12.9393    0.0000 </r>
       <r>   13.1013    0.0000 </r>
       <r>   13.3514    0.0000 </r>
       <r>   13.5199    0.0000 </r>
       <r>   14.4771    0.0000 </r>
       <r>   14.7558    0.0000 </r>
      </set>
      <set comment="kpoint 8">
       <r>  -68.6454    1.0000 </r>
       <r>  -68.6448    1.0000 </r>
       <r>  -68.6341    1.0000 </r>
       <r>  -68.6324    1.0000 </r>
       <r>  -68.6132    1.0000 </r>
       <r>  -68.6127    1.0000 </r>
       <r>  -68.5960    1.0000 </r>
       <r>  -68.5954    1.0000 </r>
       <r>  -68.5785    1.0000 </r>
       <r>  -68.5775    1.0000 </r>
       <r>  -68.5614    1.0000 </r>
       <r>  -68.5606    1.0000 </r>
       <r>  -12.4359    1.0000 </r>
       <r>  -11.2482    1.0000 </r>
       <r>  -10.9554    1.0000 </r>
       <r>  -10.7710    1.0000 </r>
       <r>  -10.4261    1.0000 </r>
       <r>  -10.3572    1.0000 </r>
       <r>   -5.8710    1.0000 </r>
       <r>   -4.5476    1.0000 </r>
       <r>   -2.4929    1.0000 </r>
       <r>   -2.2453    1.0000 </r>
       <r>   -1.9454    1.0000 </r>
       <r>   -1.4641    1.0000 </r>
       <r>   -1.2243    1.0000 </r>
       <r>   -1.1046    1.0000 </r>
       <r>   -0.8998    1.0000 </r>
       <r>   -0.8662    1.0000 </r>
       <r>   -0.5990    1.0000 </r>
       <r>   -0.5371    1.0000 </r>
       <r>   -0.2735    1.0000 </r>
       <r>   -0.2103    1.0000 </r>
       <r>   -0.1992    1.0000 </r>
       <r>   -0.1451    1.0000 </r>
       <r>   -0.0269    1.0000 </r>
       <r>    0.0795    1.0000 </r>
       <r>    1.2548    1.0000 </r>
       <r>    1.3265    1.0000 </r>
       <r>    1.3470    1.0000 </r>
       <r>    1.3974    1.0000 </r>
       <r>    1.4711    1.0000 </r>
       <r>    1.4784    1.0000 </r>
       <r>    1.4997    1.0000 </r>
       <r>    1.5529    1.0000 </r>
       <r>    1.7524    1.0000 </r>
       <r>    1.7905    1.0000 </r>
       <r>    1.9692    1.0000 </r>
       <r>    2.1463    1.0000 </r>
       <r>    2.3206    1.0000 </r>
       <r>    2.3639    1.0000 </r>
       <r>    2.5544    1.0000 </r>
       <r>    2.6716    1.0000 </r>
       <r>    2.9368    1.0000 </r>
       <r>    3.0778    1.0000 </r>
       <r>    3.2484    1.0000 </r>
       <r>    3.8638    1.0000 </r>
       <r>    6.3858   -0.0000 </r>
       <r>    7.0967    0.0000 </r>
       <r>    7.9785    0.0000 </r>
       <r>    8.2043    0.0000 </r>
       <r>    8.5191    0.0000 </r>
       <r>    8.8201    0.0000 </r>
       <r>    9.3277    0.0000 </r>
       <r>    9.8901    0.0000 </r>
       <r>   10.0120    0.0000 </r>
       <r>   10.5212    0.0000 </r>
       <r>   10.6921    0.0000 </r>
       <r>   10.7935    0.0000 </r>
       <r>   11.1400    0.0000 </r>
       <r>   11.4072    0.0000 </r>
       <r>   11.6092    0.0000 </r>
       <r>   11.7757    0.0000 </r>
       <r>   11.9447    0.0000 </r>
       <r>   12.5066    0.0000 </r>
       <r>   12.8243    0.0000 </r>
       <r>   13.0308    0.0000 </r>
       <r>   13.5482    0.0000 </r>
       <r>   13.6876    0.0000 </r>
       <r>   14.5520    0.0000 </r>
       <r>   15.2433    0.0000 </r>
      </set>
      <set comment="kpoint 9">
       <r>  -68.6453    1.0000 </r>
       <r>  -68.6447    1.0000 </r>
       <r>  -68.6341    1.0000 </r>
       <r>  -68.6324    1.0000 </r>
       <r>  -68.6131    1.0000 </r>
       <r>  -68.6127    1.0000 </r>
       <r>  -68.5960    1.0000 </r>
       <r>  -68.5956    1.0000 </r>
       <r>  -68.5784    1.0000 </r>
       <r>  -68.5774    1.0000 </r>
       <r>  -68.5614    1.0000 </r>
       <r>  -68.5607    1.0000 </r>
       <r>  -12.4403    1.0000 </r>
       <r>  -11.3535    1.0000 </r>
       <r>  -10.9365    1.0000 </r>
       <r>  -10.7424    1.0000 </r>
       <r>  -10.3875    1.0000 </r>
       <r>  -10.2725    1.0000 </r>
       <r>   -5.9478    1.0000 </r>
       <r>   -4.6423    1.0000 </r>
       <r>   -2.3912    1.0000 </r>
       <r>   -2.2260    1.0000 </r>
       <r>   -2.0562    1.0000 </r>
       <r>   -1.6412    1.0000 </r>
       <r>   -1.3612    1.0000 </r>
       <r>   -1.2817    1.0000 </r>
       <r>   -1.0220    1.0000 </r>
       <r>   -0.5105    1.0000 </r>
       <r>   -0.4892    1.0000 </r>
       <r>   -0.3300    1.0000 </r>
       <r>   -0.2857    1.0000 </r>
       <r>   -0.2146    1.0000 </r>
       <r>   -0.1497    1.0000 </r>
       <r>   -0.1349    1.0000 </r>
       <r>   -0.0102    1.0000 </r>
       <r>    0.1145    1.0000 </r>
       <r>    1.2466    1.0000 </r>
       <r>    1.3149    1.0000 </r>
       <r>    1.3818    1.0000 </r>
       <r>    1.4370    1.0000 </r>
       <r>    1.4620    1.0000 </r>
       <r>    1.4913    1.0000 </r>
       <r>    1.4965    1.0000 </r>
       <r>    1.5497    1.0000 </r>
       <r>    1.7489    1.0000 </r>
       <r>    1.8274    1.0000 </r>
       <r>    1.9234    1.0000 </r>
       <r>    2.1333    1.0000 </r>
       <r>    2.2203    1.0000 </r>
       <r>    2.3868    1.0000 </r>
       <r>    2.5622    1.0000 </r>
       <r>    2.7907    1.0000 </r>
       <r>    2.9764    1.0000 </r>
       <r>    3.3122    1.0000 </r>
       <r>    3.6016    1.0000 </r>
       <r>    3.7504    1.0000 </r>
       <r>    6.0883   -0.0000 </r>
       <r>    6.9388   -0.0000 </r>
       <r>    7.6119    0.0000 </r>
       <r>    8.0694    0.0000 </r>
       <r>    8.4101    0.0000 </r>
       <r>    8.6155    0.0000 </r>
       <r>    8.9840    0.0000 </r>
       <r>    9.1518    0.0000 </r>
       <r>   10.0883    0.0000 </r>
       <r>   10.3359    0.0000 </r>
       <r>   10.7336    0.0000 </r>
       <r>   11.1085    0.0000 </r>
       <r>   11.4589    0.0000 </r>
       <r>   11.5777    0.0000 </r>
       <r>   11.7865    0.0000 </r>
       <r>   12.0325    0.0000 </r>
       <r>   12.5238    0.0000 </r>
       <r>   12.6842    0.0000 </r>
       <r>   12.9138    0.0000 </r>
       <r>   13.2119    0.0000 </r>
       <r>   14.2310    0.0000 </r>
       <r>   14.7705    0.0000 </r>
       <r>   15.2475    0.0000 </r>
       <r>   15.9121    0.0000 </r>
      </set>
      <set comment="kpoint 10">
       <r>  -68.6452    1.0000 </r>
       <r>  -68.6445    1.0000 </r>
       <r>  -68.6340    1.0000 </r>
       <r>  -68.6323    1.0000 </r>
       <r>  -68.6130    1.0000 </r>
       <r>  -68.6126    1.0000 </r>
       <r>  -68.5958    1.0000 </r>
       <r>  -68.5953    1.0000 </r>
       <r>  -68.5784    1.0000 </r>
       <r>  -68.5773    1.0000 </r>
       <r>  -68.5612    1.0000 </r>
       <r>  -68.5605    1.0000 </r>
       <r>  -12.4324    1.0000 </r>
       <r>  -11.5011    1.0000 </r>
       <r>  -10.9119    1.0000 </r>
       <r>  -10.6215    1.0000 </r>
       <r>  -10.3954    1.0000 </r>
       <r>  -10.2012    1.0000 </r>
       <r>   -6.0263    1.0000 </r>
       <r>   -4.8108    1.0000 </r>
       <r>   -2.3119    1.0000 </r>
       <r>   -2.2634    1.0000 </r>
       <r>   -2.0925    1.0000 </r>
       <r>   -1.7020    1.0000 </r>
       <r>   -1.2438    1.0000 </r>
       <r>   -1.1105    1.0000 </r>
       <r>   -0.8459    1.0000 </r>
       <r>   -0.7803    1.0000 </r>
       <r>   -0.7304    1.0000 </r>
       <r>   -0.2462    1.0000 </r>
       <r>   -0.1969    1.0000 </r>
       <r>   -0.1793    1.0000 </r>
       <r>   -0.1518    1.0000 </r>
       <r>   -0.0421    1.0000 </r>
       <r>   -0.0033    1.0000 </r>
       <r>    0.1869    1.0000 </r>
       <r>    1.2650    1.0000 </r>
       <r>    1.3177    1.0000 </r>
       <r>    1.3752    1.0000 </r>
       <r>    1.4138    1.0000 </r>
       <r>    1.4341    1.0000 </r>
       <r>    1.4925    1.0000 </r>
       <r>    1.5075    1.0000 </r>
       <r>    1.5493    1.0000 </r>
       <r>    1.7852    1.0000 </r>
       <r>    1.8476    1.0000 </r>
       <r>    1.9954    1.0000 </r>
       <r>    2.1499    1.0000 </r>
       <r>    2.2539    1.0000 </r>
       <r>    2.3375    1.0000 </r>
       <r>    2.5584    1.0000 </r>
       <r>    2.7633    1.0000 </r>
       <r>    2.7742    1.0000 </r>
       <r>    3.3694    1.0000 </r>
       <r>    3.7667    1.0000 </r>
       <r>    4.0053    1.0046 </r>
       <r>    5.8548   -0.0000 </r>
       <r>    6.7672   -0.0000 </r>
       <r>    7.0822    0.0000 </r>
       <r>    8.4112    0.0000 </r>
       <r>    8.5613    0.0000 </r>
       <r>    8.7708    0.0000 </r>
       <r>    9.1423    0.0000 </r>
       <r>    9.2404    0.0000 </r>
       <r>    9.9603    0.0000 </r>
       <r>   10.2850    0.0000 </r>
       <r>   10.7258    0.0000 </r>
       <r>   10.8260    0.0000 </r>
       <r>   10.8768    0.0000 </r>
       <r>   11.2753    0.0000 </r>
       <r>   11.7566    0.0000 </r>
       <r>   11.9158    0.0000 </r>
       <r>   11.9734    0.0000 </r>
       <r>   12.3669    0.0000 </r>
       <r>   12.5404    0.0000 </r>
       <r>   13.4547    0.0000 </r>
       <r>   14.2838    0.0000 </r>
       <r>   14.6713    0.0000 </r>
       <r>   16.7448    0.0000 </r>
       <r>   16.7582    0.0000 </r>
      </set>
      <set comment="kpoint 11">
       <r>  -68.6456    1.0000 </r>
       <r>  -68.6450    1.0000 </r>
       <r>  -68.6342    1.0000 </r>
       <r>  -68.6325    1.0000 </r>
       <r>  -68.6133    1.0000 </r>
       <r>  -68.6127    1.0000 </r>
       <r>  -68.5961    1.0000 </r>
       <r>  -68.5955    1.0000 </r>
       <r>  -68.5786    1.0000 </r>
       <r>  -68.5775    1.0000 </r>
       <r>  -68.5616    1.0000 </r>
       <r>  -68.5609    1.0000 </r>
       <r>  -12.6174    1.0000 </r>
       <r>  -11.4253    1.0000 </r>
       <r>  -10.7779    1.0000 </r>
       <r>  -10.6088    1.0000 </r>
       <r>  -10.2508    1.0000 </r>
       <r>  -10.2380    1.0000 </r>
       <r>   -5.8313    1.0000 </r>
       <r>   -5.0466    1.0000 </r>
       <r>   -2.6000    1.0000 </r>
       <r>   -2.3721    1.0000 </r>
       <r>   -1.9611    1.0000 </r>
       <r>   -1.7745    1.0000 </r>
       <r>   -1.4433    1.0000 </r>
       <r>   -1.1292    1.0000 </r>
       <r>   -1.0650    1.0000 </r>
       <r>   -0.7702    1.0000 </r>
       <r>   -0.4706    1.0000 </r>
       <r>   -0.2931    1.0000 </r>
       <r>   -0.2400    1.0000 </r>
       <r>   -0.2354    1.0000 </r>
       <r>   -0.1907    1.0000 </r>
       <r>   -0.1463    1.0000 </r>
       <r>   -0.0142    1.0000 </r>
       <r>    0.0206    1.0000 </r>
       <r>    1.3337    1.0000 </r>
       <r>    1.3813    1.0000 </r>
       <r>    1.4156    1.0000 </r>
       <r>    1.4391    1.0000 </r>
       <r>    1.4645    1.0000 </r>
       <r>    1.4659    1.0000 </r>
       <r>    1.5141    1.0000 </r>
       <r>    1.5459    1.0000 </r>
       <r>    1.6326    1.0000 </r>
       <r>    1.7593    1.0000 </r>
       <r>    1.7869    1.0000 </r>
       <r>    1.9507    1.0000 </r>
       <r>    2.0876    1.0000 </r>
       <r>    2.6627    1.0000 </r>
       <r>    2.7176    1.0000 </r>
       <r>    3.1947    1.0000 </r>
       <r>    3.2522    1.0000 </r>
       <r>    3.5206    1.0000 </r>
       <r>    3.8946    1.0000 </r>
       <r>    3.9764    1.0014 </r>
       <r>    6.0458   -0.0000 </r>
       <r>    6.4175   -0.0000 </r>
       <r>    7.8246    0.0000 </r>
       <r>    7.9084    0.0000 </r>
       <r>    8.3652    0.0000 </r>
       <r>    8.8196    0.0000 </r>
       <r>    9.7751    0.0000 </r>
       <r>    9.7957    0.0000 </r>
       <r>   10.0638    0.0000 </r>
       <r>   10.5857    0.0000 </r>
       <r>   10.6450    0.0000 </r>
       <r>   10.8124    0.0000 </r>
       <r>   10.8560    0.0000 </r>
       <r>   11.4930    0.0000 </r>
       <r>   11.5583    0.0000 </r>
       <r>   12.0272    0.0000 </r>
       <r>   12.5786    0.0000 </r>
       <r>   12.7767    0.0000 </r>
       <r>   12.9118    0.0000 </r>
       <r>   13.2050    0.0000 </r>
       <r>   13.5345    0.0000 </r>
       <r>   13.8220    0.0000 </r>
       <r>   14.1959    0.0000 </r>
       <r>   14.7044    0.0000 </r>
      </set>
      <set comment="kpoint 12">
       <r>  -68.6455    1.0000 </r>
       <r>  -68.6449    1.0000 </r>
       <r>  -68.6342    1.0000 </r>
       <r>  -68.6325    1.0000 </r>
       <r>  -68.6134    1.0000 </r>
       <r>  -68.6128    1.0000 </r>
       <r>  -68.5961    1.0000 </r>
       <r>  -68.5955    1.0000 </r>
       <r>  -68.5786    1.0000 </r>
       <r>  -68.5775    1.0000 </r>
       <r>  -68.5615    1.0000 </r>
       <r>  -68.5608    1.0000 </r>
       <r>  -12.4582    1.0000 </r>
       <r>  -11.4670    1.0000 </r>
       <r>  -10.8637    1.0000 </r>
       <r>  -10.6902    1.0000 </r>
       <r>  -10.3735    1.0000 </r>
       <r>  -10.2462    1.0000 </r>
       <r>   -5.7666    1.0000 </r>
       <r>   -4.8042    1.0000 </r>
       <r>   -2.4450    1.0000 </r>
       <r>   -2.2326    1.0000 </r>
       <r>   -1.8504    1.0000 </r>
       <r>   -1.7127    1.0000 </r>
       <r>   -1.4328    1.0000 </r>
       <r>   -1.1916    1.0000 </r>
       <r>   -0.8900    1.0000 </r>
       <r>   -0.7430    1.0000 </r>
       <r>   -0.6065    1.0000 </r>
       <r>   -0.5238    1.0000 </r>
       <r>   -0.3113    1.0000 </r>
       <r>   -0.2420    1.0000 </r>
       <r>   -0.1722    1.0000 </r>
       <r>   -0.1255    1.0000 </r>
       <r>   -0.0514    1.0000 </r>
       <r>    0.0578    1.0000 </r>
       <r>    1.3015    1.0000 </r>
       <r>    1.3360    1.0000 </r>
       <r>    1.3696    1.0000 </r>
       <r>    1.4309    1.0000 </r>
       <r>    1.4458    1.0000 </r>
       <r>    1.4789    1.0000 </r>
       <r>    1.5211    1.0000 </r>
       <r>    1.5465    1.0000 </r>
       <r>    1.6430    1.0000 </r>
       <r>    1.8731    1.0000 </r>
       <r>    1.9785    1.0000 </r>
       <r>    2.0477    1.0000 </r>
       <r>    2.1956    1.0000 </r>
       <r>    2.4758    1.0000 </r>
       <r>    2.5956    1.0000 </r>
       <r>    2.8383    1.0000 </r>
       <r>    2.9622    1.0000 </r>
       <r>    3.1317    1.0000 </r>
       <r>    3.5693    1.0000 </r>
       <r>    3.7257    1.0000 </r>
       <r>    6.4423   -0.0000 </r>
       <r>    6.9580    0.0000 </r>
       <r>    8.1706    0.0000 </r>
       <r>    8.2468    0.0000 </r>
       <r>    8.8339    0.0000 </r>
       <r>    9.1285    0.0000 </r>
       <r>    9.4646    0.0000 </r>
       <r>    9.7947    0.0000 </r>
       <r>   10.0848    0.0000 </r>
       <r>   10.2982    0.0000 </r>
       <r>   10.7418    0.0000 </r>
       <r>   11.0784    0.0000 </r>
       <r>   11.2887    0.0000 </r>
       <r>   11.4226    0.0000 </r>
       <r>   11.6306    0.0000 </r>
       <r>   11.7235    0.0000 </r>
       <r>   12.0881    0.0000 </r>
       <r>   12.2683    0.0000 </r>
       <r>   12.5428    0.0000 </r>
       <r>   12.6592    0.0000 </r>
       <r>   12.9534    0.0000 </r>
       <r>   13.0610    0.0000 </r>
       <r>   13.6400    0.0000 </r>
       <r>   14.6900    0.0000 </r>
      </set>
      <set comment="kpoint 13">
       <r>  -68.6453    1.0000 </r>
       <r>  -68.6448    1.0000 </r>
       <r>  -68.6341    1.0000 </r>
       <r>  -68.6324    1.0000 </r>
       <r>  -68.6132    1.0000 </r>
       <r>  -68.6126    1.0000 </r>
       <r>  -68.5960    1.0000 </r>
       <r>  -68.5954    1.0000 </r>
       <r>  -68.5784    1.0000 </r>
       <r>  -68.5774    1.0000 </r>
       <r>  -68.5614    1.0000 </r>
       <r>  -68.5608    1.0000 </r>
       <r>  -12.3557    1.0000 </r>
       <r>  -11.4138    1.0000 </r>
       <r>  -10.9537    1.0000 </r>
       <r>  -10.6844    1.0000 </r>
       <r>  -10.4777    1.0000 </r>
       <r>  -10.3359    1.0000 </r>
       <r>   -5.7518    1.0000 </r>
       <r>   -4.7224    1.0000 </r>
       <r>   -2.5231    1.0000 </r>
       <r>   -2.1851    1.0000 </r>
       <r>   -1.9511    1.0000 </r>
       <r>   -1.5341    1.0000 </r>
       <r>   -1.3009    1.0000 </r>
       <r>   -1.0964    1.0000 </r>
       <r>   -0.8700    1.0000 </r>
       <r>   -0.7593    1.0000 </r>
       <r>   -0.5484    1.0000 </r>
       <r>   -0.4454    1.0000 </r>
       <r>   -0.2935    1.0000 </r>
       <r>   -0.1804    1.0000 </r>
       <r>   -0.1438    1.0000 </r>
       <r>   -0.1060    1.0000 </r>
       <r>   -0.0445    1.0000 </r>
       <r>    0.0212    1.0000 </r>
       <r>    1.2726    1.0000 </r>
       <r>    1.2966    1.0000 </r>
       <r>    1.3513    1.0000 </r>
       <r>    1.4290    1.0000 </r>
       <r>    1.4522    1.0000 </r>
       <r>    1.4806    1.0000 </r>
       <r>    1.5013    1.0000 </r>
       <r>    1.5887    1.0000 </r>
       <r>    1.7189    1.0000 </r>
       <r>    1.9340    1.0000 </r>
       <r>    2.0771    1.0000 </r>
       <r>    2.1467    1.0000 </r>
       <r>    2.2664    1.0000 </r>
       <r>    2.4030    1.0000 </r>
       <r>    2.5681    1.0000 </r>
       <r>    2.5967    1.0000 </r>
       <r>    2.8993    1.0000 </r>
       <r>    3.0090    1.0000 </r>
       <r>    3.3580    1.0000 </r>
       <r>    3.9009    1.0000 </r>
       <r>    6.3659   -0.0000 </r>
       <r>    6.8981   -0.0000 </r>
       <r>    7.5750    0.0000 </r>
       <r>    8.0834    0.0000 </r>
       <r>    8.5498    0.0000 </r>
       <r>    8.7980    0.0000 </r>
       <r>    9.2772    0.0000 </r>
       <r>    9.6289    0.0000 </r>
       <r>    9.9311    0.0000 </r>
       <r>   10.2739    0.0000 </r>
       <r>   10.6598    0.0000 </r>
       <r>   10.9268    0.0000 </r>
       <r>   10.9715    0.0000 </r>
       <r>   11.2792    0.0000 </r>
       <r>   11.5196    0.0000 </r>
       <r>   11.7903    0.0000 </r>
       <r>   12.2471    0.0000 </r>
       <r>   12.5479    0.0000 </r>
       <r>   13.0978    0.0000 </r>
       <r>   13.5152    0.0000 </r>
       <r>   14.2958    0.0000 </r>
       <r>   14.5716    0.0000 </r>
       <r>   15.1259    0.0000 </r>
       <r>   16.2657    0.0000 </r>
      </set>
      <set comment="kpoint 14">
       <r>  -68.6456    1.0000 </r>
       <r>  -68.6450    1.0000 </r>
       <r>  -68.6342    1.0000 </r>
       <r>  -68.6325    1.0000 </r>
       <r>  -68.6133    1.0000 </r>
       <r>  -68.6127    1.0000 </r>
       <r>  -68.5961    1.0000 </r>
       <r>  -68.5955    1.0000 </r>
       <r>  -68.5786    1.0000 </r>
       <r>  -68.5775    1.0000 </r>
       <r>  -68.5616    1.0000 </r>
       <r>  -68.5609    1.0000 </r>
       <r>  -12.5410    1.0000 </r>
       <r>  -11.3371    1.0000 </r>
       <r>  -10.8739    1.0000 </r>
       <r>  -10.6063    1.0000 </r>
       <r>  -10.3981    1.0000 </r>
       <r>  -10.2849    1.0000 </r>
       <r>   -5.8248    1.0000 </r>
       <r>   -4.9746    1.0000 </r>
       <r>   -2.6662    1.0000 </r>
       <r>   -2.4519    1.0000 </r>
       <r>   -2.0367    1.0000 </r>
       <r>   -1.5771    1.0000 </r>
       <r>   -1.1713    1.0000 </r>
       <r>   -0.9835    1.0000 </r>
       <r>   -0.7975    1.0000 </r>
       <r>   -0.6515    1.0000 </r>
       <r>   -0.5161    1.0000 </r>
       <r>   -0.3904    1.0000 </r>
       <r>   -0.2696    1.0000 </r>
       <r>   -0.2564    1.0000 </r>
       <r>   -0.1931    1.0000 </r>
       <r>   -0.1444    1.0000 </r>
       <r>   -0.0442    1.0000 </r>
       <r>    0.0130    1.0000 </r>
       <r>    1.2904    1.0000 </r>
       <r>    1.3104    1.0000 </r>
       <r>    1.3888    1.0000 </r>
       <r>    1.4087    1.0000 </r>
       <r>    1.4343    1.0000 </r>
       <r>    1.4555    1.0000 </r>
       <r>    1.4920    1.0000 </r>
       <r>    1.5654    1.0000 </r>
       <r>    1.6871    1.0000 </r>
       <r>    1.9156    1.0000 </r>
       <r>    1.9859    1.0000 </r>
       <r>    2.1439    1.0000 </r>
       <r>    2.3356    1.0000 </r>
       <r>    2.5659    1.0000 </r>
       <r>    2.6183    1.0000 </r>
       <r>    2.8269    1.0000 </r>
       <r>    2.9719    1.0000 </r>
       <r>    3.2484    1.0000 </r>
       <r>    3.6834    1.0000 </r>
       <r>    3.9453    1.0003 </r>
       <r>    6.1791   -0.0000 </r>
       <r>    6.6394   -0.0000 </r>
       <r>    7.7665    0.0000 </r>
       <r>    7.9735    0.0000 </r>
       <r>    8.2147    0.0000 </r>
       <r>    8.5622    0.0000 </r>
       <r>    9.3800    0.0000 </r>
       <r>    9.5785    0.0000 </r>
       <r>    9.9075    0.0000 </r>
       <r>   10.2503    0.0000 </r>
       <r>   10.5444    0.0000 </r>
       <r>   10.7888    0.0000 </r>
       <r>   10.8404    0.0000 </r>
       <r>   11.0697    0.0000 </r>
       <r>   11.5650    0.0000 </r>
       <r>   12.0199    0.0000 </r>
       <r>   12.5274    0.0000 </r>
       <r>   12.7513    0.0000 </r>
       <r>   12.9542    0.0000 </r>
       <r>   13.3086    0.0000 </r>
       <r>   13.4126    0.0000 </r>
       <r>   13.7412    0.0000 </r>
       <r>   13.8482    0.0000 </r>
       <r>   14.7246    0.0000 </r>
      </set>
      <set comment="kpoint 15">
       <r>  -68.6455    1.0000 </r>
       <r>  -68.6449    1.0000 </r>
       <r>  -68.6342    1.0000 </r>
       <r>  -68.6325    1.0000 </r>
       <r>  -68.6134    1.0000 </r>
       <r>  -68.6127    1.0000 </r>
       <r>  -68.5961    1.0000 </r>
       <r>  -68.5955    1.0000 </r>
       <r>  -68.5786    1.0000 </r>
       <r>  -68.5775    1.0000 </r>
       <r>  -68.5615    1.0000 </r>
       <r>  -68.5608    1.0000 </r>
       <r>  -12.4582    1.0000 </r>
       <r>  -11.4664    1.0000 </r>
       <r>  -10.8645    1.0000 </r>
       <r>  -10.6903    1.0000 </r>
       <r>  -10.3744    1.0000 </r>
       <r>  -10.2452    1.0000 </r>
       <r>   -5.7667    1.0000 </r>
       <r>   -4.8037    1.0000 </r>
       <r>   -2.4446    1.0000 </r>
       <r>   -2.2336    1.0000 </r>
       <r>   -1.8500    1.0000 </r>
       <r>   -1.7118    1.0000 </r>
       <r>   -1.4345    1.0000 </r>
       <r>   -1.1891    1.0000 </r>
       <r>   -0.8928    1.0000 </r>
       <r>   -0.7441    1.0000 </r>
       <r>   -0.6071    1.0000 </r>
       <r>   -0.5220    1.0000 </r>
       <r>   -0.3117    1.0000 </r>
       <r>   -0.2430    1.0000 </r>
       <r>   -0.1719    1.0000 </r>
       <r>   -0.1240    1.0000 </r>
       <r>   -0.0506    1.0000 </r>
       <r>    0.0579    1.0000 </r>
       <r>    1.3026    1.0000 </r>
       <r>    1.3358    1.0000 </r>
       <r>    1.3691    1.0000 </r>
       <r>    1.4310    1.0000 </r>
       <r>    1.4462    1.0000 </r>
       <r>    1.4795    1.0000 </r>
       <r>    1.5208    1.0000 </r>
       <r>    1.5471    1.0000 </r>
       <r>    1.6426    1.0000 </r>
       <r>    1.8708    1.0000 </r>
       <r>    1.9809    1.0000 </r>
       <r>    2.0472    1.0000 </r>
       <r>    2.1945    1.0000 </r>
       <r>    2.4761    1.0000 </r>
       <r>    2.5933    1.0000 </r>
       <r>    2.8383    1.0000 </r>
       <r>    2.9627    1.0000 </r>
       <r>    3.1334    1.0000 </r>
       <r>    3.5693    1.0000 </r>
       <r>    3.7250    1.0000 </r>
       <r>    6.4420   -0.0000 </r>
       <r>    6.9572    0.0000 </r>
       <r>    8.1711    0.0000 </r>
       <r>    8.2469    0.0000 </r>
       <r>    8.8334    0.0000 </r>
       <r>    9.1276    0.0000 </r>
       <r>    9.4634    0.0000 </r>
       <r>    9.7963    0.0000 </r>
       <r>   10.0842    0.0000 </r>
       <r>   10.3000    0.0000 </r>
       <r>   10.7405    0.0000 </r>
       <r>   11.0790    0.0000 </r>
       <r>   11.2896    0.0000 </r>
       <r>   11.4235    0.0000 </r>
       <r>   11.6365    0.0000 </r>
       <r>   11.7269    0.0000 </r>
       <r>   12.0871    0.0000 </r>
       <r>   12.2645    0.0000 </r>
       <r>   12.5418    0.0000 </r>
       <r>   12.6550    0.0000 </r>
       <r>   12.9538    0.0000 </r>
       <r>   13.0570    0.0000 </r>
       <r>   13.6556    0.0000 </r>
       <r>   14.6946    0.0000 </r>
      </set>
      <set comment="kpoint 16">
       <r>  -68.6454    1.0000 </r>
       <r>  -68.6448    1.0000 </r>
       <r>  -68.6340    1.0000 </r>
       <r>  -68.6323    1.0000 </r>
       <r>  -68.6132    1.0000 </r>
       <r>  -68.6126    1.0000 </r>
       <r>  -68.5960    1.0000 </r>
       <r>  -68.5954    1.0000 </r>
       <r>  -68.5785    1.0000 </r>
       <r>  -68.5774    1.0000 </r>
       <r>  -68.5615    1.0000 </r>
       <r>  -68.5607    1.0000 </r>
       <r>  -12.3262    1.0000 </r>
       <r>  -11.4749    1.0000 </r>
       <r>  -10.8663    1.0000 </r>
       <r>  -10.8551    1.0000 </r>
       <r>  -10.4095    1.0000 </r>
       <r>  -10.2855    1.0000 </r>
       <r>   -5.7477    1.0000 </r>
       <r>   -4.6916    1.0000 </r>
       <r>   -2.2417    1.0000 </r>
       <r>   -2.1375    1.0000 </r>
       <r>   -1.9277    1.0000 </r>
       <r>   -1.8499    1.0000 </r>
       <r>   -1.4538    1.0000 </r>
       <r>   -1.3979    1.0000 </r>
       <r>   -1.0394    1.0000 </r>
       <r>   -0.5203    1.0000 </r>
       <r>   -0.4622    1.0000 </r>
       <r>   -0.3498    1.0000 </r>
       <r>   -0.2490    1.0000 </r>
       <r>   -0.2170    1.0000 </r>
       <r>   -0.1610    1.0000 </r>
       <r>   -0.1104    1.0000 </r>
       <r>   -0.0903    1.0000 </r>
       <r>    0.0789    1.0000 </r>
       <r>    1.2612    1.0000 </r>
       <r>    1.3473    1.0000 </r>
       <r>    1.3974    1.0000 </r>
       <r>    1.4346    1.0000 </r>
       <r>    1.4527    1.0000 </r>
       <r>    1.5096    1.0000 </r>
       <r>    1.5356    1.0000 </r>
       <r>    1.5430    1.0000 </r>
       <r>    1.7522    1.0000 </r>
       <r>    1.8176    1.0000 </r>
       <r>    2.0413    1.0000 </r>
       <r>    2.1358    1.0000 </r>
       <r>    2.2851    1.0000 </r>
       <r>    2.3114    1.0000 </r>
       <r>    2.5207    1.0000 </r>
       <r>    2.7687    1.0000 </r>
       <r>    2.8983    1.0000 </r>
       <r>    3.2613    1.0000 </r>
       <r>    3.4982    1.0000 </r>
       <r>    3.8011    1.0000 </r>
       <r>    6.1847   -0.0000 </r>
       <r>    6.8406   -0.0000 </r>
       <r>    7.8263    0.0000 </r>
       <r>    8.0455    0.0000 </r>
       <r>    8.1903    0.0000 </r>
       <r>    8.7265    0.0000 </r>
       <r>    9.1531    0.0000 </r>
       <r>    9.3062    0.0000 </r>
       <r>   10.2202    0.0000 </r>
       <r>   10.4400    0.0000 </r>
       <r>   10.5922    0.0000 </r>
       <r>   11.0068    0.0000 </r>
       <r>   11.2385    0.0000 </r>
       <r>   11.4881    0.0000 </r>
       <r>   11.8138    0.0000 </r>
       <r>   12.1706    0.0000 </r>
       <r>   12.2095    0.0000 </r>
       <r>   12.5746    0.0000 </r>
       <r>   12.6917    0.0000 </r>
       <r>   13.1144    0.0000 </r>
       <r>   13.4149    0.0000 </r>
       <r>   13.8811    0.0000 </r>
       <r>   14.0031    0.0000 </r>
       <r>   14.5266    0.0000 </r>
      </set>
      <set comment="kpoint 17">
       <r>  -68.6453    1.0000 </r>
       <r>  -68.6447    1.0000 </r>
       <r>  -68.6341    1.0000 </r>
       <r>  -68.6325    1.0000 </r>
       <r>  -68.6131    1.0000 </r>
       <r>  -68.6128    1.0000 </r>
       <r>  -68.5960    1.0000 </r>
       <r>  -68.5954    1.0000 </r>
       <r>  -68.5784    1.0000 </r>
       <r>  -68.5775    1.0000 </r>
       <r>  -68.5613    1.0000 </r>
       <r>  -68.5607    1.0000 </r>
       <r>  -12.3732    1.0000 </r>
       <r>  -11.4733    1.0000 </r>
       <r>  -10.9360    1.0000 </r>
       <r>  -10.6556    1.0000 </r>
       <r>  -10.4180    1.0000 </r>
       <r>  -10.3065    1.0000 </r>
       <r>   -5.8006    1.0000 </r>
       <r>   -4.8366    1.0000 </r>
       <r>   -2.5267    1.0000 </r>
       <r>   -2.2441    1.0000 </r>
       <r>   -1.8702    1.0000 </r>
       <r>   -1.6421    1.0000 </r>
       <r>   -1.5046    1.0000 </r>
       <r>   -1.3092    1.0000 </r>
       <r>   -0.8999    1.0000 </r>
       <r>   -0.5356    1.0000 </r>
       <r>   -0.3813    1.0000 </r>
       <r>   -0.3499    1.0000 </r>
       <r>   -0.2239    1.0000 </r>
       <r>   -0.1769    1.0000 </r>
       <r>   -0.1599    1.0000 </r>
       <r>   -0.0767    1.0000 </r>
       <r>   -0.0280    1.0000 </r>
       <r>    0.0813    1.0000 </r>
       <r>    1.1894    1.0000 </r>
       <r>    1.3630    1.0000 </r>
       <r>    1.3977    1.0000 </r>
       <r>    1.4425    1.0000 </r>
       <r>    1.4631    1.0000 </r>
       <r>    1.5068    1.0000 </r>
       <r>    1.5187    1.0000 </r>
       <r>    1.5853    1.0000 </r>
       <r>    1.7401    1.0000 </r>
       <r>    1.8171    1.0000 </r>
       <r>    2.0388    1.0000 </r>
       <r>    2.2341    1.0000 </r>
       <r>    2.2695    1.0000 </r>
       <r>    2.3629    1.0000 </r>
       <r>    2.4874    1.0000 </r>
       <r>    2.6703    1.0000 </r>
       <r>    3.0521    1.0000 </r>
       <r>    3.4110    1.0000 </r>
       <r>    3.7287    1.0000 </r>
       <r>    3.8649    1.0000 </r>
       <r>    5.9329   -0.0000 </r>
       <r>    6.6137   -0.0000 </r>
       <r>    7.3541    0.0000 </r>
       <r>    7.9430    0.0000 </r>
       <r>    8.0668    0.0000 </r>
       <r>    8.7237    0.0000 </r>
       <r>    8.9051    0.0000 </r>
       <r>    9.1384    0.0000 </r>
       <r>    9.8441    0.0000 </r>
       <r>   10.3300    0.0000 </r>
       <r>   10.5558    0.0000 </r>
       <r>   10.9256    0.0000 </r>
       <r>   11.2246    0.0000 </r>
       <r>   11.4167    0.0000 </r>
       <r>   11.7486    0.0000 </r>
       <r>   12.0024    0.0000 </r>
       <r>   12.4957    0.0000 </r>
       <r>   12.8295    0.0000 </r>
       <r>   13.2053    0.0000 </r>
       <r>   14.1836    0.0000 </r>
       <r>   14.7156    0.0000 </r>
       <r>   15.1477    0.0000 </r>
       <r>   15.9113    0.0000 </r>
       <r>   16.5660    0.0000 </r>
      </set>
      <set comment="kpoint 18">
       <r>  -68.6455    1.0000 </r>
       <r>  -68.6449    1.0000 </r>
       <r>  -68.6342    1.0000 </r>
       <r>  -68.6325    1.0000 </r>
       <r>  -68.6133    1.0000 </r>
       <r>  -68.6127    1.0000 </r>
       <r>  -68.5961    1.0000 </r>
       <r>  -68.5956    1.0000 </r>
       <r>  -68.5785    1.0000 </r>
       <r>  -68.5775    1.0000 </r>
       <r>  -68.5615    1.0000 </r>
       <r>  -68.5608    1.0000 </r>
       <r>  -12.4996    1.0000 </r>
       <r>  -11.4253    1.0000 </r>
       <r>  -10.9472    1.0000 </r>
       <r>  -10.5831    1.0000 </r>
       <r>  -10.3742    1.0000 </r>
       <r>  -10.2094    1.0000 </r>
       <r>   -5.8287    1.0000 </r>
       <r>   -4.9403    1.0000 </r>
       <r>   -2.5720    1.0000 </r>
       <r>   -2.3665    1.0000 </r>
       <r>   -1.9169    1.0000 </r>
       <r>   -1.5937    1.0000 </r>
       <r>   -1.4145    1.0000 </r>
       <r>   -1.1212    1.0000 </r>
       <r>   -0.8177    1.0000 </r>
       <r>   -0.6759    1.0000 </r>
       <r>   -0.5366    1.0000 </r>
       <r>   -0.4698    1.0000 </r>
       <r>   -0.2519    1.0000 </r>
       <r>   -0.1962    1.0000 </r>
       <r>   -0.1675    1.0000 </r>
       <r>   -0.1187    1.0000 </r>
       <r>   -0.0362    1.0000 </r>
       <r>    0.0589    1.0000 </r>
       <r>    1.2809    1.0000 </r>
       <r>    1.3248    1.0000 </r>
       <r>    1.3449    1.0000 </r>
       <r>    1.4342    1.0000 </r>
       <r>    1.4513    1.0000 </r>
       <r>    1.4684    1.0000 </r>
       <r>    1.4919    1.0000 </r>
       <r>    1.5575    1.0000 </r>
       <r>    1.7268    1.0000 </r>
       <r>    1.8425    1.0000 </r>
       <r>    1.9702    1.0000 </r>
       <r>    2.0982    1.0000 </r>
       <r>    2.3370    1.0000 </r>
       <r>    2.4498    1.0000 </r>
       <r>    2.5397    1.0000 </r>
       <r>    2.8499    1.0000 </r>
       <r>    3.0527    1.0000 </r>
       <r>    3.2631    1.0000 </r>
       <r>    3.6722    1.0000 </r>
       <r>    3.7840    1.0000 </r>
       <r>    6.2618   -0.0000 </r>
       <r>    6.7996   -0.0000 </r>
       <r>    7.8149    0.0000 </r>
       <r>    8.1357    0.0000 </r>
       <r>    8.3379    0.0000 </r>
       <r>    8.9304    0.0000 </r>
       <r>    9.3387    0.0000 </r>
[...]
       <r>   11.7059    0.0000 </r>
       <r>   11.8937    0.0000 </r>
       <r>   12.2990    0.0000 </r>
       <r>   12.6581    0.0000 </r>
       <r>   13.0082    0.0000 </r>
       <r>   13.2299    0.0000 </r>
       <r>   13.6650    0.0000 </r>
       <r>   14.0704    0.0000 </r>
       <r>   14.3935    0.0000 </r>
       <r>   16.5214    0.0000 </r>
      </set>
      <set comment="kpoint 42">
       <r>  -68.6453    1.0000 </r>
       <r>  -68.6450    1.0000 </r>
       <r>  -68.6339    1.0000 </r>
       <r>  -68.6323    1.0000 </r>
       <r>  -68.6131    1.0000 </r>
       <r>  -68.6127    1.0000 </r>
       <r>  -68.5959    1.0000 </r>
       <r>  -68.5953    1.0000 </r>
       <r>  -68.5785    1.0000 </r>
       <r>  -68.5774    1.0000 </r>
       <r>  -68.5614    1.0000 </r>
       <r>  -68.5608    1.0000 </r>
       <r>  -12.1783    1.0000 </r>
       <r>  -11.7055    1.0000 </r>
       <r>  -10.7177    1.0000 </r>
       <r>  -10.6919    1.0000 </r>
       <r>  -10.5892    1.0000 </r>
       <r>  -10.3922    1.0000 </r>
       <r>   -5.4455    1.0000 </r>
       <r>   -5.0715    1.0000 </r>
       <r>   -2.5081    1.0000 </r>
       <r>   -2.3795    1.0000 </r>
       <r>   -1.9642    1.0000 </r>
       <r>   -1.3679    1.0000 </r>
       <r>   -1.3316    1.0000 </r>
       <r>   -1.0555    1.0000 </r>
       <r>   -0.8310    1.0000 </r>
       <r>   -0.7650    1.0000 </r>
       <r>   -0.4233    1.0000 </r>
       <r>   -0.3374    1.0000 </r>
       <r>   -0.2710    1.0000 </r>
       <r>   -0.2097    1.0000 </r>
       <r>   -0.1439    1.0000 </r>
       <r>   -0.1410    1.0000 </r>
       <r>   -0.0125    1.0000 </r>
       <r>    0.0279    1.0000 </r>
       <r>    1.1734    1.0000 </r>
       <r>    1.3711    1.0000 </r>
       <r>    1.3971    1.0000 </r>
       <r>    1.4533    1.0000 </r>
       <r>    1.4539    1.0000 </r>
       <r>    1.4993    1.0000 </r>
       <r>    1.5171    1.0000 </r>
       <r>    1.5499    1.0000 </r>
       <r>    1.7423    1.0000 </r>
       <r>    1.8203    1.0000 </r>
       <r>    1.9744    1.0000 </r>
       <r>    2.2263    1.0000 </r>
       <r>    2.3981    1.0000 </r>
       <r>    2.6103    1.0000 </r>
       <r>    2.6549    1.0000 </r>
       <r>    2.9155    1.0000 </r>
       <r>    3.0701    1.0000 </r>
       <r>    3.1193    1.0000 </r>
       <r>    3.2877    1.0000 </r>
       <r>    3.5812    1.0000 </r>
       <r>    6.2917   -0.0000 </r>
       <r>    6.3794   -0.0000 </r>
       <r>    7.3563    0.0000 </r>
       <r>    7.5242    0.0000 </r>
       <r>    8.3106    0.0000 </r>
       <r>    8.3342    0.0000 </r>
       <r>    9.1051    0.0000 </r>
       <r>    9.3593    0.0000 </r>
       <r>    9.7170    0.0000 </r>
       <r>    9.9490    0.0000 </r>
       <r>   10.5258    0.0000 </r>
       <r>   10.9894    0.0000 </r>
       <r>   11.4222    0.0000 </r>
       <r>   11.5626    0.0000 </r>
       <r>   12.0222    0.0000 </r>
       <r>   12.2845    0.0000 </r>
       <r>   12.4309    0.0000 </r>
       <r>   12.4744    0.0000 </r>
       <r>   13.0373    0.0000 </r>
       <r>   13.1451    0.0000 </r>
       <r>   14.1384    0.0000 </r>
       <r>   14.4401    0.0000 </r>
       <r>   15.1666    0.0000 </r>
       <r>   15.8713    0.0000 </r>
      </set>
     </set>
    </set>
   </array>
  </eigenvalues>
  <separator name="orbital magnetization" >
   <v name="MAGDIPOLOUT">      0.00000000      0.00000000      0.00000000</v>
  </separator>
  <dos>
   <i name="efermi">      4.22144854 </i>
   <total>
    <array>
     <dimension dim="1">gridpoints</dimension>
     <dimension dim="2">spin</dimension>
     <field>energy</field>
     <field>total</field>
     <field>integrated</field>
     <set>
      <set comment="spin 1">
       <r>   -72.8301     0.0000     0.0000 </r>
       <r>   -72.5238     0.0000     0.0000 </r>
       <r>   -72.2174     0.0000     0.0000 </r>
       <r>   -71.9110     0.0000     0.0000 </r>
       <r>   -71.6046     0.0000     0.0000 </r>
       <r>   -71.2982     0.0000     0.0000 </r>
       <r>   -70.9918     0.0000     0.0000 </r>
       <r>   -70.6855     0.0000     0.0000 </r>
       <r>   -70.3791     0.0000     0.0000 </r>
       <r>   -70.0727     0.0000     0.0000 </r>
       <r>   -69.7663     0.0000     0.0000 </r>
       <r>   -69.4599    -0.0000    -0.0000 </r>
       <r>   -69.1536    -0.0000    -0.0000 </r>
       <r>   -68.8472    -0.2151    -0.0659 </r>
       <r>   -68.5408    70.2840    21.4678 </r>
       <r>   -68.2344     8.2653    24.0001 </r>
       <r>   -67.9280    -0.0004    24.0000 </r>
       <r>   -67.6217     0.0000    24.0000 </r>
       <r>   -67.3153     0.0000    24.0000 </r>
       <r>   -67.0089     0.0000    24.0000 </r>
       <r>   -66.7025     0.0000    24.0000 </r>
       <r>   -66.3961     0.0000    24.0000 </r>
       <r>   -66.0898     0.0000    24.0000 </r>
       <r>   -65.7834     0.0000    24.0000 </r>
       <r>   -65.4770     0.0000    24.0000 </r>
       <r>   -65.1706     0.0000    24.0000 </r>
       <r>   -64.8642     0.0000    24.0000 </r>
       <r>   -64.5578     0.0000    24.0000 </r>
       <r>   -64.2515     0.0000    24.0000 </r>
       <r>   -63.9451     0.0000    24.0000 </r>
       <r>   -63.6387     0.0000    24.0000 </r>
       <r>   -63.3323     0.0000    24.0000 </r>
       <r>   -63.0259     0.0000    24.0000 </r>
       <r>   -62.7196     0.0000    24.0000 </r>
       <r>   -62.4132     0.0000    24.0000 </r>
       <r>   -62.1068     0.0000    24.0000 </r>
       <r>   -61.8004     0.0000    24.0000 </r>
       <r>   -61.4940     0.0000    24.0000 </r>
       <r>   -61.1877     0.0000    24.0000 </r>
       <r>   -60.8813     0.0000    24.0000 </r>
       <r>   -60.5749     0.0000    24.0000 </r>
       <r>   -60.2685     0.0000    24.0000 </r>
       <r>   -59.9621     0.0000    24.0000 </r>
       <r>   -59.6557     0.0000    24.0000 </r>
       <r>   -59.3494     0.0000    24.0000 </r>
       <r>   -59.0430     0.0000    24.0000 </r>
       <r>   -58.7366     0.0000    24.0000 </r>
       <r>   -58.4302     0.0000    24.0000 </r>
       <r>   -58.1238     0.0000    24.0000 </r>
       <r>   -57.8175     0.0000    24.0000 </r>
       <r>   -57.5111     0.0000    24.0000 </r>
       <r>   -57.2047     0.0000    24.0000 </r>
       <r>   -56.8983     0.0000    24.0000 </r>
       <r>   -56.5919     0.0000    24.0000 </r>
       <r>   -56.2856     0.0000    24.0000 </r>
       <r>   -55.9792     0.0000    24.0000 </r>
       <r>   -55.6728     0.0000    24.0000 </r>
       <r>   -55.3664     0.0000    24.0000 </r>
       <r>   -55.0600     0.0000    24.0000 </r>
       <r>   -54.7537     0.0000    24.0000 </r>
       <r>   -54.4473     0.0000    24.0000 </r>
       <r>   -54.1409     0.0000    24.0000 </r>
       <r>   -53.8345     0.0000    24.0000 </r>
       <r>   -53.5281     0.0000    24.0000 </r>
       <r>   -53.2217     0.0000    24.0000 </r>
       <r>   -52.9154     0.0000    24.0000 </r>
       <r>   -52.6090     0.0000    24.0000 </r>
       <r>   -52.3026     0.0000    24.0000 </r>
       <r>   -51.9962     0.0000    24.0000 </r>
       <r>   -51.6898     0.0000    24.0000 </r>
       <r>   -51.3835     0.0000    24.0000 </r>
       <r>   -51.0771     0.0000    24.0000 </r>
       <r>   -50.7707     0.0000    24.0000 </r>
       <r>   -50.4643     0.0000    24.0000 </r>
       <r>   -50.1579     0.0000    24.0000 </r>
       <r>   -49.8516     0.0000    24.0000 </r>
       <r>   -49.5452     0.0000    24.0000 </r>
       <r>   -49.2388     0.0000    24.0000 </r>
       <r>   -48.9324     0.0000    24.0000 </r>
       <r>   -48.6260     0.0000    24.0000 </r>
       <r>   -48.3197     0.0000    24.0000 </r>
       <r>   -48.0133     0.0000    24.0000 </r>
       <r>   -47.7069     0.0000    24.0000 </r>
       <r>   -47.4005     0.0000    24.0000 </r>
       <r>   -47.0941     0.0000    24.0000 </r>
       <r>   -46.7877     0.0000    24.0000 </r>
       <r>   -46.4814     0.0000    24.0000 </r>
       <r>   -46.1750     0.0000    24.0000 </r>
       <r>   -45.8686     0.0000    24.0000 </r>
       <r>   -45.5622     0.0000    24.0000 </r>
       <r>   -45.2558     0.0000    24.0000 </r>
       <r>   -44.9495     0.0000    24.0000 </r>
       <r>   -44.6431     0.0000    24.0000 </r>
       <r>   -44.3367     0.0000    24.0000 </r>
       <r>   -44.0303     0.0000    24.0000 </r>
       <r>   -43.7239     0.0000    24.0000 </r>
       <r>   -43.4176     0.0000    24.0000 </r>
       <r>   -43.1112     0.0000    24.0000 </r>
       <r>   -42.8048     0.0000    24.0000 </r>
       <r>   -42.4984     0.0000    24.0000 </r>
       <r>   -42.1920     0.0000    24.0000 </r>
       <r>   -41.8856     0.0000    24.0000 </r>
       <r>   -41.5793     0.0000    24.0000 </r>
       <r>   -41.2729     0.0000    24.0000 </r>
       <r>   -40.9665     0.0000    24.0000 </r>
       <r>   -40.6601     0.0000    24.0000 </r>
       <r>   -40.3537     0.0000    24.0000 </r>
       <r>   -40.0474     0.0000    24.0000 </r>
       <r>   -39.7410     0.0000    24.0000 </r>
       <r>   -39.4346     0.0000    24.0000 </r>
       <r>   -39.1282     0.0000    24.0000 </r>
       <r>   -38.8218     0.0000    24.0000 </r>
       <r>   -38.5155     0.0000    24.0000 </r>
       <r>   -38.2091     0.0000    24.0000 </r>
       <r>   -37.9027     0.0000    24.0000 </r>
       <r>   -37.5963     0.0000    24.0000 </r>
       <r>   -37.2899     0.0000    24.0000 </r>
       <r>   -36.9836     0.0000    24.0000 </r>
       <r>   -36.6772     0.0000    24.0000 </r>
       <r>   -36.3708     0.0000    24.0000 </r>
       <r>   -36.0644     0.0000    24.0000 </r>
       <r>   -35.7580     0.0000    24.0000 </r>
       <r>   -35.4516     0.0000    24.0000 </r>
       <r>   -35.1453     0.0000    24.0000 </r>
       <r>   -34.8389     0.0000    24.0000 </r>
       <r>   -34.5325     0.0000    24.0000 </r>
       <r>   -34.2261     0.0000    24.0000 </r>
       <r>   -33.9197     0.0000    24.0000 </r>
       <r>   -33.6134     0.0000    24.0000 </r>
       <r>   -33.3070     0.0000    24.0000 </r>
       <r>   -33.0006     0.0000    24.0000 </r>
       <r>   -32.6942     0.0000    24.0000 </r>
       <r>   -32.3878     0.0000    24.0000 </r>
       <r>   -32.0815     0.0000    24.0000 </r>
       <r>   -31.7751     0.0000    24.0000 </r>
       <r>   -31.4687     0.0000    24.0000 </r>
       <r>   -31.1623     0.0000    24.0000 </r>
       <r>   -30.8559     0.0000    24.0000 </r>
       <r>   -30.5496     0.0000    24.0000 </r>
       <r>   -30.2432     0.0000    24.0000 </r>
       <r>   -29.9368     0.0000    24.0000 </r>
       <r>   -29.6304     0.0000    24.0000 </r>
       <r>   -29.3240     0.0000    24.0000 </r>
       <r>   -29.0176     0.0000    24.0000 </r>
       <r>   -28.7113     0.0000    24.0000 </r>
       <r>   -28.4049     0.0000    24.0000 </r>
       <r>   -28.0985     0.0000    24.0000 </r>
       <r>   -27.7921     0.0000    24.0000 </r>
       <r>   -27.4857     0.0000    24.0000 </r>
       <r>   -27.1794     0.0000    24.0000 </r>
       <r>   -26.8730     0.0000    24.0000 </r>
       <r>   -26.5666     0.0000    24.0000 </r>
       <r>   -26.2602     0.0000    24.0000 </r>
       <r>   -25.9538     0.0000    24.0000 </r>
       <r>   -25.6475     0.0000    24.0000 </r>
       <r>   -25.3411     0.0000    24.0000 </r>
       <r>   -25.0347     0.0000    24.0000 </r>
       <r>   -24.7283     0.0000    24.0000 </r>
       <r>   -24.4219     0.0000    24.0000 </r>
       <r>   -24.1155     0.0000    24.0000 </r>
       <r>   -23.8092     0.0000    24.0000 </r>
       <r>   -23.5028     0.0000    24.0000 </r>
       <r>   -23.1964     0.0000    24.0000 </r>
       <r>   -22.8900     0.0000    24.0000 </r>
       <r>   -22.5836     0.0000    24.0000 </r>
       <r>   -22.2773     0.0000    24.0000 </r>
       <r>   -21.9709     0.0000    24.0000 </r>
       <r>   -21.6645     0.0000    24.0000 </r>
       <r>   -21.3581     0.0000    24.0000 </r>
       <r>   -21.0517     0.0000    24.0000 </r>
       <r>   -20.7454     0.0000    24.0000 </r>
       <r>   -20.4390     0.0000    24.0000 </r>
       <r>   -20.1326     0.0000    24.0000 </r>
       <r>   -19.8262     0.0000    24.0000 </r>
       <r>   -19.5198     0.0000    24.0000 </r>
       <r>   -19.2135     0.0000    24.0000 </r>
       <r>   -18.9071     0.0000    24.0000 </r>
       <r>   -18.6007     0.0000    24.0000 </r>
       <r>   -18.2943     0.0000    24.0000 </r>
       <r>   -17.9879     0.0000    24.0000 </r>
       <r>   -17.6815     0.0000    24.0000 </r>
       <r>   -17.3752     0.0000    24.0000 </r>
       <r>   -17.0688     0.0000    24.0000 </r>
       <r>   -16.7624     0.0000    24.0000 </r>
       <r>   -16.4560     0.0000    24.0000 </r>
       <r>   -16.1496     0.0000    24.0000 </r>
       <r>   -15.8433     0.0000    24.0000 </r>
       <r>   -15.5369     0.0000    24.0000 </r>
       <r>   -15.2305     0.0000    24.0000 </r>
       <r>   -14.9241     0.0000    24.0000 </r>
       <r>   -14.6177     0.0000    24.0000 </r>
       <r>   -14.3114     0.0000    24.0000 </r>
       <r>   -14.0050     0.0000    24.0000 </r>
       <r>   -13.6986    -0.0000    24.0000 </r>
       <r>   -13.3922    -0.0000    24.0000 </r>
       <r>   -13.0858    -0.0000    24.0000 </r>
       <r>   -12.7795    -0.0039    23.9988 </r>
       <r>   -12.4731     1.5424    24.4714 </r>
       <r>   -12.1667     3.5696    25.5650 </r>
       <r>   -11.8603     1.9106    26.1504 </r>
       <r>   -11.5539     2.1500    26.8091 </r>
       <r>   -11.2475     3.1932    27.7875 </r>
       <r>   -10.9412     2.5039    28.5546 </r>
       <r>   -10.6348     9.3740    31.4267 </r>
       <r>   -10.3284     9.3756    34.2992 </r>
       <r>   -10.0220     5.5687    36.0053 </r>
       <r>    -9.7156    -0.0173    36.0000 </r>
       <r>    -9.4093    -0.0000    36.0000 </r>
       <r>    -9.1029     0.0000    36.0000 </r>
       <r>    -8.7965     0.0000    36.0000 </r>
       <r>    -8.4901     0.0000    36.0000 </r>
       <r>    -8.1837     0.0000    36.0000 </r>
       <r>    -7.8774     0.0000    36.0000 </r>
       <r>    -7.5710     0.0000    36.0000 </r>
       <r>    -7.2646     0.0000    36.0000 </r>
       <r>    -6.9582    -0.0000    36.0000 </r>
       <r>    -6.6518    -0.0000    36.0000 </r>
       <r>    -6.3454    -0.0000    36.0000 </r>
       <r>    -6.0391     0.0573    36.0176 </r>
       <r>    -5.7327     3.4927    37.0876 </r>
       <r>    -5.4263     2.0480    37.7151 </r>
       <r>    -5.1199     1.8740    38.2893 </r>
       <r>    -4.8135     3.3051    39.3019 </r>
       <r>    -4.5072     2.2126    39.9798 </r>
       <r>    -4.2008     0.0659    40.0000 </r>
       <r>    -3.8944    -0.0000    40.0000 </r>
       <r>    -3.5880    -0.0000    40.0000 </r>
       <r>    -3.2816    -0.0000    40.0000 </r>
       <r>    -2.9753    -0.0004    39.9999 </r>
       <r>    -2.6689     0.3743    40.1146 </r>
       <r>    -2.3625     6.1459    41.9975 </r>
       <r>    -2.0561     6.6985    44.0498 </r>
       <r>    -1.7497     7.3507    46.3019 </r>
       <r>    -1.4434     6.4137    48.2670 </r>
       <r>    -1.1370     8.7405    50.9449 </r>
       <r>    -0.8306     9.0952    53.7315 </r>
       <r>    -0.5242    11.3598    57.2119 </r>
       <r>    -0.2178    18.1561    62.7746 </r>
       <r>     0.0886    28.9843    71.6548 </r>
       <r>     0.3949     1.1273    72.0002 </r>
       <r>     0.7013    -0.0007    72.0000 </r>
       <r>     1.0077    -0.0202    71.9938 </r>
       <r>     1.3141     7.4202    74.2672 </r>
       <r>     1.6205    44.8317    88.0028 </r>
       <r>     1.9268    13.7962    92.2297 </r>
       <r>     2.2332    13.1752    96.2663 </r>
       <r>     2.5396    12.8588   100.2060 </r>
       <r>     2.8460    11.1598   103.6252 </r>
       <r>     3.1524     9.0730   106.4050 </r>
       <r>     3.4587     7.9078   108.8278 </r>
       <r>     3.7651     6.9361   110.9529 </r>
       <r>     4.0715     3.1724   111.9248 </r>
       <r>     4.3779     0.2460   112.0002 </r>
       <r>     4.6843    -0.0006   112.0000 </r>
       <r>     4.9907    -0.0000   112.0000 </r>
       <r>     5.2970    -0.0001   112.0000 </r>
       <r>     5.6034     0.0770   112.0235 </r>
       <r>     5.9098     0.1667   112.0746 </r>
       <r>     6.2162     2.6351   112.8820 </r>
       <r>     6.5226     4.3713   114.2213 </r>
       <r>     6.8289     3.4463   115.2771 </r>
       <r>     7.1353     2.4264   116.0205 </r>
       <r>     7.4417     1.4366   116.4607 </r>
       <r>     7.7481     3.1771   117.4341 </r>
       <r>     8.0545     5.5577   119.1368 </r>
       <r>     8.3608     5.5514   120.8377 </r>
       <r>     8.6672     4.5997   122.2469 </r>
       <r>     8.9736     4.4683   123.6159 </r>
       <r>     9.2800     5.6134   125.3358 </r>
       <r>     9.5864     5.6875   127.0783 </r>
       <r>     9.8927     4.7705   128.5399 </r>
       <r>    10.1991     4.4680   129.9088 </r>
       <r>    10.5055     6.4999   131.9003 </r>
       <r>    10.8119     8.2811   134.4374 </r>
       <r>    11.1183     8.2480   136.9645 </r>
       <r>    11.4247     7.9841   139.4107 </r>
       <r>    11.7310     7.9030   141.8320 </r>
       <r>    12.0374     6.5719   143.8455 </r>
       <r>    12.3438     5.8697   145.6438 </r>
       <r>    12.6502     6.6443   147.6795 </r>
       <r>    12.9566     5.7977   149.4558 </r>
       <r>    13.2629     6.1829   151.3502 </r>
       <r>    13.5693     5.3558   152.9911 </r>
       <r>    13.8757     4.0651   154.2366 </r>
       <r>    14.1821     3.2073   155.2192 </r>
       <r>    14.4885     4.5682   156.6188 </r>
       <r>    14.7948     3.4635   157.6800 </r>
       <r>    15.1012     1.4166   158.1140 </r>
       <r>    15.4076     1.5943   158.6024 </r>
       <r>    15.7140     1.2158   158.9749 </r>
       <r>    16.0204     1.6879   159.4921 </r>
       <r>    16.3267     0.3317   159.5937 </r>
       <r>    16.6331     0.6855   159.8037 </r>
       <r>    16.9395     0.5176   159.9623 </r>
       <r>    17.2459     0.1230   160.0000 </r>
       <r>    17.5523    -0.0000   160.0000 </r>
       <r>    17.8587     0.0000   160.0000 </r>
       <r>    18.1650     0.0000   160.0000 </r>
       <r>    18.4714     0.0000   160.0000 </r>
       <r>    18.7778     0.0000   160.0000 </r>
       <r>    19.0842     0.0000   160.0000 </r>
      </set>
     </set>
    </array>
   </total>
  </dos>
 </calculation>
 <structure name="finalpos" >
  <crystal>
   <varray name="basis" >
    <v>       3.22479600      -5.64383000       0.03157200 </v>
    <v>       3.22479600       5.64383000       0.03157200 </v>
    <v>      -2.10194600       0.00000000       6.07553700 </v>
   </varray>
   <i name="volume">    221.90106089 </i>
   <varray name="rec_basis" >
    <v>       0.15452516      -0.08859232       0.05346088 </v>
    <v>       0.15452516       0.08859232       0.05346088 </v>
    <v>      -0.00160600       0.00000000       0.16403888 </v>
   </varray>
  </crystal>
  <varray name="positions" >
   <v>       0.61844300       0.12117100       0.11953300 </v>
   <v>       0.12117100       0.61844300       0.61953300 </v>
   <v>       0.96295700       0.79186040       0.11881300 </v>
   <v>       0.79032200       0.96295700       0.61881300 </v>
   <v>       0.43973200       0.26728100       0.59904700 </v>
   <v>       0.26728100       0.43973200       0.09904700 </v>
   <v>       0.07949800       0.91167500       0.49736300 </v>
   <v>       0.57140300       0.41236400       0.98018400 </v>
   <v>       0.73711100       0.25006200       0.49504900 </v>
   <v>       0.41236400       0.57140300       0.48018400 </v>
   <v>       0.91167500       0.07949800       0.99736300 </v>
   <v>       0.25006200       0.73711100       0.99504900 </v>
  </varray>
 </structure>
</modeling>
