       N       E                     dE             d eps       ncg     rms          ort
SDA:   1     0.757087464647E+02    0.75709E+02   -0.21362E+03  3360   0.534E+03 0.000E+00
DMP:   2    -0.822358268134E+01   -0.83932E+02   -0.14729E+03  3360   0.397E+03-0.744E+02
DMP:   3    -0.146275308778E+02   -0.64039E+01   -0.20192E+03  3360   0.683E+03-0.467E+03
DMP:   4    -0.220577588030E+02   -0.74302E+01   -0.10857E+03  3360   0.395E+03-0.323E+03
DMP:   5    -0.607594684309E+02   -0.38702E+02   -0.15161E+02  3360   0.710E+02-0.868E+02
DMP:   6    -0.659102335455E+02   -0.51508E+01   -0.82361E+01  3360   0.248E+02-0.110E+02
DMP:   7    -0.674618469512E+02   -0.15516E+01   -0.41598E+01  3360   0.148E+02-0.115E+02
DMP:   8    -0.690825728631E+02   -0.16207E+01   -0.77507E+00  3360   0.285E+01-0.239E+01
DMP:   9    -0.693939829775E+02   -0.31141E+00   -0.38855E+00  3360   0.111E+01-0.370E+00
DMP:  10    -0.694983251913E+02   -0.10434E+00   -0.15330E+00  3360   0.551E+00-0.439E+00
DMP:  11    -0.695683697313E+02   -0.70045E-01   -0.37152E-01  3360   0.106E+00-0.343E-01
DMP:  12    -0.695808272591E+02   -0.12458E-01   -0.23001E-01  3360   0.694E-01-0.311E-01
DMP:  13    -0.695905484084E+02   -0.97211E-02   -0.51530E-02  3360   0.163E-01-0.884E-02
DMP:  14    -0.695930214338E+02   -0.24730E-02   -0.38047E-02  3360   0.971E-02-0.509E-03
DMP:  15    -0.695945362450E+02   -0.15148E-02   -0.10438E-02  3360   0.335E-02-0.195E-02
DMP:  16    -0.695951105297E+02   -0.57428E-03   -0.41199E-03  3360   0.923E-03 0.281E-03
DMP:  17    -0.695952846773E+02   -0.17415E-03   -0.21010E-03  3360   0.583E-03-0.152E-03
DMP:  18    -0.695954024993E+02   -0.11782E-03   -0.56622E-04  3360   0.120E-03 0.557E-04
DMP:  19    -0.695954316223E+02   -0.29123E-04   -0.35556E-04  3360   0.890E-04-0.160E-06
DMP:  20    -0.695954515399E+02   -0.19918E-04   -0.11665E-04  3360   0.243E-04 0.127E-04
DMP:  21    -0.695954589887E+02   -0.74488E-05   -0.70738E-05  3360   0.142E-04 0.923E-05
   1 F= -.69595459E+02 E0= -.69595655E+02  d E =0.589150E-03
