<?xml version="1.0" encoding="ISO-8859-1"?>
<modeling>
 <generator>
  <i name="program" type="string">vasp </i>
  <i name="version" type="string">5.3.3  </i>
  <i name="subversion" type="string">18Dez12 (build Nov 13 2015 09:58:40) complex                          parallel </i>
  <i name="platform" type="string">LinuxIFC </i>
  <i name="date" type="string">2017 10 18 </i>
  <i name="time" type="string">13:04:00 </i>
 </generator>
 <incar>
  <i type="string" name="SYSTEM"> CGS</i>
  <i type="string" name="PREC">normal</i>
  <i type="string" name="ALGO"> D</i>
  <i type="logical" name="LDIAG"> T  </i>
  <i name="EDIFF">      0.00001000</i>
  <i name="ENCUT">    400.00000000</i>
  <i name="TIME">      0.40000000</i>
  <i type="int" name="ISMEAR">     1</i>
  <i name="SIGMA">      0.10000000</i>
  <i type="logical" name="LHFCALC"> T  </i>
  <i type="string" name="GGA"> PE</i>
  <i name="HFSCREEN">      0.20000000</i>
  <i name="AEXX">      0.25000000</i>
  <i type="string" name="PRECFOCK">fast</i>
 </incar>
 <kpoints>
  <generation param="Gamma">
   <v type="int" name="divisions">       4        4        5 </v>
   <v name="usershift">      0.00000000       0.00000000       0.00000000 </v>
   <v name="genvec1">      0.25000000       0.00000000       0.00000000 </v>
   <v name="genvec2">      0.00000000       0.25000000       0.00000000 </v>
   <v name="genvec3">      0.00000000       0.00000000       0.20000000 </v>
   <v name="shift">      0.00000000       0.00000000       0.00000000 </v>
  </generation>
  <varray name="kpointlist" >
   <v>       0.00000000       0.00000000       0.00000000 </v>
   <v>       0.25000000       0.00000000       0.00000000 </v>
   <v>       0.50000000       0.00000000       0.00000000 </v>
   <v>       0.00000000       0.25000000       0.00000000 </v>
   <v>       0.25000000       0.25000000       0.00000000 </v>
   <v>       0.50000000       0.25000000      -0.00000000 </v>
   <v>      -0.25000000       0.25000000       0.00000000 </v>
   <v>       0.00000000       0.50000000       0.00000000 </v>
   <v>       0.25000000       0.50000000      -0.00000000 </v>
   <v>       0.50000000       0.50000000       0.00000000 </v>
   <v>      -0.00000000      -0.00000000       0.20000000 </v>
   <v>       0.25000000       0.00000000       0.20000000 </v>
   <v>       0.50000000       0.00000000       0.20000000 </v>
   <v>      -0.25000000      -0.00000000       0.20000000 </v>
   <v>       0.00000000       0.25000000       0.20000000 </v>
   <v>       0.25000000       0.25000000       0.20000000 </v>
   <v>       0.50000000       0.25000000       0.20000000 </v>
   <v>      -0.25000000       0.25000000       0.20000000 </v>
   <v>       0.00000000       0.50000000       0.20000000 </v>
   <v>       0.25000000       0.50000000       0.20000000 </v>
   <v>       0.50000000       0.50000000       0.20000000 </v>
   <v>      -0.25000000       0.50000000       0.20000000 </v>
   <v>      -0.00000000      -0.25000000       0.20000000 </v>
   <v>       0.25000000      -0.25000000       0.20000000 </v>
   <v>       0.50000000      -0.25000000       0.20000000 </v>
   <v>      -0.25000000      -0.25000000       0.20000000 </v>
   <v>      -0.00000000      -0.00000000       0.40000000 </v>
   <v>       0.25000000       0.00000000       0.40000000 </v>
   <v>       0.50000000       0.00000000       0.40000000 </v>
   <v>      -0.25000000       0.00000000       0.40000000 </v>
   <v>       0.00000000       0.25000000       0.40000000 </v>
   <v>       0.25000000       0.25000000       0.40000000 </v>
   <v>       0.50000000       0.25000000       0.40000000 </v>
   <v>      -0.25000000       0.25000000       0.40000000 </v>
   <v>       0.00000000       0.50000000       0.40000000 </v>
   <v>       0.25000000       0.50000000       0.40000000 </v>
   <v>       0.50000000       0.50000000       0.40000000 </v>
   <v>      -0.25000000       0.50000000       0.40000000 </v>
   <v>       0.00000000      -0.25000000       0.40000000 </v>
   <v>       0.25000000      -0.25000000       0.40000000 </v>
   <v>       0.50000000      -0.25000000       0.40000000 </v>
   <v>      -0.25000000      -0.25000000       0.40000000 </v>
  </varray>
  <varray name="weights" >
   <v>       0.01250000 </v>
   <v>       0.02500000 </v>
   <v>       0.01250000 </v>
   <v>       0.02500000 </v>
   <v>       0.02500000 </v>
   <v>       0.02500000 </v>
   <v>       0.02500000 </v>
   <v>       0.01250000 </v>
   <v>       0.02500000 </v>
   <v>       0.01250000 </v>
   <v>       0.02500000 </v>
   <v>       0.02500000 </v>
   <v>       0.02500000 </v>
   <v>       0.02500000 </v>
   <v>       0.02500000 </v>
   <v>       0.02500000 </v>
   <v>       0.02500000 </v>
   <v>       0.02500000 </v>
   <v>       0.02500000 </v>
   <v>       0.02500000 </v>
   <v>       0.02500000 </v>
   <v>       0.02500000 </v>
   <v>       0.02500000 </v>
   <v>       0.02500000 </v>
   <v>       0.02500000 </v>
   <v>       0.02500000 </v>
   <v>       0.02500000 </v>
   <v>       0.02500000 </v>
   <v>       0.02500000 </v>
   <v>       0.02500000 </v>
   <v>       0.02500000 </v>
   <v>       0.02500000 </v>
   <v>       0.02500000 </v>
   <v>       0.02500000 </v>
   <v>       0.02500000 </v>
   <v>       0.02500000 </v>
   <v>       0.02500000 </v>
   <v>       0.02500000 </v>
   <v>       0.02500000 </v>
   <v>       0.02500000 </v>
   <v>       0.02500000 </v>
   <v>       0.02500000 </v>
  </varray>
 </kpoints>
 <parameters>
  <separator name="general" >
   <i type="string" name="SYSTEM">CGS</i>
   <i type="logical" name="LCOMPAT"> F  </i>
  </separator>
  <separator name="electronic" >
   <i type="string" name="PREC">normal</i>
   <i name="ENMAX">    400.00000000</i>
   <i name="ENAUG">    758.23300000</i>
   <i name="EDIFF">      0.00001000</i>
   <i type="int" name="IALGO">    53</i>
   <i type="int" name="IWAVPR">    10</i>
   <i type="int" name="NBANDS">    80</i>
   <i name="NELECT">    112.00000000</i>
   <i type="int" name="TURBO">     0</i>
   <i type="int" name="IRESTART">     0</i>
   <i type="int" name="NREBOOT">     0</i>
   <i type="int" name="NMIN">     0</i>
   <i name="EREF">      0.00000000</i>
   <separator name="electronic smearing" >
    <i type="int" name="ISMEAR">     1</i>
    <i name="SIGMA">      0.10000000</i>
    <i name="KSPACING">      0.50000000</i>
    <i type="logical" name="KGAMMA"> T  </i>
   </separator>
   <separator name="electronic projectors" >
    <i type="logical" name="LREAL"> F  </i>
    <v name="ROPT">      0.00000000      0.00000000      0.00000000</v>
    <i type="int" name="LMAXPAW">  -100</i>
    <i type="int" name="LMAXMIX">     2</i>
    <i type="logical" name="NLSPLINE"> F  </i>
   </separator>
   <separator name="electronic startup" >
    <i type="int" name="ISTART">     1</i>
    <i type="int" name="ICHARG">     0</i>
    <i type="int" name="INIWAV">     1</i>
   </separator>
   <separator name="electronic spin" >
    <i type="int" name="ISPIN">     1</i>
    <i type="logical" name="LNONCOLLINEAR"> F  </i>
    <v name="MAGMOM">      1.00000000      1.00000000      1.00000000      1.00000000      1.00000000      1.00000000      1.00000000      1.00000000      1.00000000      1.00000000      1.00000000      1.00000000</v>
    <i name="NUPDOWN">     -1.00000000</i>
    <i type="logical" name="LSORBIT"> F  </i>
    <v name="SAXIS">      0.00000000      0.00000000      1.00000000</v>
    <i type="logical" name="LSPIRAL"> F  </i>
    <v name="QSPIRAL">      0.00000000      0.00000000      0.00000000</v>
    <i type="logical" name="LZEROZ"> F  </i>
   </separator>
   <separator name="electronic exchange-correlation" >
    <i type="logical" name="LASPH"> F  </i>
    <i type="logical" name="LMETAGGA"> F  </i>
   </separator>
   <separator name="electronic convergence" >
    <i type="int" name="NELM">    60</i>
    <i type="int" name="NELMDL">     0</i>
    <i type="int" name="NELMIN">     2</i>
    <i name="ENINI">    400.00000000</i>
    <separator name="electronic convergence detail" >
     <i type="logical" name="LDIAG"> T  </i>
     <i type="logical" name="LSUBROT"> T  </i>
     <i name="WEIMIN">      0.00000000</i>
     <i name="EBREAK">      0.00000003</i>
     <i name="DEPER">      0.30000000</i>
     <i type="int" name="NRMM">     4</i>
     <i name="TIME">      0.40000000</i>
    </separator>
   </separator>
   <separator name="electronic mixer" >
    <i name="AMIX">      0.40000000</i>
    <i name="BMIX">      1.00000000</i>
    <i name="AMIN">      0.10000000</i>
    <i name="AMIX_MAG">      1.60000000</i>
    <i name="BMIX_MAG">      1.00000000</i>
    <separator name="electronic mixer details" >
     <i type="int" name="IMIX">     4</i>
     <i type="int" name="MAXMIX">   -45</i>
     <i name="WC">    100.00000000</i>
     <i type="int" name="INIMIX">     1</i>
     <i type="int" name="MIXPRE">     1</i>
     <i type="int" name="MREMOVE">     5</i>
    </separator>
   </separator>
   <separator name="electronic dipolcorrection" >
    <i type="logical" name="LDIPOL"> F  </i>
    <i type="logical" name="LMONO"> F  </i>
    <i type="int" name="IDIPOL">     0</i>
    <i name="EPSILON">      1.00000000</i>
    <v name="DIPOL">   -100.00000000   -100.00000000   -100.00000000</v>
    <i name="EFIELD">      0.00000000</i>
   </separator>
  </separator>
  <separator name="grids" >
   <i type="int" name="NGX">    32</i>
   <i type="int" name="NGY">    32</i>
   <i type="int" name="NGZ">    32</i>
   <i type="int" name="NGXF">    64</i>
   <i type="int" name="NGYF">    64</i>
   <i type="int" name="NGZF">    64</i>
   <i type="logical" name="ADDGRID"> F  </i>
  </separator>
  <separator name="ionic" >
   <i type="int" name="NSW">     0</i>
   <i type="int" name="IBRION">    -1</i>
   <i type="int" name="ISIF">     0</i>
   <i name="PSTRESS">      0.00000000</i>
   <i name="EDIFFG">      0.00010000</i>
   <i type="int" name="NFREE">     0</i>
   <i name="POTIM">      0.50000000</i>
   <i name="SMASS">     -3.00000000</i>
   <i name="SCALEE">      1.00000000</i>
  </separator>
  <separator name="ionic md" >
   <i name="TEBEG">      0.00010000</i>
   <i name="TEEND">      0.00010000</i>
   <i type="int" name="NBLOCK">     1</i>
   <i type="int" name="KBLOCK">     1</i>
   <i type="int" name="NPACO">   256</i>
   <i name="APACO">     16.00000000</i>
  </separator>
  <separator name="symmetry" >
   <i type="int" name="ISYM">     3</i>
   <i name="SYMPREC">      0.00001000</i>
  </separator>
  <separator name="dos" >
   <i type="logical" name="LORBIT"> F  </i>
   <v name="RWIGS">     -1.00000000     -1.00000000     -1.00000000</v>
   <i type="int" name="NEDOS">   301</i>
   <i name="EMIN">     10.00000000</i>
   <i name="EMAX">    -10.00000000</i>
   <i name="EFERMI">      0.00000000</i>
  </separator>
  <separator name="writing" >
   <i type="int" name="NWRITE">     2</i>
   <i type="logical" name="LWAVE"> T  </i>
   <i type="logical" name="LCHARG"> T  </i>
   <i type="logical" name="LPARD"> F  </i>
   <i type="logical" name="LVTOT"> F  </i>
   <i type="logical" name="LVHAR"> F  </i>
   <i type="logical" name="LELF"> F  </i>
   <i type="logical" name="LOPTICS"> F  </i>
   <v name="STM">      0.00000000      0.00000000      0.00000000      0.00000000      0.00000000      0.00000000      0.00000000</v>
  </separator>
  <separator name="performance" >
   <i type="int" name="NPAR">    16</i>
   <i type="int" name="NSIM">     4</i>
   <i type="int" name="NBLK">    -1</i>
   <i type="logical" name="LPLANE"> T  </i>
   <i type="logical" name="LSCALAPACK"> T  </i>
   <i type="logical" name="LSCAAWARE"> F  </i>
   <i type="logical" name="LSCALU"> F  </i>
   <i type="logical" name="LASYNC"> F  </i>
   <i type="logical" name="LORBITALREAL"> F  </i>
  </separator>
  <separator name="miscellaneous" >
   <i type="int" name="IDIOT">     3</i>
   <i type="logical" name="LMUSIC"> F  </i>
   <v name="POMASS">     63.54600000     72.61000000     32.06600000</v>
   <v name="DARWINR">      0.00000000      0.00000000      0.00000000</v>
   <v name="DARWINV">      1.00000000      1.00000000      1.00000000</v>
   <i type="logical" name="LCORR"> T  </i>
  </separator>
  <i type="logical" name="GGA_COMPAT"> T  </i>
  <i type="logical" name="LBERRY"> F  </i>
  <i type="int" name="ICORELEVEL">     0</i>
  <i type="logical" name="LDAU"> F  </i>
  <i type="int" name="I_CONSTRAINED_M">     0</i>
  <separator name="electronic exchange-correlation" >
   <i type="string" name="GGA">PE</i>
   <i type="int" name="VOSKOWN">     0</i>
   <i type="logical" name="LHFCALC"> T  </i>
   <i type="string" name="PRECFOCK">fast</i>
   <i type="logical" name="LSYMGRAD"> F  </i>
   <i type="logical" name="LHFONE"> F  </i>
   <i type="logical" name="LRHFCALC"> F  </i>
   <i type="logical" name="LTHOMAS"> F  </i>
   <i type="logical" name="LMODELHF"> F  </i>
   <i name="ENCUT4O">     -1.00000000</i>
   <i type="int" name="EXXOEP">     0</i>
   <i type="int" name="FOURORBIT">     0</i>
   <i name="AEXX">      0.25000000</i>
   <i name="HFALPHA">     -1.00000000</i>
   <i name="MCALPHA">      0.00000000</i>
   <i name="ALDAX">      0.75000000</i>
   <i name="AGGAX">      0.75000000</i>
   <i name="ALDAC">      1.00000000</i>
   <i name="AGGAC">      1.00000000</i>
   <i type="int" name="NKREDX">     1</i>
   <i type="int" name="NKREDY">     1</i>
   <i type="int" name="NKREDZ">     1</i>
   <i type="logical" name="SHIFTRED"> F  </i>
   <i type="logical" name="ODDONLY"> F  </i>
   <i type="logical" name="EVENONLY"> F  </i>
   <i type="int" name="LMAXFOCK">     4</i>
   <i type="int" name="NMAXFOCKAE">     1</i>
   <i type="logical" name="LFOCKAEDFT"> F  </i>
   <i name="HFSCREEN">      0.20000000</i>
   <i name="HFSCREENC">      0.20000000</i>
   <i type="int" name="NBANDSGWLOW">     1</i>
  </separator>
  <separator name="vdW DFT" >
   <i type="logical" name="LUSE_VDW"> F  </i>
   <i name="Zab_VDW">     -0.84910000</i>
   <i name="PARAM1">      0.12340000</i>
   <i name="PARAM2">      1.00000000</i>
   <i name="PARAM3">      0.00000000</i>
  </separator>
  <separator name="model GW" >
   <i type="int" name="MODEL_GW">     0</i>
   <i name="MODEL_EPS0">     11.09505304</i>
   <i name="MODEL_ALPHA">      1.00000000</i>
  </separator>
  <separator name="linear response parameters" >
   <i type="logical" name="LEPSILON"> F  </i>
   <i type="logical" name="LRPA"> F  </i>
   <i type="logical" name="LNABLA"> F  </i>
   <i type="logical" name="LVEL"> F  </i>
   <i type="int" name="KINTER">     0</i>
   <i name="CSHIFT">      0.10000000</i>
   <i name="OMEGAMAX">     -1.00000000</i>
   <i name="DEG_THRESHOLD">      0.00200000</i>
  </separator>
  <separator name="orbital magnetization" >
   <i type="logical" name="NUCIND"> F  </i>
   <v name="MAGPOS">      0.00000000      0.00000000      0.00000000</v>
   <i type="logical" name="LNICSALL"> T  </i>
   <i type="logical" name="ORBITALMAG"> F  </i>
   <i type="logical" name="LMAGBLOCH"> F  </i>
   <i type="logical" name="LCHIMAG"> F  </i>
   <i type="logical" name="LGAUGE"> T  </i>
   <i type="int" name="MAGATOM">     0</i>
   <v name="MAGDIPOL">      0.00000000      0.00000000      0.00000000</v>
   <v name="AVECCONST">      0.00000000      0.00000000      0.00000000</v>
  </separator>
  <separator name="response functions" >
   <i type="logical" name="LADDER"> F  </i>
   <i type="logical" name="LFXC"> F  </i>
   <i type="logical" name="LHARTREE"> T  </i>
   <i type="int" name="IBSE">     0</i>
   <i type="logical" name="LTCTE"> F  </i>
   <i type="logical" name="LTETE"> F  </i>
   <i type="logical" name="LTRIPLET"> F  </i>
   <i type="logical" name="LFXCEPS"> F  </i>
   <i type="logical" name="L2ORDER"> F  </i>
   <i type="logical" name="LUSEW"> F  </i>
   <i name="ENCUTGW">     -2.00000000</i>
   <i name="ENCUTGWSOFT">     -2.00000000</i>
   <i name="ENCUTLF">     -1.00000000</i>
   <i type="int" name="LMAXMP2">    -1</i>
   <i name="SCISSOR">      0.00000000</i>
   <i type="int" name="NOMEGA">     0</i>
   <i type="int" name="NOMEGAR">     0</i>
   <i type="int" name="NBANDSGW">    -1</i>
   <i type="int" name="NBANDSO">    -1</i>
   <i type="int" name="NBANDSV">    -1</i>
   <i type="int" name="NELM">     1</i>
   <i type="int" name="DIM">     3</i>
   <i type="int" name="ANTIRES">     0</i>
   <i name="OMEGAMAX">    -30.00000000</i>
   <i name="OMEGATL">   -200.00000000</i>
   <i type="int" name="OMEGAGRID">     0</i>
   <i name="CSHIFT">     -0.10000000</i>
   <i type="logical" name="SELFENERGY"> F  </i>
   <i type="logical" name="LSPECTRAL"> F  </i>
   <i type="logical" name="ODDONLYGW"> F  </i>
   <i type="logical" name="EVENONLYGW"> F  </i>
   <i type="int" name="NKREDLFX">     1</i>
   <i type="int" name="NKREDLFY">     1</i>
   <i type="int" name="NKREDLFZ">     1</i>
   <i type="int" name="MAXMEM">  1800</i>
   <i type="int" name="TELESCOPE">     0</i>
  </separator>
 </parameters>
 <atominfo>
  <atoms>      12 </atoms>
  <types>       3 </types>
  <array name="atoms" >
   <dimension dim="1">ion</dimension>
   <field type="string">element</field>
   <field type="int">atomtype</field>
   <set>
    <rc><c>Cu</c><c>   1</c></rc>
    <rc><c>Cu</c><c>   1</c></rc>
    <rc><c>Cu</c><c>   1</c></rc>
    <rc><c>Cu</c><c>   1</c></rc>
    <rc><c>Ge</c><c>   2</c></rc>
    <rc><c>Ge</c><c>   2</c></rc>
    <rc><c>S </c><c>   3</c></rc>
    <rc><c>S </c><c>   3</c></rc>
    <rc><c>S </c><c>   3</c></rc>
    <rc><c>S </c><c>   3</c></rc>
    <rc><c>S </c><c>   3</c></rc>
    <rc><c>S </c><c>   3</c></rc>
   </set>
  </array>
  <array name="atomtypes" >
   <dimension dim="1">type</dimension>
   <field type="int">atomspertype</field>
   <field type="string">element</field>
   <field>mass</field>
   <field>valence</field>
   <field type="string">pseudopotential</field>
   <set>
    <rc><c>   4</c><c>Cu</c><c>     63.54600000</c><c>     17.00000000</c><c>  PAW_PBE Cu_pv 06Sep2000               </c></rc>
    <rc><c>   2</c><c>Ge</c><c>     72.61000000</c><c>      4.00000000</c><c>  PAW_PBE Ge 05Jan2001                  </c></rc>
    <rc><c>   6</c><c>S </c><c>     32.06600000</c><c>      6.00000000</c><c>  PAW_PBE S 17Jan2003                   </c></rc>
   </set>
  </array>
 </atominfo>
 <structure name="initialpos" >
  <crystal>
   <varray name="basis" >
    <v>       3.22479600      -5.64383000       0.03157200 </v>
    <v>       3.22479600       5.64383000       0.03157200 </v>
    <v>      -2.10194600       0.00000000       6.07553700 </v>
   </varray>
   <i name="volume">    221.90106089 </i>
   <varray name="rec_basis" >
    <v>       0.15452516      -0.08859232       0.05346088 </v>
    <v>       0.15452516       0.08859232       0.05346088 </v>
    <v>      -0.00160600       0.00000000       0.16403888 </v>
   </varray>
  </crystal>
  <varray name="positions" >
   <v>       0.61844300       0.12117100       0.11953300 </v>
   <v>       0.12117100       0.61844300       0.61953300 </v>
   <v>       0.96295700       0.79032200       0.11725752 </v>
   <v>       0.79032200       0.96295700       0.61881300 </v>
   <v>       0.43973200       0.26728100       0.59904700 </v>
   <v>       0.26728100       0.43973200       0.09904700 </v>
   <v>       0.07949800       0.91167500       0.49736300 </v>
   <v>       0.57140300       0.41236400       0.98018400 </v>
   <v>       0.73711100       0.25006200       0.49504900 </v>
   <v>       0.41236400       0.57140300       0.48018400 </v>
   <v>       0.91167500       0.07949800       0.99736300 </v>
   <v>       0.25006200       0.73711100       0.99504900 </v>
  </varray>
 </structure>
 <calculation>
  <scstep>
   <time name="total">  244.85  244.66</time>
   <energy>
    <i name="alphaZ">    339.31929130 </i>
    <i name="ewald">  -9064.57824857 </i>
    <i name="hartreedc">  -8067.03647062 </i>
    <i name="XCdc">    369.89401039 </i>
    <i name="pawpsdc">  16956.77973864 </i>
    <i name="pawaedc"> -17449.51956704 </i>
    <i name="eentropy">     -0.00146749 </i>
    <i name="bandstr">  -1657.57396280 </i>
    <i name="atom">  18320.98302006 </i>
    <i name="e_fr_energy">     75.70874646 </i>
    <i name="e_wo_entrp">     75.71021395 </i>
    <i name="e_0_energy">     75.70923563 </i>
   </energy>
  </scstep>
  <scstep>
   <time name="total">  253.74  253.54</time>
   <energy>
    <i name="e_fr_energy">     -8.22358268 </i>
    <i name="e_wo_entrp">     -8.22294732 </i>
    <i name="e_0_energy">     -8.22337090 </i>
   </energy>
  </scstep>
  <scstep>
   <time name="total">  252.70  252.50</time>
   <energy>
    <i name="e_fr_energy">    -14.62753088 </i>
    <i name="e_wo_entrp">    -14.62778813 </i>
    <i name="e_0_energy">    -14.62761663 </i>
   </energy>
  </scstep>
  <scstep>
   <time name="total">  251.71  251.52</time>
   <energy>
    <i name="e_fr_energy">    -22.05775880 </i>
    <i name="e_wo_entrp">    -22.05814175 </i>
    <i name="e_0_energy">    -22.05788645 </i>
   </energy>
  </scstep>
  <scstep>
   <time name="total">  252.05  251.85</time>
   <energy>
    <i name="e_fr_energy">    -60.75946843 </i>
    <i name="e_wo_entrp">    -60.76010192 </i>
    <i name="e_0_energy">    -60.75967960 </i>
   </energy>
  </scstep>
  <scstep>
   <time name="total">  253.34  253.14</time>
   <energy>
    <i name="e_fr_energy">    -65.91023355 </i>
    <i name="e_wo_entrp">    -65.91095546 </i>
    <i name="e_0_energy">    -65.91047418 </i>
   </energy>
  </scstep>
  <scstep>
   <time name="total">  257.31  257.12</time>
   <energy>
    <i name="e_fr_energy">    -67.46184695 </i>
    <i name="e_wo_entrp">    -67.46231084 </i>
    <i name="e_0_energy">    -67.46200158 </i>
   </energy>
  </scstep>
  <scstep>
   <time name="total">  255.46  255.26</time>
   <energy>
    <i name="e_fr_energy">    -69.08257286 </i>
    <i name="e_wo_entrp">    -69.08332055 </i>
    <i name="e_0_energy">    -69.08282209 </i>
   </energy>
  </scstep>
  <scstep>
   <time name="total">  255.34  255.14</time>
   <energy>
    <i name="e_fr_energy">    -69.39398298 </i>
    <i name="e_wo_entrp">    -69.39487092 </i>
    <i name="e_0_energy">    -69.39427896 </i>
   </energy>
  </scstep>
  <scstep>
   <time name="total">  255.40  255.17</time>
   <energy>
    <i name="e_fr_energy">    -69.49832519 </i>
    <i name="e_wo_entrp">    -69.49907981 </i>
    <i name="e_0_energy">    -69.49857673 </i>
   </energy>
  </scstep>
  <scstep>
   <time name="total">  261.94  261.73</time>
   <energy>
    <i name="e_fr_energy">    -69.56836973 </i>
    <i name="e_wo_entrp">    -69.56899695 </i>
    <i name="e_0_energy">    -69.56857880 </i>
   </energy>
  </scstep>
  <scstep>
   <time name="total">  255.28  255.08</time>
   <energy>
    <i name="e_fr_energy">    -69.58082726 </i>
    <i name="e_wo_entrp">    -69.58139975 </i>
    <i name="e_0_energy">    -69.58101809 </i>
   </energy>
  </scstep>
  <scstep>
   <time name="total">  252.91  252.74</time>
   <energy>
    <i name="e_fr_energy">    -69.59054841 </i>
    <i name="e_wo_entrp">    -69.59111003 </i>
    <i name="e_0_energy">    -69.59073562 </i>
   </energy>
  </scstep>
  <scstep>
   <time name="total">  254.32  254.11</time>
   <energy>
    <i name="e_fr_energy">    -69.59302143 </i>
    <i name="e_wo_entrp">    -69.59360278 </i>
    <i name="e_0_energy">    -69.59321521 </i>
   </energy>
  </scstep>
  <scstep>
   <time name="total">  253.26  253.09</time>
   <energy>
    <i name="e_fr_energy">    -69.59453625 </i>
    <i name="e_wo_entrp">    -69.59513158 </i>
    <i name="e_0_energy">    -69.59473469 </i>
   </energy>
  </scstep>
  <scstep>
   <time name="total">  255.83  255.63</time>
   <energy>
    <i name="e_fr_energy">    -69.59511053 </i>
    <i name="e_wo_entrp">    -69.59570665 </i>
    <i name="e_0_energy">    -69.59530924 </i>
   </energy>
  </scstep>
  <scstep>
   <time name="total">  253.30  253.12</time>
   <energy>
    <i name="e_fr_energy">    -69.59528468 </i>
    <i name="e_wo_entrp">    -69.59587735 </i>
    <i name="e_0_energy">    -69.59548224 </i>
   </energy>
  </scstep>
  <scstep>
   <time name="total">  255.72  255.51</time>
   <energy>
    <i name="e_fr_energy">    -69.59540250 </i>
    <i name="e_wo_entrp">    -69.59599190 </i>
    <i name="e_0_energy">    -69.59559897 </i>
   </energy>
  </scstep>
  <scstep>
   <time name="total">  263.76  263.56</time>
   <energy>
    <i name="e_fr_energy">    -69.59543162 </i>
    <i name="e_wo_entrp">    -69.59601966 </i>
    <i name="e_0_energy">    -69.59562763 </i>
   </energy>
  </scstep>
  <scstep>
   <time name="total">  271.02  270.82</time>
   <energy>
    <i name="e_fr_energy">    -69.59545154 </i>
    <i name="e_wo_entrp">    -69.59604007 </i>
    <i name="e_0_energy">    -69.59564772 </i>
   </energy>
  </scstep>
  <scstep>
   <time name="total">  265.12  264.91</time>
   <energy>
    <i name="alphaZ">    339.31929130 </i>
    <i name="ewald">  -9064.57824857 </i>
    <i name="hartreedc">  -8149.51839405 </i>
    <i name="XCdc">    372.06788749 </i>
    <i name="pawpsdc">  15921.86749456 </i>
    <i name="pawaedc"> -16407.05915083 </i>
    <i name="eentropy">      0.00058915 </i>
    <i name="bandstr">  -1742.74315219 </i>
    <i name="atom">  18320.98302006 </i>
    <i name="e_fr_energy">    -69.59545899 </i>
    <i name="e_wo_entrp">    -69.59604814 </i>
    <i name="e_0_energy">    -69.59565537 </i>
   </energy>
  </scstep>
  <structure>
   <crystal>
    <varray name="basis" >
     <v>       3.22479600      -5.64383000       0.03157200 </v>
     <v>       3.22479600       5.64383000       0.03157200 </v>
     <v>      -2.10194600       0.00000000       6.07553700 </v>
    </varray>
    <i name="volume">    221.90106089 </i>
    <varray name="rec_basis" >
     <v>       0.15452516      -0.08859232       0.05346088 </v>
     <v>       0.15452516       0.08859232       0.05346088 </v>
     <v>      -0.00160600       0.00000000       0.16403888 </v>
    </varray>
   </crystal>
   <varray name="positions" >
    <v>       0.61844300       0.12117100       0.11953300 </v>
    <v>       0.12117100       0.61844300       0.61953300 </v>
    <v>       0.96295700       0.79032200       0.11725752 </v>
    <v>       0.79032200       0.96295700       0.61881300 </v>
    <v>       0.43973200       0.26728100       0.59904700 </v>
    <v>       0.26728100       0.43973200       0.09904700 </v>
    <v>       0.07949800       0.91167500       0.49736300 </v>
    <v>       0.57140300       0.41236400       0.98018400 </v>
    <v>       0.73711100       0.25006200       0.49504900 </v>
    <v>       0.41236400       0.57140300       0.48018400 </v>
    <v>       0.91167500       0.07949800       0.99736300 </v>
    <v>       0.25006200       0.73711100       0.99504900 </v>
   </varray>
  </structure>
  <varray name="forces" >
   <v>      -0.00143232      -0.00084959      -0.00027079 </v>
   <v>      -0.00139905       0.00201630      -0.00327733 </v>
   <v>      -0.01775063       0.00039066       0.05827906 </v>
   <v>       0.00423980      -0.00104599      -0.00244477 </v>
   <v>      -0.00702714       0.00684010      -0.00240985 </v>
   <v>       0.00181473      -0.00903006       0.00242198 </v>
   <v>       0.00955478       0.00098590      -0.03034272 </v>
   <v>       0.00033631      -0.00736722      -0.00292185 </v>
   <v>      -0.00112027       0.00229062      -0.00221225 </v>
   <v>       0.00034623       0.00711274      -0.00037981 </v>
   <v>       0.00561208       0.01062648      -0.00821202 </v>
   <v>       0.00682549      -0.01196994      -0.00822965 </v>
  </varray>
  <energy>
   <i name="e_fr_energy">    -69.59545899 </i>
   <i name="e_wo_entrp">    -69.59565537 </i>
   <i name="e_0_energy">      0.00058915 </i>
  </energy>
  <time name="totalsc"> 5988.12 5987.35</time>
  <eigenvalues>
   <array>
    <dimension dim="1">band</dimension>
    <dimension dim="2">kpoint</dimension>
    <dimension dim="3">spin</dimension>
    <field>eigene</field>
    <field>occ</field>
    <set>
     <set comment="spin 1">
      <set comment="kpoint 1">
       <r>  -68.6464    1.0000 </r>
       <r>  -68.6448    1.0000 </r>
       <r>  -68.6344    1.0000 </r>
       <r>  -68.6328    1.0000 </r>
       <r>  -68.6144    1.0000 </r>
       <r>  -68.6129    1.0000 </r>
       <r>  -68.5971    1.0000 </r>
       <r>  -68.5954    1.0000 </r>
       <r>  -68.5771    1.0000 </r>
       <r>  -68.5761    1.0000 </r>
       <r>  -68.5636    1.0000 </r>
       <r>  -68.5601    1.0000 </r>
       <r>  -12.7212    1.0000 </r>
       <r>  -11.1304    1.0000 </r>
       <r>  -10.9171    1.0000 </r>
       <r>  -10.6031    1.0000 </r>
       <r>  -10.2527    1.0000 </r>
       <r>  -10.2333    1.0000 </r>
       <r>   -5.9852    1.0000 </r>
       <r>   -4.9835    1.0000 </r>
       <r>   -2.7604    1.0000 </r>
       <r>   -2.2098    1.0000 </r>
       <r>   -2.0701    1.0000 </r>
       <r>   -1.9223    1.0000 </r>
       <r>   -1.5765    1.0000 </r>
       <r>   -0.9864    1.0000 </r>
       <r>   -0.9500    1.0000 </r>
       <r>   -0.6810    1.0000 </r>
       <r>   -0.3996    1.0000 </r>
       <r>   -0.2774    1.0000 </r>
       <r>   -0.2628    1.0000 </r>
       <r>   -0.2362    1.0000 </r>
       <r>   -0.1860    1.0000 </r>
       <r>   -0.1584    1.0000 </r>
       <r>   -0.0417    1.0000 </r>
       <r>    0.0333    1.0000 </r>
       <r>    1.3492    1.0000 </r>
       <r>    1.3623    1.0000 </r>
       <r>    1.4133    1.0000 </r>
       <r>    1.4566    1.0000 </r>
       <r>    1.4714    1.0000 </r>
       <r>    1.4734    1.0000 </r>
       <r>    1.5201    1.0000 </r>
       <r>    1.5324    1.0000 </r>
       <r>    1.5741    1.0000 </r>
       <r>    1.7104    1.0000 </r>
       <r>    1.8907    1.0000 </r>
       <r>    1.9262    1.0000 </r>
       <r>    2.0566    1.0000 </r>
       <r>    2.6526    1.0000 </r>
       <r>    2.7301    1.0000 </r>
       <r>    3.0939    1.0000 </r>
       <r>    3.2209    1.0000 </r>
       <r>    4.0060    1.0053 </r>
       <r>    4.0379    1.0143 </r>
       <r>    4.1707    0.8549 </r>
       <r>    5.5382   -0.0000 </r>
       <r>    6.3569   -0.0000 </r>
       <r>    7.6324    0.0000 </r>
       <r>    7.9878    0.0000 </r>
       <r>    8.6161    0.0000 </r>
       <r>    8.7922    0.0000 </r>
       <r>    9.5722    0.0000 </r>
       <r>    9.7394    0.0000 </r>
       <r>    9.8142    0.0000 </r>
       <r>   10.4194    0.0000 </r>
       <r>   10.5824    0.0000 </r>
       <r>   10.6942    0.0000 </r>
       <r>   10.7136    0.0000 </r>
       <r>   11.2840    0.0000 </r>
       <r>   11.7118    0.0000 </r>
       <r>   12.3918    0.0000 </r>
       <r>   12.4507    0.0000 </r>
       <r>   12.7283    0.0000 </r>
       <r>   13.3235    0.0000 </r>
       <r>   13.3847    0.0000 </r>
       <r>   13.8334    0.0000 </r>
       <r>   13.8790    0.0000 </r>
       <r>   14.1467    0.0000 </r>
       <r>   14.1787    0.0000 </r>
      </set>
      <set comment="kpoint 2">
       <r>  -68.6464    1.0000 </r>
       <r>  -68.6448    1.0000 </r>
       <r>  -68.6343    1.0000 </r>
       <r>  -68.6327    1.0000 </r>
       <r>  -68.6143    1.0000 </r>
       <r>  -68.6128    1.0000 </r>
       <r>  -68.5971    1.0000 </r>
       <r>  -68.5954    1.0000 </r>
       <r>  -68.5770    1.0000 </r>
       <r>  -68.5761    1.0000 </r>
       <r>  -68.5636    1.0000 </r>
       <r>  -68.5600    1.0000 </r>
       <r>  -12.5962    1.0000 </r>
       <r>  -11.1293    1.0000 </r>
       <r>  -10.9826    1.0000 </r>
       <r>  -10.6731    1.0000 </r>
       <r>  -10.3677    1.0000 </r>
       <r>  -10.2783    1.0000 </r>
       <r>   -5.9335    1.0000 </r>
       <r>   -4.7734    1.0000 </r>
       <r>   -2.6464    1.0000 </r>
       <r>   -2.2515    1.0000 </r>
       <r>   -2.0881    1.0000 </r>
       <r>   -1.6896    1.0000 </r>
       <r>   -1.3438    1.0000 </r>
       <r>   -0.9984    1.0000 </r>
       <r>   -0.7654    1.0000 </r>
       <r>   -0.6216    1.0000 </r>
       <r>   -0.5540    1.0000 </r>
       <r>   -0.4418    1.0000 </r>
       <r>   -0.3580    1.0000 </r>
       <r>   -0.2431    1.0000 </r>
       <r>   -0.1926    1.0000 </r>
       <r>   -0.1725    1.0000 </r>
       <r>   -0.0469    1.0000 </r>
       <r>    0.0408    1.0000 </r>
       <r>    1.2782    1.0000 </r>
       <r>    1.3361    1.0000 </r>
       <r>    1.3545    1.0000 </r>
       <r>    1.3911    1.0000 </r>
       <r>    1.4270    1.0000 </r>
       <r>    1.4719    1.0000 </r>
       <r>    1.4982    1.0000 </r>
       <r>    1.5307    1.0000 </r>
       <r>    1.7249    1.0000 </r>
       <r>    1.8583    1.0000 </r>
       <r>    2.0560    1.0000 </r>
       <r>    2.0949    1.0000 </r>
       <r>    2.2289    1.0000 </r>
       <r>    2.4140    1.0000 </r>
       <r>    2.5570    1.0000 </r>
       <r>    2.8279    1.0000 </r>
       <r>    2.9487    1.0000 </r>
       <r>    3.2431    1.0000 </r>
       <r>    3.6611    1.0000 </r>
       <r>    4.0392    1.0149 </r>
       <r>    6.1705   -0.0000 </r>
       <r>    6.9061   -0.0000 </r>
       <r>    8.1389    0.0000 </r>
       <r>    8.2679    0.0000 </r>
       <r>    8.5939    0.0000 </r>
       <r>    9.0145    0.0000 </r>
       <r>    9.2417    0.0000 </r>
       <r>    9.5303    0.0000 </r>
       <r>    9.8651    0.0000 </r>
       <r>   10.3757    0.0000 </r>
       <r>   10.6333    0.0000 </r>
       <r>   10.8140    0.0000 </r>
       <r>   10.9401    0.0000 </r>
       <r>   11.1891    0.0000 </r>
       <r>   11.6552    0.0000 </r>
       <r>   11.7721    0.0000 </r>
       <r>   12.1167    0.0000 </r>
       <r>   12.4445    0.0000 </r>
       <r>   12.6179    0.0000 </r>
       <r>   13.0073    0.0000 </r>
       <r>   13.5042    0.0000 </r>
       <r>   13.8762    0.0000 </r>
       <r>   14.2122    0.0000 </r>
       <r>   14.7104    0.0000 </r>
      </set>
      <set comment="kpoint 3">
       <r>  -68.6462    1.0000 </r>
       <r>  -68.6447    1.0000 </r>
       <r>  -68.6343    1.0000 </r>
       <r>  -68.6327    1.0000 </r>
       <r>  -68.6143    1.0000 </r>
       <r>  -68.6128    1.0000 </r>
       <r>  -68.5970    1.0000 </r>
       <r>  -68.5954    1.0000 </r>
       <r>  -68.5770    1.0000 </r>
       <r>  -68.5760    1.0000 </r>
       <r>  -68.5635    1.0000 </r>
       <r>  -68.5599    1.0000 </r>
       <r>  -12.4369    1.0000 </r>
       <r>  -11.2526    1.0000 </r>
       <r>  -10.9566    1.0000 </r>
       <r>  -10.7571    1.0000 </r>
       <r>  -10.4309    1.0000 </r>
       <r>  -10.3593    1.0000 </r>
       <r>   -5.8712    1.0000 </r>
       <r>   -4.5488    1.0000 </r>
       <r>   -2.4961    1.0000 </r>
       <r>   -2.2442    1.0000 </r>
       <r>   -1.9469    1.0000 </r>
       <r>   -1.4619    1.0000 </r>
       <r>   -1.2274    1.0000 </r>
       <r>   -1.0964    1.0000 </r>
       <r>   -0.9046    1.0000 </r>
       <r>   -0.8619    1.0000 </r>
       <r>   -0.5992    1.0000 </r>
       <r>   -0.5393    1.0000 </r>
       <r>   -0.2729    1.0000 </r>
       <r>   -0.2070    1.0000 </r>
       <r>   -0.2000    1.0000 </r>
       <r>   -0.1466    1.0000 </r>
       <r>   -0.0308    1.0000 </r>
       <r>    0.0811    1.0000 </r>
       <r>    1.2540    1.0000 </r>
       <r>    1.3278    1.0000 </r>
       <r>    1.3475    1.0000 </r>
       <r>    1.3965    1.0000 </r>
       <r>    1.4722    1.0000 </r>
       <r>    1.4792    1.0000 </r>
       <r>    1.4996    1.0000 </r>
       <r>    1.5528    1.0000 </r>
       <r>    1.7522    1.0000 </r>
       <r>    1.7922    1.0000 </r>
       <r>    1.9692    1.0000 </r>
       <r>    2.1478    1.0000 </r>
       <r>    2.3210    1.0000 </r>
       <r>    2.3626    1.0000 </r>
       <r>    2.5534    1.0000 </r>
       <r>    2.6702    1.0000 </r>
       <r>    2.9351    1.0000 </r>
       <r>    3.0792    1.0000 </r>
       <r>    3.2496    1.0000 </r>
       <r>    3.8614    1.0000 </r>
       <r>    6.3852   -0.0000 </r>
       <r>    7.0983    0.0000 </r>
       <r>    7.9810    0.0000 </r>
       <r>    8.2040    0.0000 </r>
       <r>    8.5168    0.0000 </r>
       <r>    8.8206    0.0000 </r>
       <r>    9.3265    0.0000 </r>
       <r>    9.8876    0.0000 </r>
       <r>   10.0109    0.0000 </r>
       <r>   10.5179    0.0000 </r>
       <r>   10.6913    0.0000 </r>
       <r>   10.7931    0.0000 </r>
       <r>   11.1408    0.0000 </r>
       <r>   11.4059    0.0000 </r>
       <r>   11.6116    0.0000 </r>
       <r>   11.7773    0.0000 </r>
       <r>   11.9462    0.0000 </r>
       <r>   12.5031    0.0000 </r>
       <r>   12.7802    0.0000 </r>
       <r>   13.0000    0.0000 </r>
       <r>   13.3952    0.0000 </r>
       <r>   13.5422    0.0000 </r>
       <r>   13.9364    0.0000 </r>
       <r>   14.2726    0.0000 </r>
      </set>
      <set comment="kpoint 4">
       <r>  -68.6464    1.0000 </r>
       <r>  -68.6448    1.0000 </r>
       <r>  -68.6343    1.0000 </r>
       <r>  -68.6328    1.0000 </r>
       <r>  -68.6143    1.0000 </r>
       <r>  -68.6128    1.0000 </r>
       <r>  -68.5971    1.0000 </r>
       <r>  -68.5954    1.0000 </r>
       <r>  -68.5770    1.0000 </r>
       <r>  -68.5761    1.0000 </r>
       <r>  -68.5636    1.0000 </r>
       <r>  -68.5600    1.0000 </r>
       <r>  -12.5963    1.0000 </r>
       <r>  -11.1267    1.0000 </r>
       <r>  -10.9830    1.0000 </r>
       <r>  -10.6778    1.0000 </r>
       <r>  -10.3673    1.0000 </r>
       <r>  -10.2760    1.0000 </r>
       <r>   -5.9336    1.0000 </r>
       <r>   -4.7730    1.0000 </r>
       <r>   -2.6455    1.0000 </r>
       <r>   -2.2543    1.0000 </r>
       <r>   -2.0862    1.0000 </r>
       <r>   -1.6879    1.0000 </r>
       <r>   -1.3472    1.0000 </r>
       <r>   -0.9979    1.0000 </r>
       <r>   -0.7683    1.0000 </r>
       <r>   -0.6205    1.0000 </r>
       <r>   -0.5537    1.0000 </r>
       <r>   -0.4384    1.0000 </r>
       <r>   -0.3614    1.0000 </r>
       <r>   -0.2410    1.0000 </r>
       <r>   -0.1961    1.0000 </r>
       <r>   -0.1653    1.0000 </r>
       <r>   -0.0493    1.0000 </r>
       <r>    0.0400    1.0000 </r>
       <r>    1.2791    1.0000 </r>
       <r>    1.3353    1.0000 </r>
       <r>    1.3537    1.0000 </r>
       <r>    1.3921    1.0000 </r>
       <r>    1.4268    1.0000 </r>
       <r>    1.4717    1.0000 </r>
       <r>    1.4977    1.0000 </r>
       <r>    1.5305    1.0000 </r>
       <r>    1.7248    1.0000 </r>
       <r>    1.8598    1.0000 </r>
       <r>    2.0552    1.0000 </r>
       <r>    2.0935    1.0000 </r>
       <r>    2.2304    1.0000 </r>
       <r>    2.4131    1.0000 </r>
       <r>    2.5573    1.0000 </r>
       <r>    2.8272    1.0000 </r>
       <r>    2.9494    1.0000 </r>
       <r>    3.2433    1.0000 </r>
       <r>    3.6611    1.0000 </r>
       <r>    4.0393    1.0149 </r>
       <r>    6.1700   -0.0000 </r>
       <r>    6.9061   -0.0000 </r>
       <r>    8.1378    0.0000 </r>
       <r>    8.2696    0.0000 </r>
       <r>    8.5937    0.0000 </r>
       <r>    9.0134    0.0000 </r>
       <r>    9.2429    0.0000 </r>
       <r>    9.5318    0.0000 </r>
       <r>    9.8637    0.0000 </r>
       <r>   10.3747    0.0000 </r>
       <r>   10.6336    0.0000 </r>
       <r>   10.8124    0.0000 </r>
       <r>   10.9406    0.0000 </r>
       <r>   11.1900    0.0000 </r>
       <r>   11.6570    0.0000 </r>
       <r>   11.7728    0.0000 </r>
       <r>   12.1171    0.0000 </r>
       <r>   12.4440    0.0000 </r>
       <r>   12.6163    0.0000 </r>
       <r>   13.0070    0.0000 </r>
       <r>   13.5173    0.0000 </r>
       <r>   13.8979    0.0000 </r>
       <r>   14.2720    0.0000 </r>
       <r>   14.8392    0.0000 </r>
      </set>
      <set comment="kpoint 5">
       <r>  -68.6464    1.0000 </r>
       <r>  -68.6448    1.0000 </r>
       <r>  -68.6342    1.0000 </r>
       <r>  -68.6326    1.0000 </r>
       <r>  -68.6144    1.0000 </r>
       <r>  -68.6129    1.0000 </r>
       <r>  -68.5970    1.0000 </r>
       <r>  -68.5953    1.0000 </r>
       <r>  -68.5772    1.0000 </r>
       <r>  -68.5762    1.0000 </r>
       <r>  -68.5636    1.0000 </r>
       <r>  -68.5601    1.0000 </r>
       <r>  -12.4409    1.0000 </r>
       <r>  -11.1918    1.0000 </r>
       <r>  -10.9433    1.0000 </r>
       <r>  -10.8762    1.0000 </r>
       <r>  -10.3901    1.0000 </r>
       <r>  -10.3521    1.0000 </r>
       <r>   -5.8764    1.0000 </r>
       <r>   -4.5217    1.0000 </r>
       <r>   -2.4189    1.0000 </r>
       <r>   -2.2467    1.0000 </r>
       <r>   -1.7927    1.0000 </r>
       <r>   -1.6817    1.0000 </r>
       <r>   -1.3568    1.0000 </r>
       <r>   -1.2987    1.0000 </r>
       <r>   -1.0767    1.0000 </r>
       <r>   -0.6806    1.0000 </r>
       <r>   -0.5268    1.0000 </r>
       <r>   -0.2960    1.0000 </r>
       <r>   -0.2818    1.0000 </r>
       <r>   -0.2254    1.0000 </r>
       <r>   -0.1859    1.0000 </r>
       <r>   -0.1284    1.0000 </r>
       <r>   -0.0946    1.0000 </r>
       <r>    0.0808    1.0000 </r>
       <r>    1.2933    1.0000 </r>
       <r>    1.3114    1.0000 </r>
       <r>    1.4156    1.0000 </r>
       <r>    1.4256    1.0000 </r>
       <r>    1.4633    1.0000 </r>
       <r>    1.4821    1.0000 </r>
       <r>    1.4947    1.0000 </r>
       <r>    1.5705    1.0000 </r>
       <r>    1.6712    1.0000 </r>
       <r>    1.8802    1.0000 </r>
       <r>    1.9397    1.0000 </r>
       <r>    2.1351    1.0000 </r>
       <r>    2.2802    1.0000 </r>
       <r>    2.3214    1.0000 </r>
       <r>    2.5599    1.0000 </r>
       <r>    2.6513    1.0000 </r>
       <r>    2.9029    1.0000 </r>
       <r>    2.9453    1.0000 </r>
       <r>    3.6968    1.0000 </r>
       <r>    3.8319    1.0000 </r>
       <r>    6.1713   -0.0000 </r>
       <r>    6.9904    0.0000 </r>
       <r>    8.0042    0.0000 </r>
       <r>    8.3266    0.0000 </r>
       <r>    8.4331    0.0000 </r>
       <r>    8.5710    0.0000 </r>
       <r>    9.1458    0.0000 </r>
       <r>    9.2487    0.0000 </r>
       <r>   10.3607    0.0000 </r>
       <r>   10.4945    0.0000 </r>
       <r>   10.9203    0.0000 </r>
       <r>   11.1855    0.0000 </r>
       <r>   11.3290    0.0000 </r>
       <r>   11.5583    0.0000 </r>
       <r>   11.8165    0.0000 </r>
       <r>   11.9622    0.0000 </r>
       <r>   12.3150    0.0000 </r>
       <r>   12.5028    0.0000 </r>
       <r>   12.7114    0.0000 </r>
       <r>   12.9125    0.0000 </r>
       <r>   13.3392    0.0000 </r>
       <r>   13.4476    0.0000 </r>
       <r>   14.2576    0.0000 </r>
       <r>   14.3668    0.0000 </r>
      </set>
      <set comment="kpoint 6">
       <r>  -68.6461    1.0000 </r>
       <r>  -68.6446    1.0000 </r>
       <r>  -68.6343    1.0000 </r>
       <r>  -68.6327    1.0000 </r>
       <r>  -68.6142    1.0000 </r>
       <r>  -68.6127    1.0000 </r>
       <r>  -68.5970    1.0000 </r>
       <r>  -68.5954    1.0000 </r>
       <r>  -68.5769    1.0000 </r>
       <r>  -68.5760    1.0000 </r>
       <r>  -68.5635    1.0000 </r>
       <r>  -68.5599    1.0000 </r>
       <r>  -12.4410    1.0000 </r>
       <r>  -11.3557    1.0000 </r>
       <r>  -10.9382    1.0000 </r>
       <r>  -10.7344    1.0000 </r>
       <r>  -10.3910    1.0000 </r>
       <r>  -10.2721    1.0000 </r>
       <r>   -5.9479    1.0000 </r>
       <r>   -4.6425    1.0000 </r>
       <r>   -2.3928    1.0000 </r>
       <r>   -2.2262    1.0000 </r>
       <r>   -2.0596    1.0000 </r>
       <r>   -1.6390    1.0000 </r>
       <r>   -1.3607    1.0000 </r>
       <r>   -1.2854    1.0000 </r>
       <r>   -1.0191    1.0000 </r>
       <r>   -0.5148    1.0000 </r>
       <r>   -0.4821    1.0000 </r>
       <r>   -0.3294    1.0000 </r>
       <r>   -0.2794    1.0000 </r>
       <r>   -0.2140    1.0000 </r>
       <r>   -0.1516    1.0000 </r>
       <r>   -0.1360    1.0000 </r>
       <r>   -0.0126    1.0000 </r>
       <r>    0.1134    1.0000 </r>
       <r>    1.2462    1.0000 </r>
       <r>    1.3154    1.0000 </r>
       <r>    1.3827    1.0000 </r>
       <r>    1.4369    1.0000 </r>
       <r>    1.4617    1.0000 </r>
       <r>    1.4915    1.0000 </r>
       <r>    1.4966    1.0000 </r>
       <r>    1.5500    1.0000 </r>
       <r>    1.7480    1.0000 </r>
       <r>    1.8277    1.0000 </r>
       <r>    1.9227    1.0000 </r>
       <r>    2.1363    1.0000 </r>
       <r>    2.2218    1.0000 </r>
       <r>    2.3839    1.0000 </r>
       <r>    2.5592    1.0000 </r>
       <r>    2.7909    1.0000 </r>
       <r>    2.9783    1.0000 </r>
       <r>    3.3115    1.0000 </r>
       <r>    3.6029    1.0000 </r>
       <r>    3.7475    1.0000 </r>
       <r>    6.0878   -0.0000 </r>
       <r>    6.9392   -0.0000 </r>
       <r>    7.6124    0.0000 </r>
       <r>    8.0690    0.0000 </r>
       <r>    8.4098    0.0000 </r>
       <r>    8.6159    0.0000 </r>
       <r>    8.9827    0.0000 </r>
       <r>    9.1523    0.0000 </r>
       <r>   10.0878    0.0000 </r>
       <r>   10.3351    0.0000 </r>
       <r>   10.7337    0.0000 </r>
       <r>   11.1086    0.0000 </r>
       <r>   11.4594    0.0000 </r>
       <r>   11.5988    0.0000 </r>
       <r>   11.7991    0.0000 </r>
       <r>   12.0817    0.0000 </r>
       <r>   12.4769    0.0000 </r>
       <r>   12.9223    0.0000 </r>
       <r>   13.0306    0.0000 </r>
       <r>   13.8330    0.0000 </r>
       <r>   14.2227    0.0000 </r>
       <r>   14.6561    0.0000 </r>
       <r>   15.4255    0.0000 </r>
       <r>   15.6400    0.0000 </r>
      </set>
      <set comment="kpoint 7">
       <r>  -68.6464    1.0000 </r>
       <r>  -68.6448    1.0000 </r>
       <r>  -68.6343    1.0000 </r>
       <r>  -68.6327    1.0000 </r>
       <r>  -68.6142    1.0000 </r>
       <r>  -68.6127    1.0000 </r>
       <r>  -68.5971    1.0000 </r>
       <r>  -68.5954    1.0000 </r>
       <r>  -68.5770    1.0000 </r>
       <r>  -68.5760    1.0000 </r>
       <r>  -68.5636    1.0000 </r>
       <r>  -68.5600    1.0000 </r>
       <r>  -12.5991    1.0000 </r>
       <r>  -11.2522    1.0000 </r>
       <r>  -10.9918    1.0000 </r>
       <r>  -10.5683    1.0000 </r>
       <r>  -10.3691    1.0000 </r>
       <r>  -10.1793    1.0000 </r>
       <r>   -6.0103    1.0000 </r>
       <r>   -4.8946    1.0000 </r>
       <r>   -2.6465    1.0000 </r>
       <r>   -2.3151    1.0000 </r>
       <r>   -1.9736    1.0000 </r>
       <r>   -1.6467    1.0000 </r>
       <r>   -1.4937    1.0000 </r>
       <r>   -1.1842    1.0000 </r>
       <r>   -0.7888    1.0000 </r>
       <r>   -0.5846    1.0000 </r>
       <r>   -0.4475    1.0000 </r>
       <r>   -0.3361    1.0000 </r>
       <r>   -0.2926    1.0000 </r>
       <r>   -0.2320    1.0000 </r>
       <r>   -0.1732    1.0000 </r>
       <r>   -0.1310    1.0000 </r>
       <r>   -0.0091    1.0000 </r>
       <r>    0.0710    1.0000 </r>
       <r>    1.2592    1.0000 </r>
       <r>    1.3210    1.0000 </r>
       <r>    1.3644    1.0000 </r>
       <r>    1.4231    1.0000 </r>
       <r>    1.4301    1.0000 </r>
       <r>    1.4757    1.0000 </r>
       <r>    1.5036    1.0000 </r>
       <r>    1.5425    1.0000 </r>
       <r>    1.7244    1.0000 </r>
       <r>    1.8128    1.0000 </r>
       <r>    1.9943    1.0000 </r>
       <r>    2.0720    1.0000 </r>
       <r>    2.4153    1.0000 </r>
       <r>    2.4641    1.0000 </r>
       <r>    2.5273    1.0000 </r>
       <r>    2.8744    1.0000 </r>
       <r>    3.1402    1.0000 </r>
       <r>    3.2300    1.0000 </r>
       <r>    3.7838    1.0000 </r>
       <r>    4.0681    1.0277 </r>
       <r>    5.9799   -0.0000 </r>
       <r>    6.6897   -0.0000 </r>
       <r>    7.5353    0.0000 </r>
       <r>    8.2226    0.0000 </r>
       <r>    8.6186    0.0000 </r>
       <r>    8.9138    0.0000 </r>
       <r>    9.3070    0.0000 </r>
       <r>    9.4321    0.0000 </r>
       <r>    9.8050    0.0000 </r>
       <r>   10.2708    0.0000 </r>
       <r>   10.5433    0.0000 </r>
       <r>   10.8302    0.0000 </r>
       <r>   10.9714    0.0000 </r>
       <r>   11.3812    0.0000 </r>
       <r>   11.4719    0.0000 </r>
       <r>   11.7314    0.0000 </r>
       <r>   12.1037    0.0000 </r>
       <r>   12.6630    0.0000 </r>
       <r>   12.9415    0.0000 </r>
       <r>   13.1026    0.0000 </r>
       <r>   13.3481    0.0000 </r>
       <r>   13.5195    0.0000 </r>
       <r>   14.4776    0.0000 </r>
       <r>   14.7546    0.0000 </r>
      </set>
      <set comment="kpoint 8">
       <r>  -68.6463    1.0000 </r>
       <r>  -68.6446    1.0000 </r>
       <r>  -68.6342    1.0000 </r>
       <r>  -68.6327    1.0000 </r>
       <r>  -68.6142    1.0000 </r>
       <r>  -68.6128    1.0000 </r>
       <r>  -68.5970    1.0000 </r>
       <r>  -68.5954    1.0000 </r>
       <r>  -68.5770    1.0000 </r>
       <r>  -68.5761    1.0000 </r>
       <r>  -68.5634    1.0000 </r>
       <r>  -68.5599    1.0000 </r>
       <r>  -12.4371    1.0000 </r>
       <r>  -11.2474    1.0000 </r>
       <r>  -10.9570    1.0000 </r>
       <r>  -10.7676    1.0000 </r>
       <r>  -10.4277    1.0000 </r>
       <r>  -10.3565    1.0000 </r>
       <r>   -5.8714    1.0000 </r>
       <r>   -4.5480    1.0000 </r>
       <r>   -2.4940    1.0000 </r>
       <r>   -2.2474    1.0000 </r>
       <r>   -1.9443    1.0000 </r>
       <r>   -1.4642    1.0000 </r>
       <r>   -1.2272    1.0000 </r>
       <r>   -1.1035    1.0000 </r>
       <r>   -0.8998    1.0000 </r>
       <r>   -0.8617    1.0000 </r>
       <r>   -0.6000    1.0000 </r>
       <r>   -0.5364    1.0000 </r>
       <r>   -0.2716    1.0000 </r>
       <r>   -0.2095    1.0000 </r>
       <r>   -0.1991    1.0000 </r>
       <r>   -0.1438    1.0000 </r>
       <r>   -0.0334    1.0000 </r>
       <r>    0.0816    1.0000 </r>
       <r>    1.2545    1.0000 </r>
       <r>    1.3256    1.0000 </r>
       <r>    1.3475    1.0000 </r>
       <r>    1.3984    1.0000 </r>
       <r>    1.4706    1.0000 </r>
       <r>    1.4796    1.0000 </r>
       <r>    1.5003    1.0000 </r>
       <r>    1.5532    1.0000 </r>
       <r>    1.7518    1.0000 </r>
       <r>    1.7917    1.0000 </r>
       <r>    1.9674    1.0000 </r>
       <r>    2.1463    1.0000 </r>
       <r>    2.3223    1.0000 </r>
       <r>    2.3640    1.0000 </r>
       <r>    2.5552    1.0000 </r>
       <r>    2.6710    1.0000 </r>
       <r>    2.9377    1.0000 </r>
       <r>    3.0780    1.0000 </r>
       <r>    3.2452    1.0000 </r>
       <r>    3.8624    1.0000 </r>
       <r>    6.3844   -0.0000 </r>
       <r>    7.0984    0.0000 </r>
       <r>    7.9810    0.0000 </r>
       <r>    8.2020    0.0000 </r>
       <r>    8.5195    0.0000 </r>
       <r>    8.8203    0.0000 </r>
       <r>    9.3285    0.0000 </r>
       <r>    9.8889    0.0000 </r>
       <r>   10.0104    0.0000 </r>
       <r>   10.5173    0.0000 </r>
       <r>   10.6904    0.0000 </r>
       <r>   10.7935    0.0000 </r>
       <r>   11.1411    0.0000 </r>
       <r>   11.4094    0.0000 </r>
       <r>   11.6110    0.0000 </r>
       <r>   11.7698    0.0000 </r>
       <r>   11.9443    0.0000 </r>
       <r>   12.5041    0.0000 </r>
       <r>   12.8271    0.0000 </r>
       <r>   13.0330    0.0000 </r>
       <r>   13.5518    0.0000 </r>
       <r>   13.6865    0.0000 </r>
       <r>   14.5519    0.0000 </r>
       <r>   15.2479    0.0000 </r>
      </set>
      <set comment="kpoint 9">
       <r>  -68.6462    1.0000 </r>
       <r>  -68.6446    1.0000 </r>
       <r>  -68.6342    1.0000 </r>
       <r>  -68.6327    1.0000 </r>
       <r>  -68.6141    1.0000 </r>
       <r>  -68.6128    1.0000 </r>
       <r>  -68.5970    1.0000 </r>
       <r>  -68.5954    1.0000 </r>
       <r>  -68.5769    1.0000 </r>
       <r>  -68.5761    1.0000 </r>
       <r>  -68.5634    1.0000 </r>
       <r>  -68.5600    1.0000 </r>
       <r>  -12.4411    1.0000 </r>
       <r>  -11.3543    1.0000 </r>
       <r>  -10.9380    1.0000 </r>
       <r>  -10.7375    1.0000 </r>
       <r>  -10.3918    1.0000 </r>
       <r>  -10.2697    1.0000 </r>
       <r>   -5.9481    1.0000 </r>
       <r>   -4.6421    1.0000 </r>
       <r>   -2.3913    1.0000 </r>
       <r>   -2.2279    1.0000 </r>
       <r>   -2.0579    1.0000 </r>
       <r>   -1.6405    1.0000 </r>
       <r>   -1.3660    1.0000 </r>
       <r>   -1.2811    1.0000 </r>
       <r>   -1.0199    1.0000 </r>
       <r>   -0.5102    1.0000 </r>
       <r>   -0.4839    1.0000 </r>
       <r>   -0.3306    1.0000 </r>
       <r>   -0.2830    1.0000 </r>
       <r>   -0.2116    1.0000 </r>
       <r>   -0.1496    1.0000 </r>
       <r>   -0.1359    1.0000 </r>
       <r>   -0.0122    1.0000 </r>
       <r>    0.1126    1.0000 </r>
       <r>    1.2470    1.0000 </r>
       <r>    1.3157    1.0000 </r>
       <r>    1.3810    1.0000 </r>
       <r>    1.4372    1.0000 </r>
       <r>    1.4611    1.0000 </r>
       <r>    1.4916    1.0000 </r>
       <r>    1.4971    1.0000 </r>
       <r>    1.5496    1.0000 </r>
       <r>    1.7490    1.0000 </r>
       <r>    1.8290    1.0000 </r>
       <r>    1.9205    1.0000 </r>
       <r>    2.1340    1.0000 </r>
       <r>    2.2213    1.0000 </r>
       <r>    2.3857    1.0000 </r>
       <r>    2.5612    1.0000 </r>
       <r>    2.7900    1.0000 </r>
       <r>    2.9794    1.0000 </r>
       <r>    3.3104    1.0000 </r>
       <r>    3.6021    1.0000 </r>
       <r>    3.7486    1.0000 </r>
       <r>    6.0874   -0.0000 </r>
       <r>    6.9387   -0.0000 </r>
       <r>    7.6123    0.0000 </r>
       <r>    8.0693    0.0000 </r>
       <r>    8.4103    0.0000 </r>
       <r>    8.6154    0.0000 </r>
       <r>    8.9837    0.0000 </r>
       <r>    9.1524    0.0000 </r>
       <r>   10.0878    0.0000 </r>
       <r>   10.3372    0.0000 </r>
       <r>   10.7325    0.0000 </r>
       <r>   11.1078    0.0000 </r>
       <r>   11.4560    0.0000 </r>
       <r>   11.5758    0.0000 </r>
       <r>   11.7854    0.0000 </r>
       <r>   12.0322    0.0000 </r>
       <r>   12.5254    0.0000 </r>
       <r>   12.6776    0.0000 </r>
       <r>   12.9168    0.0000 </r>
       <r>   13.2172    0.0000 </r>
       <r>   14.2295    0.0000 </r>
       <r>   14.7728    0.0000 </r>
       <r>   15.2523    0.0000 </r>
       <r>   15.9084    0.0000 </r>
      </set>
      <set comment="kpoint 10">
       <r>  -68.6460    1.0000 </r>
       <r>  -68.6444    1.0000 </r>
       <r>  -68.6341    1.0000 </r>
       <r>  -68.6325    1.0000 </r>
       <r>  -68.6140    1.0000 </r>
       <r>  -68.6127    1.0000 </r>
       <r>  -68.5968    1.0000 </r>
       <r>  -68.5952    1.0000 </r>
       <r>  -68.5769    1.0000 </r>
       <r>  -68.5759    1.0000 </r>
       <r>  -68.5633    1.0000 </r>
       <r>  -68.5597    1.0000 </r>
       <r>  -12.4327    1.0000 </r>
       <r>  -11.5023    1.0000 </r>
       <r>  -10.9133    1.0000 </r>
       <r>  -10.6155    1.0000 </r>
       <r>  -10.4006    1.0000 </r>
       <r>  -10.1986    1.0000 </r>
       <r>   -6.0264    1.0000 </r>
       <r>   -4.8102    1.0000 </r>
       <r>   -2.3102    1.0000 </r>
       <r>   -2.2665    1.0000 </r>
       <r>   -2.0944    1.0000 </r>
       <r>   -1.7048    1.0000 </r>
       <r>   -1.2478    1.0000 </r>
       <r>   -1.1095    1.0000 </r>
       <r>   -0.8414    1.0000 </r>
       <r>   -0.7812    1.0000 </r>
       <r>   -0.7279    1.0000 </r>
       <r>   -0.2402    1.0000 </r>
       <r>   -0.1999    1.0000 </r>
       <r>   -0.1800    1.0000 </r>
       <r>   -0.1504    1.0000 </r>
       <r>   -0.0405    1.0000 </r>
       <r>   -0.0013    1.0000 </r>
       <r>    0.1840    1.0000 </r>
       <r>    1.2664    1.0000 </r>
       <r>    1.3173    1.0000 </r>
       <r>    1.3753    1.0000 </r>
       <r>    1.4133    1.0000 </r>
       <r>    1.4340    1.0000 </r>
       <r>    1.4922    1.0000 </r>
       <r>    1.5068    1.0000 </r>
       <r>    1.5492    1.0000 </r>
       <r>    1.7865    1.0000 </r>
       <r>    1.8476    1.0000 </r>
       <r>    1.9943    1.0000 </r>
       <r>    2.1517    1.0000 </r>
       <r>    2.2534    1.0000 </r>
       <r>    2.3375    1.0000 </r>
       <r>    2.5594    1.0000 </r>
       <r>    2.7634    1.0000 </r>
       <r>    2.7728    1.0000 </r>
       <r>    3.3653    1.0000 </r>
       <r>    3.7641    1.0000 </r>
       <r>    4.0064    1.0054 </r>
       <r>    5.8546   -0.0000 </r>
       <r>    6.7682   -0.0000 </r>
       <r>    7.0817    0.0000 </r>
       <r>    8.4129    0.0000 </r>
       <r>    8.5613    0.0000 </r>
       <r>    8.7704    0.0000 </r>
       <r>    9.1419    0.0000 </r>
       <r>    9.2423    0.0000 </r>
       <r>    9.9589    0.0000 </r>
       <r>   10.2859    0.0000 </r>
       <r>   10.7261    0.0000 </r>
       <r>   10.8262    0.0000 </r>
       <r>   10.8768    0.0000 </r>
       <r>   11.2732    0.0000 </r>
       <r>   11.7567    0.0000 </r>
       <r>   11.9176    0.0000 </r>
       <r>   11.9692    0.0000 </r>
       <r>   12.3669    0.0000 </r>
       <r>   12.5403    0.0000 </r>
       <r>   13.4545    0.0000 </r>
       <r>   14.2878    0.0000 </r>
       <r>   14.6750    0.0000 </r>
       <r>   16.7443    0.0000 </r>
       <r>   16.7559    0.0000 </r>
      </set>
      <set comment="kpoint 11">
       <r>  -68.6464    1.0000 </r>
       <r>  -68.6448    1.0000 </r>
       <r>  -68.6343    1.0000 </r>
       <r>  -68.6327    1.0000 </r>
       <r>  -68.6143    1.0000 </r>
       <r>  -68.6128    1.0000 </r>
       <r>  -68.5971    1.0000 </r>
       <r>  -68.5954    1.0000 </r>
       <r>  -68.5771    1.0000 </r>
       <r>  -68.5761    1.0000 </r>
       <r>  -68.5636    1.0000 </r>
       <r>  -68.5601    1.0000 </r>
       <r>  -12.6180    1.0000 </r>
       <r>  -11.4259    1.0000 </r>
       <r>  -10.7787    1.0000 </r>
       <r>  -10.6082    1.0000 </r>
       <r>  -10.2518    1.0000 </r>
       <r>  -10.2350    1.0000 </r>
       <r>   -5.8316    1.0000 </r>
       <r>   -5.0471    1.0000 </r>
       <r>   -2.6000    1.0000 </r>
       <r>   -2.3719    1.0000 </r>
       <r>   -1.9613    1.0000 </r>
       <r>   -1.7756    1.0000 </r>
       <r>   -1.4450    1.0000 </r>
       <r>   -1.1256    1.0000 </r>
       <r>   -1.0649    1.0000 </r>
       <r>   -0.7708    1.0000 </r>
       <r>   -0.4680    1.0000 </r>
       <r>   -0.2913    1.0000 </r>
       <r>   -0.2423    1.0000 </r>
       <r>   -0.2340    1.0000 </r>
       <r>   -0.1934    1.0000 </r>
       <r>   -0.1493    1.0000 </r>
       <r>   -0.0181    1.0000 </r>
       <r>    0.0264    1.0000 </r>
       <r>    1.3326    1.0000 </r>
       <r>    1.3817    1.0000 </r>
       <r>    1.4156    1.0000 </r>
       <r>    1.4393    1.0000 </r>
       <r>    1.4642    1.0000 </r>
       <r>    1.4664    1.0000 </r>
       <r>    1.5139    1.0000 </r>
       <r>    1.5455    1.0000 </r>
       <r>    1.6322    1.0000 </r>
       <r>    1.7578    1.0000 </r>
       <r>    1.7862    1.0000 </r>
       <r>    1.9488    1.0000 </r>
       <r>    2.0876    1.0000 </r>
       <r>    2.6604    1.0000 </r>
       <r>    2.7198    1.0000 </r>
       <r>    3.1975    1.0000 </r>
       <r>    3.2564    1.0000 </r>
       <r>    3.5195    1.0000 </r>
       <r>    3.8946    1.0000 </r>
       <r>    3.9777    1.0018 </r>
       <r>    6.0454   -0.0000 </r>
       <r>    6.4151   -0.0000 </r>
       <r>    7.8248    0.0000 </r>
       <r>    7.9088    0.0000 </r>
       <r>    8.3656    0.0000 </r>
       <r>    8.8198    0.0000 </r>
       <r>    9.7759    0.0000 </r>
       <r>    9.7942    0.0000 </r>
       <r>   10.0621    0.0000 </r>
       <r>   10.5850    0.0000 </r>
       <r>   10.6434    0.0000 </r>
       <r>   10.8155    0.0000 </r>
       <r>   10.8552    0.0000 </r>
       <r>   11.4949    0.0000 </r>
       <r>   11.5588    0.0000 </r>
       <r>   12.0274    0.0000 </r>
       <r>   12.5774    0.0000 </r>
       <r>   12.7743    0.0000 </r>
       <r>   12.9135    0.0000 </r>
       <r>   13.2056    0.0000 </r>
       <r>   13.5362    0.0000 </r>
       <r>   13.8279    0.0000 </r>
       <r>   14.1973    0.0000 </r>
       <r>   14.7032    0.0000 </r>
      </set>
      <set comment="kpoint 12">
       <r>  -68.6464    1.0000 </r>
       <r>  -68.6448    1.0000 </r>
       <r>  -68.6343    1.0000 </r>
       <r>  -68.6327    1.0000 </r>
       <r>  -68.6144    1.0000 </r>
       <r>  -68.6129    1.0000 </r>
       <r>  -68.5971    1.0000 </r>
       <r>  -68.5954    1.0000 </r>
       <r>  -68.5771    1.0000 </r>
       <r>  -68.5761    1.0000 </r>
       <r>  -68.5635    1.0000 </r>
       <r>  -68.5600    1.0000 </r>
       <r>  -12.4590    1.0000 </r>
       <r>  -11.4677    1.0000 </r>
       <r>  -10.8646    1.0000 </r>
       <r>  -10.6871    1.0000 </r>
       <r>  -10.3735    1.0000 </r>
       <r>  -10.2465    1.0000 </r>
       <r>   -5.7671    1.0000 </r>
       <r>   -4.8045    1.0000 </r>
       <r>   -2.4452    1.0000 </r>
       <r>   -2.2331    1.0000 </r>
       <r>   -1.8528    1.0000 </r>
       <r>   -1.7137    1.0000 </r>
       <r>   -1.4302    1.0000 </r>
       <r>   -1.1886    1.0000 </r>
       <r>   -0.8867    1.0000 </r>
       <r>   -0.7452    1.0000 </r>
       <r>   -0.6064    1.0000 </r>
       <r>   -0.5232    1.0000 </r>
       <r>   -0.3144    1.0000 </r>
       <r>   -0.2460    1.0000 </r>
       <r>   -0.1745    1.0000 </r>
       <r>   -0.1238    1.0000 </r>
       <r>   -0.0528    1.0000 </r>
       <r>    0.0628    1.0000 </r>
       <r>    1.3014    1.0000 </r>
       <r>    1.3355    1.0000 </r>
       <r>    1.3691    1.0000 </r>
       <r>    1.4320    1.0000 </r>
       <r>    1.4455    1.0000 </r>
       <r>    1.4797    1.0000 </r>
       <r>    1.5215    1.0000 </r>
       <r>    1.5468    1.0000 </r>
       <r>    1.6431    1.0000 </r>
       <r>    1.8715    1.0000 </r>
       <r>    1.9791    1.0000 </r>
       <r>    2.0467    1.0000 </r>
       <r>    2.1957    1.0000 </r>
       <r>    2.4750    1.0000 </r>
       <r>    2.5956    1.0000 </r>
       <r>    2.8395    1.0000 </r>
       <r>    2.9649    1.0000 </r>
       <r>    3.1342    1.0000 </r>
       <r>    3.5670    1.0000 </r>
       <r>    3.7242    1.0000 </r>
       <r>    6.4414   -0.0000 </r>
       <r>    6.9572    0.0000 </r>
       <r>    8.1701    0.0000 </r>
       <r>    8.2459    0.0000 </r>
       <r>    8.8334    0.0000 </r>
       <r>    9.1284    0.0000 </r>
       <r>    9.4657    0.0000 </r>
       <r>    9.7946    0.0000 </r>
       <r>   10.0827    0.0000 </r>
       <r>   10.3000    0.0000 </r>
       <r>   10.7420    0.0000 </r>
       <r>   11.0778    0.0000 </r>
       <r>   11.2913    0.0000 </r>
       <r>   11.4241    0.0000 </r>
       <r>   11.6320    0.0000 </r>
       <r>   11.7261    0.0000 </r>
       <r>   12.0873    0.0000 </r>
       <r>   12.2649    0.0000 </r>
       <r>   12.5412    0.0000 </r>
       <r>   12.6596    0.0000 </r>
       <r>   12.9534    0.0000 </r>
       <r>   13.0584    0.0000 </r>
       <r>   13.6383    0.0000 </r>
       <r>   14.6916    0.0000 </r>
      </set>
      <set comment="kpoint 13">
       <r>  -68.6461    1.0000 </r>
       <r>  -68.6447    1.0000 </r>
       <r>  -68.6342    1.0000 </r>
       <r>  -68.6327    1.0000 </r>
       <r>  -68.6142    1.0000 </r>
       <r>  -68.6127    1.0000 </r>
       <r>  -68.5970    1.0000 </r>
       <r>  -68.5953    1.0000 </r>
       <r>  -68.5769    1.0000 </r>
       <r>  -68.5761    1.0000 </r>
       <r>  -68.5635    1.0000 </r>
       <r>  -68.5600    1.0000 </r>
       <r>  -12.3566    1.0000 </r>
       <r>  -11.4150    1.0000 </r>
       <r>  -10.9535    1.0000 </r>
       <r>  -10.6799    1.0000 </r>
       <r>  -10.4787    1.0000 </r>
       <r>  -10.3372    1.0000 </r>
       <r>   -5.7523    1.0000 </r>
       <r>   -4.7227    1.0000 </r>
       <r>   -2.5233    1.0000 </r>
       <r>   -2.1847    1.0000 </r>
       <r>   -1.9533    1.0000 </r>
       <r>   -1.5338    1.0000 </r>
       <r>   -1.3003    1.0000 </r>
       <r>   -1.0975    1.0000 </r>
       <r>   -0.8703    1.0000 </r>
       <r>   -0.7568    1.0000 </r>
       <r>   -0.5514    1.0000 </r>
       <r>   -0.4441    1.0000 </r>
       <r>   -0.2907    1.0000 </r>
       <r>   -0.1811    1.0000 </r>
       <r>   -0.1456    1.0000 </r>
       <r>   -0.1051    1.0000 </r>
       <r>   -0.0445    1.0000 </r>
       <r>    0.0236    1.0000 </r>
       <r>    1.2735    1.0000 </r>
       <r>    1.2965    1.0000 </r>
       <r>    1.3512    1.0000 </r>
       <r>    1.4296    1.0000 </r>
       <r>    1.4520    1.0000 </r>
       <r>    1.4807    1.0000 </r>
       <r>    1.5012    1.0000 </r>
       <r>    1.5874    1.0000 </r>
       <r>    1.7197    1.0000 </r>
       <r>    1.9320    1.0000 </r>
       <r>    2.0771    1.0000 </r>
       <r>    2.1470    1.0000 </r>
       <r>    2.2674    1.0000 </r>
       <r>    2.4030    1.0000 </r>
       <r>    2.5678    1.0000 </r>
       <r>    2.5973    1.0000 </r>
       <r>    2.8982    1.0000 </r>
       <r>    3.0095    1.0000 </r>
       <r>    3.3572    1.0000 </r>
       <r>    3.8992    1.0000 </r>
       <r>    6.3656   -0.0000 </r>
       <r>    6.8977   -0.0000 </r>
       <r>    7.5742    0.0000 </r>
       <r>    8.0843    0.0000 </r>
       <r>    8.5479    0.0000 </r>
       <r>    8.7977    0.0000 </r>
       <r>    9.2785    0.0000 </r>
       <r>    9.6291    0.0000 </r>
       <r>    9.9299    0.0000 </r>
       <r>   10.2747    0.0000 </r>
       <r>   10.6580    0.0000 </r>
       <r>   10.9282    0.0000 </r>
       <r>   10.9711    0.0000 </r>
       <r>   11.2808    0.0000 </r>
       <r>   11.5193    0.0000 </r>
       <r>   11.7905    0.0000 </r>
       <r>   12.2466    0.0000 </r>
       <r>   12.5413    0.0000 </r>
       <r>   13.1067    0.0000 </r>
       <r>   13.5167    0.0000 </r>
       <r>   14.2999    0.0000 </r>
       <r>   14.6209    0.0000 </r>
       <r>   15.1257    0.0000 </r>
       <r>   16.2705    0.0000 </r>
      </set>
      <set comment="kpoint 14">
       <r>  -68.6464    1.0000 </r>
       <r>  -68.6448    1.0000 </r>
       <r>  -68.6343    1.0000 </r>
       <r>  -68.6327    1.0000 </r>
       <r>  -68.6143    1.0000 </r>
       <r>  -68.6128    1.0000 </r>
       <r>  -68.5971    1.0000 </r>
       <r>  -68.5954    1.0000 </r>
       <r>  -68.5771    1.0000 </r>
       <r>  -68.5761    1.0000 </r>
       <r>  -68.5636    1.0000 </r>
       <r>  -68.5601    1.0000 </r>
       <r>  -12.5416    1.0000 </r>
       <r>  -11.3378    1.0000 </r>
       <r>  -10.8753    1.0000 </r>
       <r>  -10.6033    1.0000 </r>
       <r>  -10.3981    1.0000 </r>
       <r>  -10.2846    1.0000 </r>
       <r>   -5.8251    1.0000 </r>
       <r>   -4.9751    1.0000 </r>
       <r>   -2.6660    1.0000 </r>
       <r>   -2.4519    1.0000 </r>
       <r>   -2.0382    1.0000 </r>
       <r>   -1.5783    1.0000 </r>
       <r>   -1.1694    1.0000 </r>
       <r>   -0.9822    1.0000 </r>
       <r>   -0.7966    1.0000 </r>
       <r>   -0.6563    1.0000 </r>
       <r>   -0.5184    1.0000 </r>
       <r>   -0.3864    1.0000 </r>
       <r>   -0.2710    1.0000 </r>
       <r>   -0.2551    1.0000 </r>
       <r>   -0.1881    1.0000 </r>
       <r>   -0.1454    1.0000 </r>
       <r>   -0.0468    1.0000 </r>
       <r>    0.0151    1.0000 </r>
       <r>    1.2902    1.0000 </r>
       <r>    1.3098    1.0000 </r>
       <r>    1.3889    1.0000 </r>
       <r>    1.4080    1.0000 </r>
       <r>    1.4344    1.0000 </r>
       <r>    1.4552    1.0000 </r>
       <r>    1.4921    1.0000 </r>
       <r>    1.5647    1.0000 </r>
       <r>    1.6879    1.0000 </r>
       <r>    1.9153    1.0000 </r>
       <r>    1.9861    1.0000 </r>
       <r>    2.1440    1.0000 </r>
       <r>    2.3333    1.0000 </r>
       <r>    2.5629    1.0000 </r>
       <r>    2.6188    1.0000 </r>
       <r>    2.8305    1.0000 </r>
       <r>    2.9741    1.0000 </r>
       <r>    3.2475    1.0000 </r>
       <r>    3.6831    1.0000 </r>
       <r>    3.9433    1.0004 </r>
       <r>    6.1798   -0.0000 </r>
       <r>    6.6386   -0.0000 </r>
       <r>    7.7686    0.0000 </r>
       <r>    7.9732    0.0000 </r>
       <r>    8.2139    0.0000 </r>
       <r>    8.5630    0.0000 </r>
       <r>    9.3798    0.0000 </r>
       <r>    9.5782    0.0000 </r>
       <r>    9.9067    0.0000 </r>
       <r>   10.2499    0.0000 </r>
       <r>   10.5438    0.0000 </r>
       <r>   10.7883    0.0000 </r>
       <r>   10.8412    0.0000 </r>
       <r>   11.0689    0.0000 </r>
       <r>   11.5659    0.0000 </r>
       <r>   12.0212    0.0000 </r>
       <r>   12.5263    0.0000 </r>
       <r>   12.7531    0.0000 </r>
       <r>   12.9538    0.0000 </r>
       <r>   13.3066    0.0000 </r>
       <r>   13.4120    0.0000 </r>
       <r>   13.7400    0.0000 </r>
       <r>   13.8487    0.0000 </r>
       <r>   14.7250    0.0000 </r>
      </set>
      <set comment="kpoint 15">
       <r>  -68.6464    1.0000 </r>
       <r>  -68.6448    1.0000 </r>
       <r>  -68.6343    1.0000 </r>
       <r>  -68.6327    1.0000 </r>
       <r>  -68.6144    1.0000 </r>
       <r>  -68.6129    1.0000 </r>
       <r>  -68.5970    1.0000 </r>
       <r>  -68.5954    1.0000 </r>
       <r>  -68.5771    1.0000 </r>
       <r>  -68.5761    1.0000 </r>
       <r>  -68.5636    1.0000 </r>
       <r>  -68.5600    1.0000 </r>
       <r>  -12.4591    1.0000 </r>
       <r>  -11.4666    1.0000 </r>
       <r>  -10.8642    1.0000 </r>
       <r>  -10.6901    1.0000 </r>
       <r>  -10.3736    1.0000 </r>
       <r>  -10.2447    1.0000 </r>
       <r>   -5.7671    1.0000 </r>
       <r>   -4.8044    1.0000 </r>
       <r>   -2.4450    1.0000 </r>
       <r>   -2.2335    1.0000 </r>
       <r>   -1.8497    1.0000 </r>
       <r>   -1.7137    1.0000 </r>
       <r>   -1.4370    1.0000 </r>
       <r>   -1.1835    1.0000 </r>
       <r>   -0.8889    1.0000 </r>
       <r>   -0.7468    1.0000 </r>
       <r>   -0.6056    1.0000 </r>
       <r>   -0.5225    1.0000 </r>
       <r>   -0.3122    1.0000 </r>
       <r>   -0.2457    1.0000 </r>
       <r>   -0.1766    1.0000 </r>
       <r>   -0.1228    1.0000 </r>
       <r>   -0.0533    1.0000 </r>
       <r>    0.0632    1.0000 </r>
       <r>    1.3018    1.0000 </r>
       <r>    1.3362    1.0000 </r>
       <r>    1.3687    1.0000 </r>
       <r>    1.4302    1.0000 </r>
       <r>    1.4464    1.0000 </r>
       <r>    1.4788    1.0000 </r>
       <r>    1.5216    1.0000 </r>
       <r>    1.5470    1.0000 </r>
       <r>    1.6436    1.0000 </r>
       <r>    1.8717    1.0000 </r>
       <r>    1.9799    1.0000 </r>
       <r>    2.0469    1.0000 </r>
       <r>    2.1947    1.0000 </r>
       <r>    2.4745    1.0000 </r>
       <r>    2.5964    1.0000 </r>
       <r>    2.8387    1.0000 </r>
       <r>    2.9641    1.0000 </r>
       <r>    3.1340    1.0000 </r>
       <r>    3.5684    1.0000 </r>
       <r>    3.7243    1.0000 </r>
       <r>    6.4407   -0.0000 </r>
       <r>    6.9573    0.0000 </r>
       <r>    8.1704    0.0000 </r>
       <r>    8.2464    0.0000 </r>
       <r>    8.8340    0.0000 </r>
       <r>    9.1274    0.0000 </r>
       <r>    9.4637    0.0000 </r>
       <r>    9.7966    0.0000 </r>
       <r>   10.0845    0.0000 </r>
       <r>   10.2968    0.0000 </r>
       <r>   10.7412    0.0000 </r>
       <r>   11.0782    0.0000 </r>
       <r>   11.2902    0.0000 </r>
       <r>   11.4264    0.0000 </r>
       <r>   11.6342    0.0000 </r>
       <r>   11.7259    0.0000 </r>
       <r>   12.0861    0.0000 </r>
       <r>   12.2652    0.0000 </r>
       <r>   12.5409    0.0000 </r>
       <r>   12.6563    0.0000 </r>
       <r>   12.9546    0.0000 </r>
       <r>   13.0589    0.0000 </r>
       <r>   13.6561    0.0000 </r>
       <r>   14.6948    0.0000 </r>
      </set>
      <set comment="kpoint 16">
       <r>  -68.6463    1.0000 </r>
       <r>  -68.6447    1.0000 </r>
       <r>  -68.6342    1.0000 </r>
       <r>  -68.6326    1.0000 </r>
       <r>  -68.6142    1.0000 </r>
       <r>  -68.6127    1.0000 </r>
       <r>  -68.5969    1.0000 </r>
       <r>  -68.5953    1.0000 </r>
       <r>  -68.5770    1.0000 </r>
       <r>  -68.5760    1.0000 </r>
       <r>  -68.5635    1.0000 </r>
       <r>  -68.5599    1.0000 </r>
       <r>  -12.3272    1.0000 </r>
       <r>  -11.4756    1.0000 </r>
       <r>  -10.8619    1.0000 </r>
       <r>  -10.8581    1.0000 </r>
       <r>  -10.4057    1.0000 </r>
       <r>  -10.2885    1.0000 </r>
       <r>   -5.7483    1.0000 </r>
       <r>   -4.6920    1.0000 </r>
       <r>   -2.2423    1.0000 </r>
       <r>   -2.1382    1.0000 </r>
       <r>   -1.9290    1.0000 </r>
       <r>   -1.8513    1.0000 </r>
       <r>   -1.4542    1.0000 </r>
       <r>   -1.3940    1.0000 </r>
       <r>   -1.0387    1.0000 </r>
       <r>   -0.5194    1.0000 </r>
       <r>   -0.4606    1.0000 </r>
       <r>   -0.3485    1.0000 </r>
       <r>   -0.2506    1.0000 </r>
       <r>   -0.2185    1.0000 </r>
       <r>   -0.1610    1.0000 </r>
       <r>   -0.1120    1.0000 </r>
       <r>   -0.0929    1.0000 </r>
       <r>    0.0828    1.0000 </r>
       <r>    1.2622    1.0000 </r>
       <r>    1.3480    1.0000 </r>
       <r>    1.3969    1.0000 </r>
       <r>    1.4350    1.0000 </r>
       <r>    1.4526    1.0000 </r>
       <r>    1.5095    1.0000 </r>
       <r>    1.5353    1.0000 </r>
       <r>    1.5427    1.0000 </r>
       <r>    1.7525    1.0000 </r>
       <r>    1.8183    1.0000 </r>
       <r>    2.0409    1.0000 </r>
       <r>    2.1345    1.0000 </r>
       <r>    2.2855    1.0000 </r>
       <r>    2.3117    1.0000 </r>
       <r>    2.5202    1.0000 </r>
       <r>    2.7701    1.0000 </r>
       <r>    2.8990    1.0000 </r>
       <r>    3.2624    1.0000 </r>
       <r>    3.4969    1.0000 </r>
       <r>    3.7983    1.0000 </r>
       <r>    6.1836   -0.0000 </r>
       <r>    6.8411   -0.0000 </r>
       <r>    7.8266    0.0000 </r>
       <r>    8.0452    0.0000 </r>
       <r>    8.1883    0.0000 </r>
       <r>    8.7259    0.0000 </r>
       <r>    9.1538    0.0000 </r>
       <r>    9.3063    0.0000 </r>
       <r>   10.2204    0.0000 </r>
       <r>   10.4417    0.0000 </r>
       <r>   10.5903    0.0000 </r>
       <r>   11.0068    0.0000 </r>
       <r>   11.2382    0.0000 </r>
       <r>   11.4867    0.0000 </r>
       <r>   11.8130    0.0000 </r>
       <r>   12.1718    0.0000 </r>
       <r>   12.2085    0.0000 </r>
       <r>   12.5742    0.0000 </r>
       <r>   12.6949    0.0000 </r>
       <r>   13.1130    0.0000 </r>
       <r>   13.4171    0.0000 </r>
       <r>   13.8824    0.0000 </r>
       <r>   14.0052    0.0000 </r>
       <r>   14.5261    0.0000 </r>
      </set>
      <set comment="kpoint 17">
       <r>  -68.6461    1.0000 </r>
       <r>  -68.6446    1.0000 </r>
       <r>  -68.6342    1.0000 </r>
       <r>  -68.6328    1.0000 </r>
       <r>  -68.6141    1.0000 </r>
       <r>  -68.6129    1.0000 </r>
       <r>  -68.5970    1.0000 </r>
       <r>  -68.5953    1.0000 </r>
       <r>  -68.5769    1.0000 </r>
       <r>  -68.5761    1.0000 </r>
       <r>  -68.5634    1.0000 </r>
       <r>  -68.5599    1.0000 </r>
       <r>  -12.3737    1.0000 </r>
       <r>  -11.4743    1.0000 </r>
       <r>  -10.9382    1.0000 </r>
       <r>  -10.6507    1.0000 </r>
       <r>  -10.4186    1.0000 </r>
       <r>  -10.3068    1.0000 </r>
       <r>   -5.8009    1.0000 </r>
       <r>   -4.8367    1.0000 </r>
       <r>   -2.5278    1.0000 </r>
       <r>   -2.2430    1.0000 </r>
       <r>   -1.8727    1.0000 </r>
       <r>   -1.6437    1.0000 </r>
       <r>   -1.5046    1.0000 </r>
       <r>   -1.3090    1.0000 </r>
       <r>   -0.9001    1.0000 </r>
       <r>   -0.5352    1.0000 </r>
       <r>   -0.3784    1.0000 </r>
       <r>   -0.3485    1.0000 </r>
       <r>   -0.2222    1.0000 </r>
       <r>   -0.1775    1.0000 </r>
       <r>   -0.1624    1.0000 </r>
       <r>   -0.0758    1.0000 </r>
       <r>   -0.0261    1.0000 </r>
       <r>    0.0815    1.0000 </r>
       <r>    1.1902    1.0000 </r>
       <r>    1.3636    1.0000 </r>
       <r>    1.3976    1.0000 </r>
       <r>    1.4415    1.0000 </r>
       <r>    1.4635    1.0000 </r>
       <r>    1.5063    1.0000 </r>
       <r>    1.5185    1.0000 </r>
       <r>    1.5851    1.0000 </r>
       <r>    1.7390    1.0000 </r>
       <r>    1.8179    1.0000 </r>
       <r>    2.0374    1.0000 </r>
       <r>    2.2358    1.0000 </r>
       <r>    2.2693    1.0000 </r>
       <r>    2.3625    1.0000 </r>
       <r>    2.4864    1.0000 </r>
       <r>    2.6714    1.0000 </r>
       <r>    3.0513    1.0000 </r>
       <r>    3.4105    1.0000 </r>
       <r>    3.7269    1.0000 </r>
       <r>    3.8639    1.0000 </r>
       <r>    5.9330   -0.0000 </r>
       <r>    6.6141   -0.0000 </r>
       <r>    7.3547    0.0000 </r>
       <r>    7.9425    0.0000 </r>
       <r>    8.0649    0.0000 </r>
       <r>    8.7251    0.0000 </r>
       <r>    8.9058    0.0000 </r>
       <r>    9.1383    0.0000 </r>
       <r>    9.8443    0.0000 </r>
       <r>   10.3271    0.0000 </r>
       <r>   10.5560    0.0000 </r>
       <r>   10.9274    0.0000 </r>
       <r>   11.2226    0.0000 </r>
       <r>   11.4164    0.0000 </r>
       <r>   11.7507    0.0000 </r>
       <r>   12.0016    0.0000 </r>
       <r>   12.4972    0.0000 </r>
       <r>   12.8320    0.0000 </r>
       <r>   13.2044    0.0000 </r>
       <r>   14.1861    0.0000 </r>
       <r>   14.7142    0.0000 </r>
       <r>   15.1568    0.0000 </r>
       <r>   15.9183    0.0000 </r>
       <r>   16.5646    0.0000 </r>
      </set>
      <set comment="kpoint 18">
       <r>  -68.6464    1.0000 </r>
       <r>  -68.6447    1.0000 </r>
       <r>  -68.6344    1.0000 </r>
       <r>  -68.6328    1.0000 </r>
       <r>  -68.6143    1.0000 </r>
       <r>  -68.6128    1.0000 </r>
       <r>  -68.5971    1.0000 </r>
       <r>  -68.5955    1.0000 </r>
       <r>  -68.5770    1.0000 </r>
       <r>  -68.5761    1.0000 </r>
       <r>  -68.5635    1.0000 </r>
       <r>  -68.5600    1.0000 </r>
       <r>  -12.5001    1.0000 </r>
       <r>  -11.4255    1.0000 </r>
       <r>  -10.9493    1.0000 </r>
       <r>  -10.5796    1.0000 </r>
       <r>  -10.3768    1.0000 </r>
       <r>  -10.2068    1.0000 </r>
       <r>   -5.8289    1.0000 </r>
       <r>   -4.9405    1.0000 </r>
       <r>   -2.5728    1.0000 </r>
       <r>   -2.3648    1.0000 </r>
       <r>   -1.9199    1.0000 </r>
       <r>   -1.5949    1.0000 </r>
       <r>   -1.4144    1.0000 </r>
       <r>   -1.1225    1.0000 </r>
       <r>   -0.8150    1.0000 </r>
       <r>   -0.6746    1.0000 </r>
       <r>   -0.5346    1.0000 </r>
       <r>   -0.4715    1.0000 </r>
       <r>   -0.2557    1.0000 </r>
       <r>   -0.1956    1.0000 </r>
       <r>   -0.1656    1.0000 </r>
       <r>   -0.1176    1.0000 </r>
       <r>   -0.0347    1.0000 </r>
       <r>    0.0587    1.0000 </r>
       <r>    1.2805    1.0000 </r>
       <r>    1.3238    1.0000 </r>
       <r>    1.3448    1.0000 </r>
       <r>    1.4344    1.0000 </r>
       <r>    1.4518    1.0000 </r>
       <r>    1.4679    1.0000 </r>
       <r>    1.4924    1.0000 </r>
       <r>    1.5575    1.0000 </r>
       <r>    1.7269    1.0000 </r>
       <r>    1.8419    1.0000 </r>
       <r>    1.9709    1.0000 </r>
       <r>    2.0985    1.0000 </r>
       <r>    2.3333    1.0000 </r>
       <r>    2.4494    1.0000 </r>
       <r>    2.5414    1.0000 </r>
       <r>    2.8509    1.0000 </r>
       <r>    3.0542    1.0000 </r>
       <r>    3.2635    1.0000 </r>
       <r>    3.6717    1.0000 </r>
       <r>    3.7826    1.0000 </r>
       <r>    6.2618   -0.0000 </r>
       <r>    6.7987   -0.0000 </r>
       <r>    7.8159    0.0000 </r>
       <r>    8.1356    0.0000 </r>
       <r>    8.3374    0.0000 </r>
       <r>    8.9308    0.0000 </r>
       <r>    9.3384    0.0000 </r>
[...]
       <r>   11.7055    0.0000 </r>
       <r>   11.8932    0.0000 </r>
       <r>   12.3004    0.0000 </r>
       <r>   12.6574    0.0000 </r>
       <r>   13.0101    0.0000 </r>
       <r>   13.2296    0.0000 </r>
       <r>   13.6679    0.0000 </r>
       <r>   14.0636    0.0000 </r>
       <r>   14.3938    0.0000 </r>
       <r>   16.5186    0.0000 </r>
      </set>
      <set comment="kpoint 42">
       <r>  -68.6463    1.0000 </r>
       <r>  -68.6447    1.0000 </r>
       <r>  -68.6340    1.0000 </r>
       <r>  -68.6326    1.0000 </r>
       <r>  -68.6141    1.0000 </r>
       <r>  -68.6129    1.0000 </r>
       <r>  -68.5969    1.0000 </r>
       <r>  -68.5952    1.0000 </r>
       <r>  -68.5769    1.0000 </r>
       <r>  -68.5760    1.0000 </r>
       <r>  -68.5635    1.0000 </r>
       <r>  -68.5600    1.0000 </r>
       <r>  -12.1791    1.0000 </r>
       <r>  -11.7062    1.0000 </r>
       <r>  -10.7174    1.0000 </r>
       <r>  -10.6937    1.0000 </r>
       <r>  -10.5858    1.0000 </r>
       <r>  -10.3919    1.0000 </r>
       <r>   -5.4462    1.0000 </r>
       <r>   -5.0722    1.0000 </r>
       <r>   -2.5083    1.0000 </r>
       <r>   -2.3793    1.0000 </r>
       <r>   -1.9645    1.0000 </r>
       <r>   -1.3684    1.0000 </r>
       <r>   -1.3309    1.0000 </r>
       <r>   -1.0547    1.0000 </r>
       <r>   -0.8316    1.0000 </r>
       <r>   -0.7684    1.0000 </r>
       <r>   -0.4201    1.0000 </r>
       <r>   -0.3392    1.0000 </r>
       <r>   -0.2706    1.0000 </r>
       <r>   -0.2093    1.0000 </r>
       <r>   -0.1443    1.0000 </r>
       <r>   -0.1382    1.0000 </r>
       <r>   -0.0128    1.0000 </r>
       <r>    0.0291    1.0000 </r>
       <r>    1.1733    1.0000 </r>
       <r>    1.3712    1.0000 </r>
       <r>    1.3970    1.0000 </r>
       <r>    1.4534    1.0000 </r>
       <r>    1.4541    1.0000 </r>
       <r>    1.4987    1.0000 </r>
       <r>    1.5170    1.0000 </r>
       <r>    1.5493    1.0000 </r>
       <r>    1.7436    1.0000 </r>
       <r>    1.8205    1.0000 </r>
       <r>    1.9744    1.0000 </r>
       <r>    2.2272    1.0000 </r>
       <r>    2.3969    1.0000 </r>
       <r>    2.6119    1.0000 </r>
       <r>    2.6561    1.0000 </r>
       <r>    2.9136    1.0000 </r>
       <r>    3.0696    1.0000 </r>
       <r>    3.1174    1.0000 </r>
       <r>    3.2861    1.0000 </r>
       <r>    3.5810    1.0000 </r>
       <r>    6.2917   -0.0000 </r>
       <r>    6.3804   -0.0000 </r>
       <r>    7.3568    0.0000 </r>
       <r>    7.5254    0.0000 </r>
       <r>    8.3085    0.0000 </r>
       <r>    8.3349    0.0000 </r>
       <r>    9.1054    0.0000 </r>
       <r>    9.3590    0.0000 </r>
       <r>    9.7169    0.0000 </r>
       <r>    9.9468    0.0000 </r>
       <r>   10.5242    0.0000 </r>
       <r>   10.9906    0.0000 </r>
       <r>   11.4255    0.0000 </r>
       <r>   11.5629    0.0000 </r>
       <r>   12.0195    0.0000 </r>
       <r>   12.2850    0.0000 </r>
       <r>   12.4299    0.0000 </r>
       <r>   12.4730    0.0000 </r>
       <r>   13.0343    0.0000 </r>
       <r>   13.1483    0.0000 </r>
       <r>   14.1371    0.0000 </r>
       <r>   14.4399    0.0000 </r>
       <r>   15.1648    0.0000 </r>
       <r>   15.8633    0.0000 </r>
      </set>
     </set>
    </set>
   </array>
  </eigenvalues>
  <separator name="orbital magnetization" >
   <v name="MAGDIPOLOUT">      0.00000000      0.00000000      0.00000000</v>
  </separator>
  <dos>
   <i name="efermi">      4.21802142 </i>
   <total>
    <array>
     <dimension dim="1">gridpoints</dimension>
     <dimension dim="2">spin</dimension>
     <field>energy</field>
     <field>total</field>
     <field>integrated</field>
     <set>
      <set comment="spin 1">
       <r>   -72.8301     0.0000     0.0000 </r>
       <r>   -72.5238     0.0000     0.0000 </r>
       <r>   -72.2174     0.0000     0.0000 </r>
       <r>   -71.9110     0.0000     0.0000 </r>
       <r>   -71.6046     0.0000     0.0000 </r>
       <r>   -71.2982     0.0000     0.0000 </r>
       <r>   -70.9918     0.0000     0.0000 </r>
       <r>   -70.6855     0.0000     0.0000 </r>
       <r>   -70.3791     0.0000     0.0000 </r>
       <r>   -70.0727     0.0000     0.0000 </r>
       <r>   -69.7663     0.0000     0.0000 </r>
       <r>   -69.4599    -0.0000    -0.0000 </r>
       <r>   -69.1536    -0.0000    -0.0000 </r>
       <r>   -68.8472    -0.2174    -0.0666 </r>
       <r>   -68.5408    70.2822    21.4665 </r>
       <r>   -68.2344     8.2694    24.0001 </r>
       <r>   -67.9280    -0.0004    24.0000 </r>
       <r>   -67.6217     0.0000    24.0000 </r>
       <r>   -67.3153     0.0000    24.0000 </r>
       <r>   -67.0089     0.0000    24.0000 </r>
       <r>   -66.7025     0.0000    24.0000 </r>
       <r>   -66.3961     0.0000    24.0000 </r>
       <r>   -66.0898     0.0000    24.0000 </r>
       <r>   -65.7834     0.0000    24.0000 </r>
       <r>   -65.4770     0.0000    24.0000 </r>
       <r>   -65.1706     0.0000    24.0000 </r>
       <r>   -64.8642     0.0000    24.0000 </r>
       <r>   -64.5578     0.0000    24.0000 </r>
       <r>   -64.2515     0.0000    24.0000 </r>
       <r>   -63.9451     0.0000    24.0000 </r>
       <r>   -63.6387     0.0000    24.0000 </r>
       <r>   -63.3323     0.0000    24.0000 </r>
       <r>   -63.0259     0.0000    24.0000 </r>
       <r>   -62.7196     0.0000    24.0000 </r>
       <r>   -62.4132     0.0000    24.0000 </r>
       <r>   -62.1068     0.0000    24.0000 </r>
       <r>   -61.8004     0.0000    24.0000 </r>
       <r>   -61.4940     0.0000    24.0000 </r>
       <r>   -61.1877     0.0000    24.0000 </r>
       <r>   -60.8813     0.0000    24.0000 </r>
       <r>   -60.5749     0.0000    24.0000 </r>
       <r>   -60.2685     0.0000    24.0000 </r>
       <r>   -59.9621     0.0000    24.0000 </r>
       <r>   -59.6557     0.0000    24.0000 </r>
       <r>   -59.3494     0.0000    24.0000 </r>
       <r>   -59.0430     0.0000    24.0000 </r>
       <r>   -58.7366     0.0000    24.0000 </r>
       <r>   -58.4302     0.0000    24.0000 </r>
       <r>   -58.1238     0.0000    24.0000 </r>
       <r>   -57.8175     0.0000    24.0000 </r>
       <r>   -57.5111     0.0000    24.0000 </r>
       <r>   -57.2047     0.0000    24.0000 </r>
       <r>   -56.8983     0.0000    24.0000 </r>
       <r>   -56.5919     0.0000    24.0000 </r>
       <r>   -56.2856     0.0000    24.0000 </r>
       <r>   -55.9792     0.0000    24.0000 </r>
       <r>   -55.6728     0.0000    24.0000 </r>
       <r>   -55.3664     0.0000    24.0000 </r>
       <r>   -55.0600     0.0000    24.0000 </r>
       <r>   -54.7537     0.0000    24.0000 </r>
       <r>   -54.4473     0.0000    24.0000 </r>
       <r>   -54.1409     0.0000    24.0000 </r>
       <r>   -53.8345     0.0000    24.0000 </r>
       <r>   -53.5281     0.0000    24.0000 </r>
       <r>   -53.2217     0.0000    24.0000 </r>
       <r>   -52.9154     0.0000    24.0000 </r>
       <r>   -52.6090     0.0000    24.0000 </r>
       <r>   -52.3026     0.0000    24.0000 </r>
       <r>   -51.9962     0.0000    24.0000 </r>
       <r>   -51.6898     0.0000    24.0000 </r>
       <r>   -51.3835     0.0000    24.0000 </r>
       <r>   -51.0771     0.0000    24.0000 </r>
       <r>   -50.7707     0.0000    24.0000 </r>
       <r>   -50.4643     0.0000    24.0000 </r>
       <r>   -50.1579     0.0000    24.0000 </r>
       <r>   -49.8516     0.0000    24.0000 </r>
       <r>   -49.5452     0.0000    24.0000 </r>
       <r>   -49.2388     0.0000    24.0000 </r>
       <r>   -48.9324     0.0000    24.0000 </r>
       <r>   -48.6260     0.0000    24.0000 </r>
       <r>   -48.3197     0.0000    24.0000 </r>
       <r>   -48.0133     0.0000    24.0000 </r>
       <r>   -47.7069     0.0000    24.0000 </r>
       <r>   -47.4005     0.0000    24.0000 </r>
       <r>   -47.0941     0.0000    24.0000 </r>
       <r>   -46.7877     0.0000    24.0000 </r>
       <r>   -46.4814     0.0000    24.0000 </r>
       <r>   -46.1750     0.0000    24.0000 </r>
       <r>   -45.8686     0.0000    24.0000 </r>
       <r>   -45.5622     0.0000    24.0000 </r>
       <r>   -45.2558     0.0000    24.0000 </r>
       <r>   -44.9495     0.0000    24.0000 </r>
       <r>   -44.6431     0.0000    24.0000 </r>
       <r>   -44.3367     0.0000    24.0000 </r>
       <r>   -44.0303     0.0000    24.0000 </r>
       <r>   -43.7239     0.0000    24.0000 </r>
       <r>   -43.4176     0.0000    24.0000 </r>
       <r>   -43.1112     0.0000    24.0000 </r>
       <r>   -42.8048     0.0000    24.0000 </r>
       <r>   -42.4984     0.0000    24.0000 </r>
       <r>   -42.1920     0.0000    24.0000 </r>
       <r>   -41.8856     0.0000    24.0000 </r>
       <r>   -41.5793     0.0000    24.0000 </r>
       <r>   -41.2729     0.0000    24.0000 </r>
       <r>   -40.9665     0.0000    24.0000 </r>
       <r>   -40.6601     0.0000    24.0000 </r>
       <r>   -40.3537     0.0000    24.0000 </r>
       <r>   -40.0474     0.0000    24.0000 </r>
       <r>   -39.7410     0.0000    24.0000 </r>
       <r>   -39.4346     0.0000    24.0000 </r>
       <r>   -39.1282     0.0000    24.0000 </r>
       <r>   -38.8218     0.0000    24.0000 </r>
       <r>   -38.5155     0.0000    24.0000 </r>
       <r>   -38.2091     0.0000    24.0000 </r>
       <r>   -37.9027     0.0000    24.0000 </r>
       <r>   -37.5963     0.0000    24.0000 </r>
       <r>   -37.2899     0.0000    24.0000 </r>
       <r>   -36.9836     0.0000    24.0000 </r>
       <r>   -36.6772     0.0000    24.0000 </r>
       <r>   -36.3708     0.0000    24.0000 </r>
       <r>   -36.0644     0.0000    24.0000 </r>
       <r>   -35.7580     0.0000    24.0000 </r>
       <r>   -35.4516     0.0000    24.0000 </r>
       <r>   -35.1453     0.0000    24.0000 </r>
       <r>   -34.8389     0.0000    24.0000 </r>
       <r>   -34.5325     0.0000    24.0000 </r>
       <r>   -34.2261     0.0000    24.0000 </r>
       <r>   -33.9197     0.0000    24.0000 </r>
       <r>   -33.6134     0.0000    24.0000 </r>
       <r>   -33.3070     0.0000    24.0000 </r>
       <r>   -33.0006     0.0000    24.0000 </r>
       <r>   -32.6942     0.0000    24.0000 </r>
       <r>   -32.3878     0.0000    24.0000 </r>
       <r>   -32.0815     0.0000    24.0000 </r>
       <r>   -31.7751     0.0000    24.0000 </r>
       <r>   -31.4687     0.0000    24.0000 </r>
       <r>   -31.1623     0.0000    24.0000 </r>
       <r>   -30.8559     0.0000    24.0000 </r>
       <r>   -30.5496     0.0000    24.0000 </r>
       <r>   -30.2432     0.0000    24.0000 </r>
       <r>   -29.9368     0.0000    24.0000 </r>
       <r>   -29.6304     0.0000    24.0000 </r>
       <r>   -29.3240     0.0000    24.0000 </r>
       <r>   -29.0176     0.0000    24.0000 </r>
       <r>   -28.7113     0.0000    24.0000 </r>
       <r>   -28.4049     0.0000    24.0000 </r>
       <r>   -28.0985     0.0000    24.0000 </r>
       <r>   -27.7921     0.0000    24.0000 </r>
       <r>   -27.4857     0.0000    24.0000 </r>
       <r>   -27.1794     0.0000    24.0000 </r>
       <r>   -26.8730     0.0000    24.0000 </r>
       <r>   -26.5666     0.0000    24.0000 </r>
       <r>   -26.2602     0.0000    24.0000 </r>
       <r>   -25.9538     0.0000    24.0000 </r>
       <r>   -25.6475     0.0000    24.0000 </r>
       <r>   -25.3411     0.0000    24.0000 </r>
       <r>   -25.0347     0.0000    24.0000 </r>
       <r>   -24.7283     0.0000    24.0000 </r>
       <r>   -24.4219     0.0000    24.0000 </r>
       <r>   -24.1155     0.0000    24.0000 </r>
       <r>   -23.8092     0.0000    24.0000 </r>
       <r>   -23.5028     0.0000    24.0000 </r>
       <r>   -23.1964     0.0000    24.0000 </r>
       <r>   -22.8900     0.0000    24.0000 </r>
       <r>   -22.5836     0.0000    24.0000 </r>
       <r>   -22.2773     0.0000    24.0000 </r>
       <r>   -21.9709     0.0000    24.0000 </r>
       <r>   -21.6645     0.0000    24.0000 </r>
       <r>   -21.3581     0.0000    24.0000 </r>
       <r>   -21.0517     0.0000    24.0000 </r>
       <r>   -20.7454     0.0000    24.0000 </r>
       <r>   -20.4390     0.0000    24.0000 </r>
       <r>   -20.1326     0.0000    24.0000 </r>
       <r>   -19.8262     0.0000    24.0000 </r>
       <r>   -19.5198     0.0000    24.0000 </r>
       <r>   -19.2135     0.0000    24.0000 </r>
       <r>   -18.9071     0.0000    24.0000 </r>
       <r>   -18.6007     0.0000    24.0000 </r>
       <r>   -18.2943     0.0000    24.0000 </r>
       <r>   -17.9879     0.0000    24.0000 </r>
       <r>   -17.6815     0.0000    24.0000 </r>
       <r>   -17.3752     0.0000    24.0000 </r>
       <r>   -17.0688     0.0000    24.0000 </r>
       <r>   -16.7624     0.0000    24.0000 </r>
       <r>   -16.4560     0.0000    24.0000 </r>
       <r>   -16.1496     0.0000    24.0000 </r>
       <r>   -15.8433     0.0000    24.0000 </r>
       <r>   -15.5369     0.0000    24.0000 </r>
       <r>   -15.2305     0.0000    24.0000 </r>
       <r>   -14.9241     0.0000    24.0000 </r>
       <r>   -14.6177     0.0000    24.0000 </r>
       <r>   -14.3114     0.0000    24.0000 </r>
       <r>   -14.0050     0.0000    24.0000 </r>
       <r>   -13.6986    -0.0000    24.0000 </r>
       <r>   -13.3922    -0.0000    24.0000 </r>
       <r>   -13.0858    -0.0000    24.0000 </r>
       <r>   -12.7795    -0.0039    23.9988 </r>
       <r>   -12.4731     1.5513    24.4741 </r>
       <r>   -12.1667     3.5687    25.5675 </r>
       <r>   -11.8603     1.9071    26.1518 </r>
       <r>   -11.5539     2.1480    26.8099 </r>
       <r>   -11.2475     3.1929    27.7881 </r>
       <r>   -10.9412     2.5373    28.5655 </r>
       <r>   -10.6348     9.2882    31.4112 </r>
       <r>   -10.3284     9.4150    34.2958 </r>
       <r>   -10.0220     5.5806    36.0056 </r>
       <r>    -9.7156    -0.0183    36.0000 </r>
       <r>    -9.4093    -0.0000    36.0000 </r>
       <r>    -9.1029     0.0000    36.0000 </r>
       <r>    -8.7965     0.0000    36.0000 </r>
       <r>    -8.4901     0.0000    36.0000 </r>
       <r>    -8.1837     0.0000    36.0000 </r>
       <r>    -7.8774     0.0000    36.0000 </r>
       <r>    -7.5710     0.0000    36.0000 </r>
       <r>    -7.2646     0.0000    36.0000 </r>
       <r>    -6.9582    -0.0000    36.0000 </r>
       <r>    -6.6518    -0.0000    36.0000 </r>
       <r>    -6.3454    -0.0000    36.0000 </r>
       <r>    -6.0391     0.0578    36.0177 </r>
       <r>    -5.7327     3.4978    37.0894 </r>
       <r>    -5.4263     2.0522    37.7181 </r>
       <r>    -5.1199     1.8703    38.2912 </r>
       <r>    -4.8135     3.3000    39.3022 </r>
       <r>    -4.5072     2.2122    39.9800 </r>
       <r>    -4.2008     0.0653    40.0000 </r>
       <r>    -3.8944    -0.0000    40.0000 </r>
       <r>    -3.5880    -0.0000    40.0000 </r>
       <r>    -3.2816    -0.0000    40.0000 </r>
       <r>    -2.9753    -0.0004    39.9999 </r>
       <r>    -2.6689     0.3754    40.1149 </r>
       <r>    -2.3625     6.1483    41.9986 </r>
       <r>    -2.0561     6.7022    44.0520 </r>
       <r>    -1.7497     7.3565    46.3059 </r>
       <r>    -1.4434     6.4075    48.2691 </r>
       <r>    -1.1370     8.7426    50.9476 </r>
       <r>    -0.8306     9.0768    53.7286 </r>
       <r>    -0.5242    11.3653    57.2107 </r>
       <r>    -0.2178    18.2018    62.7874 </r>
       <r>     0.0886    28.8665    71.6315 </r>
       <r>     0.3949     1.2033    72.0002 </r>
       <r>     0.7013    -0.0007    72.0000 </r>
       <r>     1.0077    -0.0200    71.9939 </r>
       <r>     1.3141     7.4361    74.2722 </r>
       <r>     1.6205    44.8115    88.0016 </r>
       <r>     1.9268    13.8164    92.2346 </r>
       <r>     2.2332    13.1559    96.2654 </r>
       <r>     2.5396    12.8623   100.2061 </r>
       <r>     2.8460    11.1472   103.6214 </r>
       <r>     3.1524     9.0856   106.4051 </r>
       <r>     3.4587     7.9149   108.8300 </r>
       <r>     3.7651     6.9528   110.9602 </r>
       <r>     4.0715     3.1519   111.9259 </r>
       <r>     4.3779     0.2423   112.0002 </r>
       <r>     4.6843    -0.0005   112.0000 </r>
       <r>     4.9907    -0.0000   112.0000 </r>
       <r>     5.2970    -0.0001   112.0000 </r>
       <r>     5.6034     0.0769   112.0235 </r>
       <r>     5.9098     0.1677   112.0749 </r>
       <r>     6.2162     2.6374   112.8830 </r>
       <r>     6.5226     4.3719   114.2224 </r>
       <r>     6.8289     3.4446   115.2778 </r>
       <r>     7.1353     2.4239   116.0204 </r>
       <r>     7.4417     1.4336   116.4597 </r>
       <r>     7.7481     3.1706   117.4311 </r>
       <r>     8.0545     5.5765   119.1396 </r>
       <r>     8.3608     5.5476   120.8393 </r>
       <r>     8.6672     4.5889   122.2453 </r>
       <r>     8.9736     4.4712   123.6152 </r>
       <r>     9.2800     5.6161   125.3358 </r>
       <r>     9.5864     5.6883   127.0786 </r>
       <r>     9.8927     4.7867   128.5452 </r>
       <r>    10.1991     4.4586   129.9112 </r>
       <r>    10.5055     6.4974   131.9018 </r>
       <r>    10.8119     8.2654   134.4342 </r>
       <r>    11.1183     8.2660   136.9667 </r>
       <r>    11.4247     7.9762   139.4105 </r>
       <r>    11.7310     7.9026   141.8317 </r>
       <r>    12.0374     6.5726   143.8454 </r>
       <r>    12.3438     5.8737   145.6450 </r>
       <r>    12.6502     6.6459   147.6812 </r>
       <r>    12.9566     5.7852   149.4536 </r>
       <r>    13.2629     6.2037   151.3543 </r>
       <r>    13.5693     5.3549   152.9950 </r>
       <r>    13.8757     4.0352   154.2313 </r>
       <r>    14.1821     3.1727   155.2033 </r>
       <r>    14.4885     4.6175   156.6180 </r>
       <r>    14.7948     3.4665   157.6801 </r>
       <r>    15.1012     1.4160   158.1139 </r>
       <r>    15.4076     1.5989   158.6038 </r>
       <r>    15.7140     1.2242   158.9789 </r>
       <r>    16.0204     1.6704   159.4907 </r>
       <r>    16.3267     0.3332   159.5928 </r>
       <r>    16.6331     0.6886   159.8037 </r>
       <r>    16.9395     0.5219   159.9636 </r>
       <r>    17.2459     0.1187   160.0000 </r>
       <r>    17.5523    -0.0000   160.0000 </r>
       <r>    17.8587     0.0000   160.0000 </r>
       <r>    18.1650     0.0000   160.0000 </r>
       <r>    18.4714     0.0000   160.0000 </r>
       <r>    18.7778     0.0000   160.0000 </r>
       <r>    19.0842     0.0000   160.0000 </r>
      </set>
     </set>
    </array>
   </total>
  </dos>
 </calculation>
 <structure name="finalpos" >
  <crystal>
   <varray name="basis" >
    <v>       3.22479600      -5.64383000       0.03157200 </v>
    <v>       3.22479600       5.64383000       0.03157200 </v>
    <v>      -2.10194600       0.00000000       6.07553700 </v>
   </varray>
   <i name="volume">    221.90106089 </i>
   <varray name="rec_basis" >
    <v>       0.15452516      -0.08859232       0.05346088 </v>
    <v>       0.15452516       0.08859232       0.05346088 </v>
    <v>      -0.00160600       0.00000000       0.16403888 </v>
   </varray>
  </crystal>
  <varray name="positions" >
   <v>       0.61844300       0.12117100       0.11953300 </v>
   <v>       0.12117100       0.61844300       0.61953300 </v>
   <v>       0.96295700       0.79032200       0.11725752 </v>
   <v>       0.79032200       0.96295700       0.61881300 </v>
   <v>       0.43973200       0.26728100       0.59904700 </v>
   <v>       0.26728100       0.43973200       0.09904700 </v>
   <v>       0.07949800       0.91167500       0.49736300 </v>
   <v>       0.57140300       0.41236400       0.98018400 </v>
   <v>       0.73711100       0.25006200       0.49504900 </v>
   <v>       0.41236400       0.57140300       0.48018400 </v>
   <v>       0.91167500       0.07949800       0.99736300 </v>
   <v>       0.25006200       0.73711100       0.99504900 </v>
  </varray>
 </structure>
</modeling>
