<?xml version="1.0" encoding="ISO-8859-1"?>
<modeling>
 <generator>
  <i name="program" type="string">vasp </i>
  <i name="version" type="string">5.3.3  </i>
  <i name="subversion" type="string">18Dez12 (build Nov 13 2015 09:58:40) complex                          parallel </i>
  <i name="platform" type="string">LinuxIFC </i>
  <i name="date" type="string">2017 10 18 </i>
  <i name="time" type="string">13:04:00 </i>
 </generator>
 <incar>
  <i type="string" name="SYSTEM"> CGS</i>
  <i type="string" name="PREC">normal</i>
  <i type="string" name="ALGO"> D</i>
  <i type="logical" name="LDIAG"> T  </i>
  <i name="EDIFF">      0.00001000</i>
  <i name="ENCUT">    400.00000000</i>
  <i name="TIME">      0.40000000</i>
  <i type="int" name="ISMEAR">     1</i>
  <i name="SIGMA">      0.10000000</i>
  <i type="logical" name="LHFCALC"> T  </i>
  <i type="string" name="GGA"> PE</i>
  <i name="HFSCREEN">      0.20000000</i>
  <i name="AEXX">      0.25000000</i>
  <i type="string" name="PRECFOCK">fast</i>
 </incar>
 <kpoints>
  <generation param="Gamma">
   <v type="int" name="divisions">       4        4        5 </v>
   <v name="usershift">      0.00000000       0.00000000       0.00000000 </v>
   <v name="genvec1">      0.25000000       0.00000000       0.00000000 </v>
   <v name="genvec2">      0.00000000       0.25000000       0.00000000 </v>
   <v name="genvec3">      0.00000000       0.00000000       0.20000000 </v>
   <v name="shift">      0.00000000       0.00000000       0.00000000 </v>
  </generation>
  <varray name="kpointlist" >
   <v>       0.00000000       0.00000000       0.00000000 </v>
   <v>       0.25000000       0.00000000       0.00000000 </v>
   <v>       0.50000000       0.00000000       0.00000000 </v>
   <v>       0.00000000       0.25000000       0.00000000 </v>
   <v>       0.25000000       0.25000000       0.00000000 </v>
   <v>       0.50000000       0.25000000      -0.00000000 </v>
   <v>      -0.25000000       0.25000000       0.00000000 </v>
   <v>       0.00000000       0.50000000       0.00000000 </v>
   <v>       0.25000000       0.50000000      -0.00000000 </v>
   <v>       0.50000000       0.50000000       0.00000000 </v>
   <v>      -0.00000000      -0.00000000       0.20000000 </v>
   <v>       0.25000000       0.00000000       0.20000000 </v>
   <v>       0.50000000       0.00000000       0.20000000 </v>
   <v>      -0.25000000      -0.00000000       0.20000000 </v>
   <v>       0.00000000       0.25000000       0.20000000 </v>
   <v>       0.25000000       0.25000000       0.20000000 </v>
   <v>       0.50000000       0.25000000       0.20000000 </v>
   <v>      -0.25000000       0.25000000       0.20000000 </v>
   <v>       0.00000000       0.50000000       0.20000000 </v>
   <v>       0.25000000       0.50000000       0.20000000 </v>
   <v>       0.50000000       0.50000000       0.20000000 </v>
   <v>      -0.25000000       0.50000000       0.20000000 </v>
   <v>      -0.00000000      -0.25000000       0.20000000 </v>
   <v>       0.25000000      -0.25000000       0.20000000 </v>
   <v>       0.50000000      -0.25000000       0.20000000 </v>
   <v>      -0.25000000      -0.25000000       0.20000000 </v>
   <v>      -0.00000000      -0.00000000       0.40000000 </v>
   <v>       0.25000000       0.00000000       0.40000000 </v>
   <v>       0.50000000       0.00000000       0.40000000 </v>
   <v>      -0.25000000       0.00000000       0.40000000 </v>
   <v>       0.00000000       0.25000000       0.40000000 </v>
   <v>       0.25000000       0.25000000       0.40000000 </v>
   <v>       0.50000000       0.25000000       0.40000000 </v>
   <v>      -0.25000000       0.25000000       0.40000000 </v>
   <v>       0.00000000       0.50000000       0.40000000 </v>
   <v>       0.25000000       0.50000000       0.40000000 </v>
   <v>       0.50000000       0.50000000       0.40000000 </v>
   <v>      -0.25000000       0.50000000       0.40000000 </v>
   <v>       0.00000000      -0.25000000       0.40000000 </v>
   <v>       0.25000000      -0.25000000       0.40000000 </v>
   <v>       0.50000000      -0.25000000       0.40000000 </v>
   <v>      -0.25000000      -0.25000000       0.40000000 </v>
  </varray>
  <varray name="weights" >
   <v>       0.01250000 </v>
   <v>       0.02500000 </v>
   <v>       0.01250000 </v>
   <v>       0.02500000 </v>
   <v>       0.02500000 </v>
   <v>       0.02500000 </v>
   <v>       0.02500000 </v>
   <v>       0.01250000 </v>
   <v>       0.02500000 </v>
   <v>       0.01250000 </v>
   <v>       0.02500000 </v>
   <v>       0.02500000 </v>
   <v>       0.02500000 </v>
   <v>       0.02500000 </v>
   <v>       0.02500000 </v>
   <v>       0.02500000 </v>
   <v>       0.02500000 </v>
   <v>       0.02500000 </v>
   <v>       0.02500000 </v>
   <v>       0.02500000 </v>
   <v>       0.02500000 </v>
   <v>       0.02500000 </v>
   <v>       0.02500000 </v>
   <v>       0.02500000 </v>
   <v>       0.02500000 </v>
   <v>       0.02500000 </v>
   <v>       0.02500000 </v>
   <v>       0.02500000 </v>
   <v>       0.02500000 </v>
   <v>       0.02500000 </v>
   <v>       0.02500000 </v>
   <v>       0.02500000 </v>
   <v>       0.02500000 </v>
   <v>       0.02500000 </v>
   <v>       0.02500000 </v>
   <v>       0.02500000 </v>
   <v>       0.02500000 </v>
   <v>       0.02500000 </v>
   <v>       0.02500000 </v>
   <v>       0.02500000 </v>
   <v>       0.02500000 </v>
   <v>       0.02500000 </v>
  </varray>
 </kpoints>
 <parameters>
  <separator name="general" >
   <i type="string" name="SYSTEM">CGS</i>
   <i type="logical" name="LCOMPAT"> F  </i>
  </separator>
  <separator name="electronic" >
   <i type="string" name="PREC">normal</i>
   <i name="ENMAX">    400.00000000</i>
   <i name="ENAUG">    758.23300000</i>
   <i name="EDIFF">      0.00001000</i>
   <i type="int" name="IALGO">    53</i>
   <i type="int" name="IWAVPR">    10</i>
   <i type="int" name="NBANDS">    80</i>
   <i name="NELECT">    112.00000000</i>
   <i type="int" name="TURBO">     0</i>
   <i type="int" name="IRESTART">     0</i>
   <i type="int" name="NREBOOT">     0</i>
   <i type="int" name="NMIN">     0</i>
   <i name="EREF">      0.00000000</i>
   <separator name="electronic smearing" >
    <i type="int" name="ISMEAR">     1</i>
    <i name="SIGMA">      0.10000000</i>
    <i name="KSPACING">      0.50000000</i>
    <i type="logical" name="KGAMMA"> T  </i>
   </separator>
   <separator name="electronic projectors" >
    <i type="logical" name="LREAL"> F  </i>
    <v name="ROPT">      0.00000000      0.00000000      0.00000000</v>
    <i type="int" name="LMAXPAW">  -100</i>
    <i type="int" name="LMAXMIX">     2</i>
    <i type="logical" name="NLSPLINE"> F  </i>
   </separator>
   <separator name="electronic startup" >
    <i type="int" name="ISTART">     1</i>
    <i type="int" name="ICHARG">     0</i>
    <i type="int" name="INIWAV">     1</i>
   </separator>
   <separator name="electronic spin" >
    <i type="int" name="ISPIN">     1</i>
    <i type="logical" name="LNONCOLLINEAR"> F  </i>
    <v name="MAGMOM">      1.00000000      1.00000000      1.00000000      1.00000000      1.00000000      1.00000000      1.00000000      1.00000000      1.00000000      1.00000000      1.00000000      1.00000000</v>
    <i name="NUPDOWN">     -1.00000000</i>
    <i type="logical" name="LSORBIT"> F  </i>
    <v name="SAXIS">      0.00000000      0.00000000      1.00000000</v>
    <i type="logical" name="LSPIRAL"> F  </i>
    <v name="QSPIRAL">      0.00000000      0.00000000      0.00000000</v>
    <i type="logical" name="LZEROZ"> F  </i>
   </separator>
   <separator name="electronic exchange-correlation" >
    <i type="logical" name="LASPH"> F  </i>
    <i type="logical" name="LMETAGGA"> F  </i>
   </separator>
   <separator name="electronic convergence" >
    <i type="int" name="NELM">    60</i>
    <i type="int" name="NELMDL">     0</i>
    <i type="int" name="NELMIN">     2</i>
    <i name="ENINI">    400.00000000</i>
    <separator name="electronic convergence detail" >
     <i type="logical" name="LDIAG"> T  </i>
     <i type="logical" name="LSUBROT"> T  </i>
     <i name="WEIMIN">      0.00000000</i>
     <i name="EBREAK">      0.00000003</i>
     <i name="DEPER">      0.30000000</i>
     <i type="int" name="NRMM">     4</i>
     <i name="TIME">      0.40000000</i>
    </separator>
   </separator>
   <separator name="electronic mixer" >
    <i name="AMIX">      0.40000000</i>
    <i name="BMIX">      1.00000000</i>
    <i name="AMIN">      0.10000000</i>
    <i name="AMIX_MAG">      1.60000000</i>
    <i name="BMIX_MAG">      1.00000000</i>
    <separator name="electronic mixer details" >
     <i type="int" name="IMIX">     4</i>
     <i type="int" name="MAXMIX">   -45</i>
     <i name="WC">    100.00000000</i>
     <i type="int" name="INIMIX">     1</i>
     <i type="int" name="MIXPRE">     1</i>
     <i type="int" name="MREMOVE">     5</i>
    </separator>
   </separator>
   <separator name="electronic dipolcorrection" >
    <i type="logical" name="LDIPOL"> F  </i>
    <i type="logical" name="LMONO"> F  </i>
    <i type="int" name="IDIPOL">     0</i>
    <i name="EPSILON">      1.00000000</i>
    <v name="DIPOL">   -100.00000000   -100.00000000   -100.00000000</v>
    <i name="EFIELD">      0.00000000</i>
   </separator>
  </separator>
  <separator name="grids" >
   <i type="int" name="NGX">    32</i>
   <i type="int" name="NGY">    32</i>
   <i type="int" name="NGZ">    32</i>
   <i type="int" name="NGXF">    64</i>
   <i type="int" name="NGYF">    64</i>
   <i type="int" name="NGZF">    64</i>
   <i type="logical" name="ADDGRID"> F  </i>
  </separator>
  <separator name="ionic" >
   <i type="int" name="NSW">     0</i>
   <i type="int" name="IBRION">    -1</i>
   <i type="int" name="ISIF">     0</i>
   <i name="PSTRESS">      0.00000000</i>
   <i name="EDIFFG">      0.00010000</i>
   <i type="int" name="NFREE">     0</i>
   <i name="POTIM">      0.50000000</i>
   <i name="SMASS">     -3.00000000</i>
   <i name="SCALEE">      1.00000000</i>
  </separator>
  <separator name="ionic md" >
   <i name="TEBEG">      0.00010000</i>
   <i name="TEEND">      0.00010000</i>
   <i type="int" name="NBLOCK">     1</i>
   <i type="int" name="KBLOCK">     1</i>
   <i type="int" name="NPACO">   256</i>
   <i name="APACO">     16.00000000</i>
  </separator>
  <separator name="symmetry" >
   <i type="int" name="ISYM">     3</i>
   <i name="SYMPREC">      0.00001000</i>
  </separator>
  <separator name="dos" >
   <i type="logical" name="LORBIT"> F  </i>
   <v name="RWIGS">     -1.00000000     -1.00000000     -1.00000000</v>
   <i type="int" name="NEDOS">   301</i>
   <i name="EMIN">     10.00000000</i>
   <i name="EMAX">    -10.00000000</i>
   <i name="EFERMI">      0.00000000</i>
  </separator>
  <separator name="writing" >
   <i type="int" name="NWRITE">     2</i>
   <i type="logical" name="LWAVE"> T  </i>
   <i type="logical" name="LCHARG"> T  </i>
   <i type="logical" name="LPARD"> F  </i>
   <i type="logical" name="LVTOT"> F  </i>
   <i type="logical" name="LVHAR"> F  </i>
   <i type="logical" name="LELF"> F  </i>
   <i type="logical" name="LOPTICS"> F  </i>
   <v name="STM">      0.00000000      0.00000000      0.00000000      0.00000000      0.00000000      0.00000000      0.00000000</v>
  </separator>
  <separator name="performance" >
   <i type="int" name="NPAR">    16</i>
   <i type="int" name="NSIM">     4</i>
   <i type="int" name="NBLK">    -1</i>
   <i type="logical" name="LPLANE"> T  </i>
   <i type="logical" name="LSCALAPACK"> T  </i>
   <i type="logical" name="LSCAAWARE"> F  </i>
   <i type="logical" name="LSCALU"> F  </i>
   <i type="logical" name="LASYNC"> F  </i>
   <i type="logical" name="LORBITALREAL"> F  </i>
  </separator>
  <separator name="miscellaneous" >
   <i type="int" name="IDIOT">     3</i>
   <i type="logical" name="LMUSIC"> F  </i>
   <v name="POMASS">     63.54600000     72.61000000     32.06600000</v>
   <v name="DARWINR">      0.00000000      0.00000000      0.00000000</v>
   <v name="DARWINV">      1.00000000      1.00000000      1.00000000</v>
   <i type="logical" name="LCORR"> T  </i>
  </separator>
  <i type="logical" name="GGA_COMPAT"> T  </i>
  <i type="logical" name="LBERRY"> F  </i>
  <i type="int" name="ICORELEVEL">     0</i>
  <i type="logical" name="LDAU"> F  </i>
  <i type="int" name="I_CONSTRAINED_M">     0</i>
  <separator name="electronic exchange-correlation" >
   <i type="string" name="GGA">PE</i>
   <i type="int" name="VOSKOWN">     0</i>
   <i type="logical" name="LHFCALC"> T  </i>
   <i type="string" name="PRECFOCK">fast</i>
   <i type="logical" name="LSYMGRAD"> F  </i>
   <i type="logical" name="LHFONE"> F  </i>
   <i type="logical" name="LRHFCALC"> F  </i>
   <i type="logical" name="LTHOMAS"> F  </i>
   <i type="logical" name="LMODELHF"> F  </i>
   <i name="ENCUT4O">     -1.00000000</i>
   <i type="int" name="EXXOEP">     0</i>
   <i type="int" name="FOURORBIT">     0</i>
   <i name="AEXX">      0.25000000</i>
   <i name="HFALPHA">     -1.00000000</i>
   <i name="MCALPHA">      0.00000000</i>
   <i name="ALDAX">      0.75000000</i>
   <i name="AGGAX">      0.75000000</i>
   <i name="ALDAC">      1.00000000</i>
   <i name="AGGAC">      1.00000000</i>
   <i type="int" name="NKREDX">     1</i>
   <i type="int" name="NKREDY">     1</i>
   <i type="int" name="NKREDZ">     1</i>
   <i type="logical" name="SHIFTRED"> F  </i>
   <i type="logical" name="ODDONLY"> F  </i>
   <i type="logical" name="EVENONLY"> F  </i>
   <i type="int" name="LMAXFOCK">     4</i>
   <i type="int" name="NMAXFOCKAE">     1</i>
   <i type="logical" name="LFOCKAEDFT"> F  </i>
   <i name="HFSCREEN">      0.20000000</i>
   <i name="HFSCREENC">      0.20000000</i>
   <i type="int" name="NBANDSGWLOW">     1</i>
  </separator>
  <separator name="vdW DFT" >
   <i type="logical" name="LUSE_VDW"> F  </i>
   <i name="Zab_VDW">     -0.84910000</i>
   <i name="PARAM1">      0.12340000</i>
   <i name="PARAM2">      1.00000000</i>
   <i name="PARAM3">      0.00000000</i>
  </separator>
  <separator name="model GW" >
   <i type="int" name="MODEL_GW">     0</i>
   <i name="MODEL_EPS0">     11.09505304</i>
   <i name="MODEL_ALPHA">      1.00000000</i>
  </separator>
  <separator name="linear response parameters" >
   <i type="logical" name="LEPSILON"> F  </i>
   <i type="logical" name="LRPA"> F  </i>
   <i type="logical" name="LNABLA"> F  </i>
   <i type="logical" name="LVEL"> F  </i>
   <i type="int" name="KINTER">     0</i>
   <i name="CSHIFT">      0.10000000</i>
   <i name="OMEGAMAX">     -1.00000000</i>
   <i name="DEG_THRESHOLD">      0.00200000</i>
  </separator>
  <separator name="orbital magnetization" >
   <i type="logical" name="NUCIND"> F  </i>
   <v name="MAGPOS">      0.00000000      0.00000000      0.00000000</v>
   <i type="logical" name="LNICSALL"> T  </i>
   <i type="logical" name="ORBITALMAG"> F  </i>
   <i type="logical" name="LMAGBLOCH"> F  </i>
   <i type="logical" name="LCHIMAG"> F  </i>
   <i type="logical" name="LGAUGE"> T  </i>
   <i type="int" name="MAGATOM">     0</i>
   <v name="MAGDIPOL">      0.00000000      0.00000000      0.00000000</v>
   <v name="AVECCONST">      0.00000000      0.00000000      0.00000000</v>
  </separator>
  <separator name="response functions" >
   <i type="logical" name="LADDER"> F  </i>
   <i type="logical" name="LFXC"> F  </i>
   <i type="logical" name="LHARTREE"> T  </i>
   <i type="int" name="IBSE">     0</i>
   <i type="logical" name="LTCTE"> F  </i>
   <i type="logical" name="LTETE"> F  </i>
   <i type="logical" name="LTRIPLET"> F  </i>
   <i type="logical" name="LFXCEPS"> F  </i>
   <i type="logical" name="L2ORDER"> F  </i>
   <i type="logical" name="LUSEW"> F  </i>
   <i name="ENCUTGW">     -2.00000000</i>
   <i name="ENCUTGWSOFT">     -2.00000000</i>
   <i name="ENCUTLF">     -1.00000000</i>
   <i type="int" name="LMAXMP2">    -1</i>
   <i name="SCISSOR">      0.00000000</i>
   <i type="int" name="NOMEGA">     0</i>
   <i type="int" name="NOMEGAR">     0</i>
   <i type="int" name="NBANDSGW">    -1</i>
   <i type="int" name="NBANDSO">    -1</i>
   <i type="int" name="NBANDSV">    -1</i>
   <i type="int" name="NELM">     1</i>
   <i type="int" name="DIM">     3</i>
   <i type="int" name="ANTIRES">     0</i>
   <i name="OMEGAMAX">    -30.00000000</i>
   <i name="OMEGATL">   -200.00000000</i>
   <i type="int" name="OMEGAGRID">     0</i>
   <i name="CSHIFT">     -0.10000000</i>
   <i type="logical" name="SELFENERGY"> F  </i>
   <i type="logical" name="LSPECTRAL"> F  </i>
   <i type="logical" name="ODDONLYGW"> F  </i>
   <i type="logical" name="EVENONLYGW"> F  </i>
   <i type="int" name="NKREDLFX">     1</i>
   <i type="int" name="NKREDLFY">     1</i>
   <i type="int" name="NKREDLFZ">     1</i>
   <i type="int" name="MAXMEM">  1800</i>
   <i type="int" name="TELESCOPE">     0</i>
  </separator>
 </parameters>
 <atominfo>
  <atoms>      12 </atoms>
  <types>       3 </types>
  <array name="atoms" >
   <dimension dim="1">ion</dimension>
   <field type="string">element</field>
   <field type="int">atomtype</field>
   <set>
    <rc><c>Cu</c><c>   1</c></rc>
    <rc><c>Cu</c><c>   1</c></rc>
    <rc><c>Cu</c><c>   1</c></rc>
    <rc><c>Cu</c><c>   1</c></rc>
    <rc><c>Ge</c><c>   2</c></rc>
    <rc><c>Ge</c><c>   2</c></rc>
    <rc><c>S </c><c>   3</c></rc>
    <rc><c>S </c><c>   3</c></rc>
    <rc><c>S </c><c>   3</c></rc>
    <rc><c>S </c><c>   3</c></rc>
    <rc><c>S </c><c>   3</c></rc>
    <rc><c>S </c><c>   3</c></rc>
   </set>
  </array>
  <array name="atomtypes" >
   <dimension dim="1">type</dimension>
   <field type="int">atomspertype</field>
   <field type="string">element</field>
   <field>mass</field>
   <field>valence</field>
   <field type="string">pseudopotential</field>
   <set>
    <rc><c>   4</c><c>Cu</c><c>     63.54600000</c><c>     17.00000000</c><c>  PAW_PBE Cu_pv 06Sep2000               </c></rc>
    <rc><c>   2</c><c>Ge</c><c>     72.61000000</c><c>      4.00000000</c><c>  PAW_PBE Ge 05Jan2001                  </c></rc>
    <rc><c>   6</c><c>S </c><c>     32.06600000</c><c>      6.00000000</c><c>  PAW_PBE S 17Jan2003                   </c></rc>
   </set>
  </array>
 </atominfo>
 <structure name="initialpos" >
  <crystal>
   <varray name="basis" >
    <v>       3.22479600      -5.64383000       0.03157200 </v>
    <v>       3.22479600       5.64383000       0.03157200 </v>
    <v>      -2.10194600       0.00000000       6.07553700 </v>
   </varray>
   <i name="volume">    221.90106089 </i>
   <varray name="rec_basis" >
    <v>       0.15452516      -0.08859232       0.05346088 </v>
    <v>       0.15452516       0.08859232       0.05346088 </v>
    <v>      -0.00160600       0.00000000       0.16403888 </v>
   </varray>
  </crystal>
  <varray name="positions" >
   <v>       0.61844300       0.12117100       0.11953300 </v>
   <v>       0.12117100       0.61844300       0.61953300 </v>
   <v>       0.96141860       0.79032200       0.11881300 </v>
   <v>       0.79032200       0.96295700       0.61881300 </v>
   <v>       0.43973200       0.26728100       0.59904700 </v>
   <v>       0.26728100       0.43973200       0.09904700 </v>
   <v>       0.07949800       0.91167500       0.49736300 </v>
   <v>       0.57140300       0.41236400       0.98018400 </v>
   <v>       0.73711100       0.25006200       0.49504900 </v>
   <v>       0.41236400       0.57140300       0.48018400 </v>
   <v>       0.91167500       0.07949800       0.99736300 </v>
   <v>       0.25006200       0.73711100       0.99504900 </v>
  </varray>
 </structure>
 <calculation>
  <scstep>
   <time name="total">  238.59  238.78</time>
   <energy>
    <i name="alphaZ">    339.31929130 </i>
    <i name="ewald">  -9064.88011389 </i>
    <i name="hartreedc">  -8066.84313110 </i>
    <i name="XCdc">    369.89428652 </i>
    <i name="pawpsdc">  16958.78513926 </i>
    <i name="pawaedc"> -17451.52231103 </i>
    <i name="eentropy">     -0.00143575 </i>
    <i name="bandstr">  -1657.46783535 </i>
    <i name="atom">  18320.98302006 </i>
    <i name="e_fr_energy">     75.70963774 </i>
    <i name="e_wo_entrp">     75.71107349 </i>
    <i name="e_0_energy">     75.71011632 </i>
   </energy>
  </scstep>
  <scstep>
   <time name="total">  249.87  249.68</time>
   <energy>
    <i name="e_fr_energy">     -8.24116246 </i>
    <i name="e_wo_entrp">     -8.24102328 </i>
    <i name="e_0_energy">     -8.24111607 </i>
   </energy>
  </scstep>
  <scstep>
   <time name="total">  251.25  251.05</time>
   <energy>
    <i name="e_fr_energy">    -14.99902775 </i>
    <i name="e_wo_entrp">    -14.99924040 </i>
    <i name="e_0_energy">    -14.99909863 </i>
   </energy>
  </scstep>
  <scstep>
   <time name="total">  250.46  250.24</time>
   <energy>
    <i name="e_fr_energy">    -22.50452239 </i>
    <i name="e_wo_entrp">    -22.50488756 </i>
    <i name="e_0_energy">    -22.50464411 </i>
   </energy>
  </scstep>
  <scstep>
   <time name="total">  250.22  250.01</time>
   <energy>
    <i name="e_fr_energy">    -60.80228052 </i>
    <i name="e_wo_entrp">    -60.80290817 </i>
    <i name="e_0_energy">    -60.80248974 </i>
   </energy>
  </scstep>
  <scstep>
   <time name="total">  251.82  251.62</time>
   <energy>
    <i name="e_fr_energy">    -65.93953918 </i>
    <i name="e_wo_entrp">    -65.94021927 </i>
    <i name="e_0_energy">    -65.93976588 </i>
   </energy>
  </scstep>
  <scstep>
   <time name="total">  253.90  253.72</time>
   <energy>
    <i name="e_fr_energy">    -67.47807595 </i>
    <i name="e_wo_entrp">    -67.47851344 </i>
    <i name="e_0_energy">    -67.47822178 </i>
   </energy>
  </scstep>
  <scstep>
   <time name="total">  257.65  257.46</time>
   <energy>
    <i name="e_fr_energy">    -69.08544576 </i>
    <i name="e_wo_entrp">    -69.08617610 </i>
    <i name="e_0_energy">    -69.08568920 </i>
   </energy>
  </scstep>
  <scstep>
   <time name="total">  258.39  258.22</time>
   <energy>
    <i name="e_fr_energy">    -69.39537950 </i>
    <i name="e_wo_entrp">    -69.39625004 </i>
    <i name="e_0_energy">    -69.39566968 </i>
   </energy>
  </scstep>
  <scstep>
   <time name="total">  257.70  257.49</time>
   <energy>
    <i name="e_fr_energy">    -69.49904555 </i>
    <i name="e_wo_entrp">    -69.49975927 </i>
    <i name="e_0_energy">    -69.49928346 </i>
   </energy>
  </scstep>
  <scstep>
   <time name="total">  257.77  257.55</time>
   <energy>
    <i name="e_fr_energy">    -69.56856237 </i>
    <i name="e_wo_entrp">    -69.56916237 </i>
    <i name="e_0_energy">    -69.56876237 </i>
   </energy>
  </scstep>
  <scstep>
   <time name="total">  258.03  257.82</time>
   <energy>
    <i name="e_fr_energy">    -69.58095332 </i>
    <i name="e_wo_entrp">    -69.58150261 </i>
    <i name="e_0_energy">    -69.58113641 </i>
   </energy>
  </scstep>
  <scstep>
   <time name="total">  257.87  257.67</time>
   <energy>
    <i name="e_fr_energy">    -69.59060040 </i>
    <i name="e_wo_entrp">    -69.59113788 </i>
    <i name="e_0_energy">    -69.59077956 </i>
   </energy>
  </scstep>
  <scstep>
   <time name="total">  255.98  255.76</time>
   <energy>
    <i name="e_fr_energy">    -69.59305453 </i>
    <i name="e_wo_entrp">    -69.59360900 </i>
    <i name="e_0_energy">    -69.59323935 </i>
   </energy>
  </scstep>
  <scstep>
   <time name="total">  255.96  255.74</time>
   <energy>
    <i name="e_fr_energy">    -69.59455869 </i>
    <i name="e_wo_entrp">    -69.59512589 </i>
    <i name="e_0_energy">    -69.59474776 </i>
   </energy>
  </scstep>
  <scstep>
   <time name="total">  255.97  255.74</time>
   <energy>
    <i name="e_fr_energy">    -69.59512811 </i>
    <i name="e_wo_entrp">    -69.59569640 </i>
    <i name="e_0_energy">    -69.59531754 </i>
   </energy>
  </scstep>
  <scstep>
   <time name="total">  257.27  257.06</time>
   <energy>
    <i name="e_fr_energy">    -69.59530091 </i>
    <i name="e_wo_entrp">    -69.59586633 </i>
    <i name="e_0_energy">    -69.59548938 </i>
   </energy>
  </scstep>
  <scstep>
   <time name="total">  256.57  256.36</time>
   <energy>
    <i name="e_fr_energy">    -69.59541767 </i>
    <i name="e_wo_entrp">    -69.59598008 </i>
    <i name="e_0_energy">    -69.59560514 </i>
   </energy>
  </scstep>
  <scstep>
   <time name="total">  256.29  256.07</time>
   <energy>
    <i name="e_fr_energy">    -69.59544653 </i>
    <i name="e_wo_entrp">    -69.59600754 </i>
    <i name="e_0_energy">    -69.59563353 </i>
   </energy>
  </scstep>
  <scstep>
   <time name="total">  256.75  256.53</time>
   <energy>
    <i name="e_fr_energy">    -69.59546621 </i>
    <i name="e_wo_entrp">    -69.59602759 </i>
    <i name="e_0_energy">    -69.59565333 </i>
   </energy>
  </scstep>
  <scstep>
   <time name="total">  255.39  255.18</time>
   <energy>
    <i name="alphaZ">    339.31929130 </i>
    <i name="ewald">  -9064.88011389 </i>
    <i name="hartreedc">  -8149.20494091 </i>
    <i name="XCdc">    372.06757313 </i>
    <i name="pawpsdc">  15921.71494133 </i>
    <i name="pawaedc"> -16406.90576587 </i>
    <i name="eentropy">      0.00056195 </i>
    <i name="bandstr">  -1742.75487597 </i>
    <i name="atom">  18320.98302006 </i>
    <i name="e_fr_energy">    -69.59547357 </i>
    <i name="e_wo_entrp">    -69.59603552 </i>
    <i name="e_0_energy">    -69.59566088 </i>
   </energy>
  </scstep>
  <structure>
   <crystal>
    <varray name="basis" >
     <v>       3.22479600      -5.64383000       0.03157200 </v>
     <v>       3.22479600       5.64383000       0.03157200 </v>
     <v>      -2.10194600       0.00000000       6.07553700 </v>
    </varray>
    <i name="volume">    221.90106089 </i>
    <varray name="rec_basis" >
     <v>       0.15452516      -0.08859232       0.05346088 </v>
     <v>       0.15452516       0.08859232       0.05346088 </v>
     <v>      -0.00160600       0.00000000       0.16403888 </v>
    </varray>
   </crystal>
   <varray name="positions" >
    <v>       0.61844300       0.12117100       0.11953300 </v>
    <v>       0.12117100       0.61844300       0.61953300 </v>
    <v>       0.96141860       0.79032200       0.11881300 </v>
    <v>       0.79032200       0.96295700       0.61881300 </v>
    <v>       0.43973200       0.26728100       0.59904700 </v>
    <v>       0.26728100       0.43973200       0.09904700 </v>
    <v>       0.07949800       0.91167500       0.49736300 </v>
    <v>       0.57140300       0.41236400       0.98018400 </v>
    <v>       0.73711100       0.25006200       0.49504900 </v>
    <v>       0.41236400       0.57140300       0.48018400 </v>
    <v>       0.91167500       0.07949800       0.99736300 </v>
    <v>       0.25006200       0.73711100       0.99504900 </v>
   </varray>
  </structure>
  <varray name="forces" >
   <v>      -0.00476243       0.00046015       0.00028697 </v>
   <v>      -0.00344445       0.00254673       0.00136185 </v>
   <v>       0.02249728      -0.05340875      -0.00136593 </v>
   <v>       0.00195656       0.00093501       0.00048531 </v>
   <v>       0.00117257       0.00877963      -0.00202395 </v>
   <v>       0.00412124       0.00099853       0.00179724 </v>
   <v>       0.00038922       0.00109352      -0.00158084 </v>
   <v>      -0.00786704      -0.00855338       0.00102632 </v>
   <v>      -0.00219230       0.00384752      -0.00098645 </v>
   <v>      -0.00147869       0.00809063       0.00029487 </v>
   <v>       0.00770229       0.01554139      -0.00955899 </v>
   <v>      -0.01809424       0.01966902       0.01026361 </v>
  </varray>
  <energy>
   <i name="e_fr_energy">    -69.59547357 </i>
   <i name="e_wo_entrp">    -69.59566088 </i>
   <i name="e_0_energy">      0.00056195 </i>
  </energy>
  <time name="totalsc"> 5821.42 5819.38</time>
  <eigenvalues>
   <array>
    <dimension dim="1">band</dimension>
    <dimension dim="2">kpoint</dimension>
    <dimension dim="3">spin</dimension>
    <field>eigene</field>
    <field>occ</field>
    <set>
     <set comment="spin 1">
      <set comment="kpoint 1">
       <r>  -68.6454    1.0000 </r>
       <r>  -68.6448    1.0000 </r>
       <r>  -68.6356    1.0000 </r>
       <r>  -68.6337    1.0000 </r>
       <r>  -68.6133    1.0000 </r>
       <r>  -68.6126    1.0000 </r>
       <r>  -68.5958    1.0000 </r>
       <r>  -68.5953    1.0000 </r>
       <r>  -68.5803    1.0000 </r>
       <r>  -68.5780    1.0000 </r>
       <r>  -68.5616    1.0000 </r>
       <r>  -68.5610    1.0000 </r>
       <r>  -12.7219    1.0000 </r>
       <r>  -11.1300    1.0000 </r>
       <r>  -10.9186    1.0000 </r>
       <r>  -10.6038    1.0000 </r>
       <r>  -10.2499    1.0000 </r>
       <r>  -10.2336    1.0000 </r>
       <r>   -5.9851    1.0000 </r>
       <r>   -4.9849    1.0000 </r>
       <r>   -2.7598    1.0000 </r>
       <r>   -2.2109    1.0000 </r>
       <r>   -2.0704    1.0000 </r>
       <r>   -1.9220    1.0000 </r>
       <r>   -1.5779    1.0000 </r>
       <r>   -0.9788    1.0000 </r>
       <r>   -0.9549    1.0000 </r>
       <r>   -0.6865    1.0000 </r>
       <r>   -0.4008    1.0000 </r>
       <r>   -0.2762    1.0000 </r>
       <r>   -0.2616    1.0000 </r>
       <r>   -0.2373    1.0000 </r>
       <r>   -0.1901    1.0000 </r>
       <r>   -0.1555    1.0000 </r>
       <r>   -0.0347    1.0000 </r>
       <r>    0.0289    1.0000 </r>
       <r>    1.3504    1.0000 </r>
       <r>    1.3618    1.0000 </r>
       <r>    1.4129    1.0000 </r>
       <r>    1.4566    1.0000 </r>
       <r>    1.4700    1.0000 </r>
       <r>    1.4737    1.0000 </r>
       <r>    1.5199    1.0000 </r>
       <r>    1.5327    1.0000 </r>
       <r>    1.5748    1.0000 </r>
       <r>    1.7126    1.0000 </r>
       <r>    1.8930    1.0000 </r>
       <r>    1.9282    1.0000 </r>
       <r>    2.0595    1.0000 </r>
       <r>    2.6495    1.0000 </r>
       <r>    2.7325    1.0000 </r>
       <r>    3.0931    1.0000 </r>
       <r>    3.2147    1.0000 </r>
       <r>    4.0048    1.0047 </r>
       <r>    4.0380    1.0135 </r>
       <r>    4.1716    0.8628 </r>
       <r>    5.5372   -0.0000 </r>
       <r>    6.3579   -0.0000 </r>
       <r>    7.6286    0.0000 </r>
       <r>    7.9858    0.0000 </r>
       <r>    8.6180    0.0000 </r>
       <r>    8.7908    0.0000 </r>
       <r>    9.5731    0.0000 </r>
       <r>    9.7383    0.0000 </r>
       <r>    9.8148    0.0000 </r>
       <r>   10.4193    0.0000 </r>
       <r>   10.5842    0.0000 </r>
       <r>   10.6976    0.0000 </r>
       <r>   10.7113    0.0000 </r>
       <r>   11.2818    0.0000 </r>
       <r>   11.7101    0.0000 </r>
       <r>   12.3926    0.0000 </r>
       <r>   12.4518    0.0000 </r>
       <r>   12.7303    0.0000 </r>
       <r>   13.3195    0.0000 </r>
       <r>   13.3859    0.0000 </r>
       <r>   13.8309    0.0000 </r>
       <r>   13.8870    0.0000 </r>
       <r>   14.1432    0.0000 </r>
       <r>   14.1812    0.0000 </r>
      </set>
      <set comment="kpoint 2">
       <r>  -68.6454    1.0000 </r>
       <r>  -68.6447    1.0000 </r>
       <r>  -68.6356    1.0000 </r>
       <r>  -68.6337    1.0000 </r>
       <r>  -68.6131    1.0000 </r>
       <r>  -68.6125    1.0000 </r>
       <r>  -68.5958    1.0000 </r>
       <r>  -68.5953    1.0000 </r>
       <r>  -68.5803    1.0000 </r>
       <r>  -68.5780    1.0000 </r>
       <r>  -68.5616    1.0000 </r>
       <r>  -68.5610    1.0000 </r>
       <r>  -12.5969    1.0000 </r>
       <r>  -11.1270    1.0000 </r>
       <r>  -10.9853    1.0000 </r>
       <r>  -10.6777    1.0000 </r>
       <r>  -10.3626    1.0000 </r>
       <r>  -10.2778    1.0000 </r>
       <r>   -5.9334    1.0000 </r>
       <r>   -4.7743    1.0000 </r>
       <r>   -2.6451    1.0000 </r>
       <r>   -2.2528    1.0000 </r>
       <r>   -2.0872    1.0000 </r>
       <r>   -1.6904    1.0000 </r>
       <r>   -1.3465    1.0000 </r>
       <r>   -0.9986    1.0000 </r>
       <r>   -0.7705    1.0000 </r>
       <r>   -0.6198    1.0000 </r>
       <r>   -0.5530    1.0000 </r>
       <r>   -0.4385    1.0000 </r>
       <r>   -0.3616    1.0000 </r>
       <r>   -0.2425    1.0000 </r>
       <r>   -0.1921    1.0000 </r>
       <r>   -0.1707    1.0000 </r>
       <r>   -0.0436    1.0000 </r>
       <r>    0.0383    1.0000 </r>
       <r>    1.2784    1.0000 </r>
       <r>    1.3359    1.0000 </r>
       <r>    1.3534    1.0000 </r>
       <r>    1.3922    1.0000 </r>
       <r>    1.4265    1.0000 </r>
       <r>    1.4719    1.0000 </r>
       <r>    1.4977    1.0000 </r>
       <r>    1.5301    1.0000 </r>
       <r>    1.7254    1.0000 </r>
       <r>    1.8601    1.0000 </r>
       <r>    2.0563    1.0000 </r>
       <r>    2.0947    1.0000 </r>
       <r>    2.2318    1.0000 </r>
       <r>    2.4156    1.0000 </r>
       <r>    2.5563    1.0000 </r>
       <r>    2.8240    1.0000 </r>
       <r>    2.9465    1.0000 </r>
       <r>    3.2419    1.0000 </r>
       <r>    3.6621    1.0000 </r>
       <r>    4.0396    1.0142 </r>
       <r>    6.1701   -0.0000 </r>
       <r>    6.9062   -0.0000 </r>
       <r>    8.1367    0.0000 </r>
       <r>    8.2689    0.0000 </r>
       <r>    8.5930    0.0000 </r>
       <r>    9.0118    0.0000 </r>
       <r>    9.2435    0.0000 </r>
       <r>    9.5308    0.0000 </r>
       <r>    9.8650    0.0000 </r>
       <r>   10.3756    0.0000 </r>
       <r>   10.6332    0.0000 </r>
       <r>   10.8134    0.0000 </r>
       <r>   10.9399    0.0000 </r>
       <r>   11.1910    0.0000 </r>
       <r>   11.6582    0.0000 </r>
       <r>   11.7738    0.0000 </r>
       <r>   12.1157    0.0000 </r>
       <r>   12.4407    0.0000 </r>
       <r>   12.6175    0.0000 </r>
       <r>   13.0072    0.0000 </r>
       <r>   13.5043    0.0000 </r>
       <r>   13.8739    0.0000 </r>
       <r>   14.2141    0.0000 </r>
       <r>   14.7114    0.0000 </r>
      </set>
      <set comment="kpoint 3">
       <r>  -68.6452    1.0000 </r>
       <r>  -68.6446    1.0000 </r>
       <r>  -68.6355    1.0000 </r>
       <r>  -68.6336    1.0000 </r>
       <r>  -68.6131    1.0000 </r>
       <r>  -68.6124    1.0000 </r>
       <r>  -68.5958    1.0000 </r>
       <r>  -68.5953    1.0000 </r>
       <r>  -68.5802    1.0000 </r>
       <r>  -68.5779    1.0000 </r>
       <r>  -68.5615    1.0000 </r>
       <r>  -68.5608    1.0000 </r>
       <r>  -12.4376    1.0000 </r>
       <r>  -11.2499    1.0000 </r>
       <r>  -10.9590    1.0000 </r>
       <r>  -10.7652    1.0000 </r>
       <r>  -10.4218    1.0000 </r>
       <r>  -10.3599    1.0000 </r>
       <r>   -5.8710    1.0000 </r>
       <r>   -4.5491    1.0000 </r>
       <r>   -2.4933    1.0000 </r>
       <r>   -2.2452    1.0000 </r>
       <r>   -1.9482    1.0000 </r>
       <r>   -1.4632    1.0000 </r>
       <r>   -1.2280    1.0000 </r>
       <r>   -1.1032    1.0000 </r>
       <r>   -0.9007    1.0000 </r>
       <r>   -0.8629    1.0000 </r>
       <r>   -0.6004    1.0000 </r>
       <r>   -0.5354    1.0000 </r>
       <r>   -0.2759    1.0000 </r>
       <r>   -0.2053    1.0000 </r>
       <r>   -0.2011    1.0000 </r>
       <r>   -0.1438    1.0000 </r>
       <r>   -0.0298    1.0000 </r>
       <r>    0.0817    1.0000 </r>
       <r>    1.2534    1.0000 </r>
       <r>    1.3265    1.0000 </r>
       <r>    1.3472    1.0000 </r>
       <r>    1.3981    1.0000 </r>
       <r>    1.4710    1.0000 </r>
       <r>    1.4780    1.0000 </r>
       <r>    1.4995    1.0000 </r>
       <r>    1.5528    1.0000 </r>
       <r>    1.7524    1.0000 </r>
       <r>    1.7928    1.0000 </r>
       <r>    1.9691    1.0000 </r>
       <r>    2.1469    1.0000 </r>
       <r>    2.3213    1.0000 </r>
       <r>    2.3612    1.0000 </r>
       <r>    2.5561    1.0000 </r>
       <r>    2.6707    1.0000 </r>
       <r>    2.9344    1.0000 </r>
       <r>    3.0768    1.0000 </r>
       <r>    3.2495    1.0000 </r>
       <r>    3.8615    1.0000 </r>
       <r>    6.3849   -0.0000 </r>
       <r>    7.0980    0.0000 </r>
       <r>    7.9814    0.0000 </r>
       <r>    8.2043    0.0000 </r>
       <r>    8.5200    0.0000 </r>
       <r>    8.8202    0.0000 </r>
       <r>    9.3263    0.0000 </r>
       <r>    9.8887    0.0000 </r>
       <r>   10.0111    0.0000 </r>
       <r>   10.5188    0.0000 </r>
       <r>   10.6925    0.0000 </r>
       <r>   10.7928    0.0000 </r>
       <r>   11.1396    0.0000 </r>
       <r>   11.4064    0.0000 </r>
       <r>   11.6101    0.0000 </r>
       <r>   11.7746    0.0000 </r>
       <r>   11.9436    0.0000 </r>
       <r>   12.5043    0.0000 </r>
       <r>   12.7801    0.0000 </r>
       <r>   13.0018    0.0000 </r>
       <r>   13.3936    0.0000 </r>
       <r>   13.5402    0.0000 </r>
       <r>   13.9390    0.0000 </r>
       <r>   14.2706    0.0000 </r>
      </set>
      <set comment="kpoint 4">
       <r>  -68.6453    1.0000 </r>
       <r>  -68.6448    1.0000 </r>
       <r>  -68.6356    1.0000 </r>
       <r>  -68.6337    1.0000 </r>
       <r>  -68.6131    1.0000 </r>
       <r>  -68.6125    1.0000 </r>
       <r>  -68.5959    1.0000 </r>
       <r>  -68.5953    1.0000 </r>
       <r>  -68.5803    1.0000 </r>
       <r>  -68.5779    1.0000 </r>
       <r>  -68.5616    1.0000 </r>
       <r>  -68.5610    1.0000 </r>
       <r>  -12.5971    1.0000 </r>
       <r>  -11.1265    1.0000 </r>
       <r>  -10.9839    1.0000 </r>
       <r>  -10.6800    1.0000 </r>
       <r>  -10.3642    1.0000 </r>
       <r>  -10.2756    1.0000 </r>
       <r>   -5.9334    1.0000 </r>
       <r>   -4.7744    1.0000 </r>
       <r>   -2.6455    1.0000 </r>
       <r>   -2.2530    1.0000 </r>
       <r>   -2.0868    1.0000 </r>
       <r>   -1.6907    1.0000 </r>
       <r>   -1.3440    1.0000 </r>
       <r>   -0.9983    1.0000 </r>
       <r>   -0.7701    1.0000 </r>
       <r>   -0.6211    1.0000 </r>
       <r>   -0.5578    1.0000 </r>
       <r>   -0.4403    1.0000 </r>
       <r>   -0.3592    1.0000 </r>
       <r>   -0.2410    1.0000 </r>
       <r>   -0.1925    1.0000 </r>
       <r>   -0.1683    1.0000 </r>
       <r>   -0.0429    1.0000 </r>
       <r>    0.0376    1.0000 </r>
       <r>    1.2796    1.0000 </r>
       <r>    1.3341    1.0000 </r>
       <r>    1.3548    1.0000 </r>
       <r>    1.3919    1.0000 </r>
       <r>    1.4266    1.0000 </r>
       <r>    1.4715    1.0000 </r>
       <r>    1.4976    1.0000 </r>
       <r>    1.5299    1.0000 </r>
       <r>    1.7248    1.0000 </r>
       <r>    1.8599    1.0000 </r>
       <r>    2.0572    1.0000 </r>
       <r>    2.0954    1.0000 </r>
       <r>    2.2313    1.0000 </r>
       <r>    2.4154    1.0000 </r>
       <r>    2.5554    1.0000 </r>
       <r>    2.8269    1.0000 </r>
       <r>    2.9463    1.0000 </r>
       <r>    3.2427    1.0000 </r>
       <r>    3.6602    1.0000 </r>
       <r>    4.0383    1.0137 </r>
       <r>    6.1704   -0.0000 </r>
       <r>    6.9050   -0.0000 </r>
       <r>    8.1364    0.0000 </r>
       <r>    8.2688    0.0000 </r>
       <r>    8.5931    0.0000 </r>
       <r>    9.0133    0.0000 </r>
       <r>    9.2435    0.0000 </r>
       <r>    9.5309    0.0000 </r>
       <r>    9.8657    0.0000 </r>
       <r>   10.3763    0.0000 </r>
       <r>   10.6356    0.0000 </r>
       <r>   10.8131    0.0000 </r>
       <r>   10.9390    0.0000 </r>
       <r>   11.1904    0.0000 </r>
       <r>   11.6579    0.0000 </r>
       <r>   11.7699    0.0000 </r>
       <r>   12.1173    0.0000 </r>
       <r>   12.4420    0.0000 </r>
       <r>   12.6175    0.0000 </r>
       <r>   13.0078    0.0000 </r>
       <r>   13.5176    0.0000 </r>
       <r>   13.8959    0.0000 </r>
       <r>   14.2711    0.0000 </r>
       <r>   14.8418    0.0000 </r>
      </set>
      <set comment="kpoint 5">
       <r>  -68.6454    1.0000 </r>
       <r>  -68.6448    1.0000 </r>
       <r>  -68.6355    1.0000 </r>
       <r>  -68.6336    1.0000 </r>
       <r>  -68.6133    1.0000 </r>
       <r>  -68.6126    1.0000 </r>
       <r>  -68.5957    1.0000 </r>
       <r>  -68.5952    1.0000 </r>
       <r>  -68.5804    1.0000 </r>
       <r>  -68.5781    1.0000 </r>
       <r>  -68.5616    1.0000 </r>
       <r>  -68.5610    1.0000 </r>
       <r>  -12.4416    1.0000 </r>
       <r>  -11.1902    1.0000 </r>
       <r>  -10.9448    1.0000 </r>
       <r>  -10.8798    1.0000 </r>
       <r>  -10.3903    1.0000 </r>
       <r>  -10.3478    1.0000 </r>
       <r>   -5.8761    1.0000 </r>
       <r>   -4.5227    1.0000 </r>
       <r>   -2.4179    1.0000 </r>
       <r>   -2.2460    1.0000 </r>
       <r>   -1.7930    1.0000 </r>
       <r>   -1.6826    1.0000 </r>
       <r>   -1.3559    1.0000 </r>
       <r>   -1.2994    1.0000 </r>
       <r>   -1.0811    1.0000 </r>
       <r>   -0.6849    1.0000 </r>
       <r>   -0.5253    1.0000 </r>
       <r>   -0.2958    1.0000 </r>
       <r>   -0.2841    1.0000 </r>
       <r>   -0.2221    1.0000 </r>
       <r>   -0.1866    1.0000 </r>
       <r>   -0.1235    1.0000 </r>
       <r>   -0.0917    1.0000 </r>
       <r>    0.0790    1.0000 </r>
       <r>    1.2927    1.0000 </r>
       <r>    1.3110    1.0000 </r>
       <r>    1.4162    1.0000 </r>
       <r>    1.4258    1.0000 </r>
       <r>    1.4627    1.0000 </r>
       <r>    1.4818    1.0000 </r>
       <r>    1.4938    1.0000 </r>
       <r>    1.5698    1.0000 </r>
       <r>    1.6713    1.0000 </r>
       <r>    1.8800    1.0000 </r>
       <r>    1.9411    1.0000 </r>
       <r>    2.1353    1.0000 </r>
       <r>    2.2807    1.0000 </r>
       <r>    2.3210    1.0000 </r>
       <r>    2.5605    1.0000 </r>
       <r>    2.6495    1.0000 </r>
       <r>    2.9012    1.0000 </r>
       <r>    2.9446    1.0000 </r>
       <r>    3.6976    1.0000 </r>
       <r>    3.8310    1.0000 </r>
       <r>    6.1718   -0.0000 </r>
       <r>    6.9898    0.0000 </r>
       <r>    8.0044    0.0000 </r>
       <r>    8.3270    0.0000 </r>
       <r>    8.4345    0.0000 </r>
       <r>    8.5714    0.0000 </r>
       <r>    9.1451    0.0000 </r>
       <r>    9.2486    0.0000 </r>
       <r>   10.3621    0.0000 </r>
       <r>   10.4963    0.0000 </r>
       <r>   10.9209    0.0000 </r>
       <r>   11.1854    0.0000 </r>
       <r>   11.3275    0.0000 </r>
       <r>   11.5590    0.0000 </r>
       <r>   11.8140    0.0000 </r>
       <r>   11.9624    0.0000 </r>
       <r>   12.3148    0.0000 </r>
       <r>   12.5032    0.0000 </r>
       <r>   12.7117    0.0000 </r>
       <r>   12.9118    0.0000 </r>
       <r>   13.3391    0.0000 </r>
       <r>   13.4443    0.0000 </r>
       <r>   14.2598    0.0000 </r>
       <r>   14.3678    0.0000 </r>
      </set>
      <set comment="kpoint 6">
       <r>  -68.6451    1.0000 </r>
       <r>  -68.6446    1.0000 </r>
       <r>  -68.6355    1.0000 </r>
       <r>  -68.6337    1.0000 </r>
       <r>  -68.6130    1.0000 </r>
       <r>  -68.6124    1.0000 </r>
       <r>  -68.5955    1.0000 </r>
       <r>  -68.5955    1.0000 </r>
       <r>  -68.5801    1.0000 </r>
       <r>  -68.5779    1.0000 </r>
       <r>  -68.5613    1.0000 </r>
       <r>  -68.5610    1.0000 </r>
       <r>  -12.4421    1.0000 </r>
       <r>  -11.3536    1.0000 </r>
       <r>  -10.9402    1.0000 </r>
       <r>  -10.7391    1.0000 </r>
       <r>  -10.3858    1.0000 </r>
       <r>  -10.2714    1.0000 </r>
       <r>   -5.9479    1.0000 </r>
       <r>   -4.6441    1.0000 </r>
       <r>   -2.3914    1.0000 </r>
       <r>   -2.2271    1.0000 </r>
       <r>   -2.0575    1.0000 </r>
       <r>   -1.6405    1.0000 </r>
       <r>   -1.3625    1.0000 </r>
       <r>   -1.2827    1.0000 </r>
       <r>   -1.0220    1.0000 </r>
       <r>   -0.5106    1.0000 </r>
       <r>   -0.4828    1.0000 </r>
       <r>   -0.3311    1.0000 </r>
       <r>   -0.2819    1.0000 </r>
       <r>   -0.2201    1.0000 </r>
       <r>   -0.1522    1.0000 </r>
       <r>   -0.1327    1.0000 </r>
       <r>   -0.0114    1.0000 </r>
       <r>    0.1144    1.0000 </r>
       <r>    1.2460    1.0000 </r>
       <r>    1.3151    1.0000 </r>
       <r>    1.3827    1.0000 </r>
       <r>    1.4375    1.0000 </r>
       <r>    1.4620    1.0000 </r>
       <r>    1.4911    1.0000 </r>
       <r>    1.4960    1.0000 </r>
       <r>    1.5495    1.0000 </r>
       <r>    1.7485    1.0000 </r>
       <r>    1.8295    1.0000 </r>
       <r>    1.9215    1.0000 </r>
       <r>    2.1349    1.0000 </r>
       <r>    2.2215    1.0000 </r>
       <r>    2.3850    1.0000 </r>
       <r>    2.5637    1.0000 </r>
       <r>    2.7892    1.0000 </r>
       <r>    2.9778    1.0000 </r>
       <r>    3.3106    1.0000 </r>
       <r>    3.6023    1.0000 </r>
       <r>    3.7484    1.0000 </r>
       <r>    6.0882   -0.0000 </r>
       <r>    6.9390   -0.0000 </r>
       <r>    7.6121    0.0000 </r>
       <r>    8.0680    0.0000 </r>
       <r>    8.4107    0.0000 </r>
       <r>    8.6151    0.0000 </r>
       <r>    8.9827    0.0000 </r>
       <r>    9.1518    0.0000 </r>
       <r>   10.0878    0.0000 </r>
       <r>   10.3358    0.0000 </r>
       <r>   10.7325    0.0000 </r>
       <r>   11.1085    0.0000 </r>
       <r>   11.4607    0.0000 </r>
       <r>   11.5948    0.0000 </r>
       <r>   11.8000    0.0000 </r>
       <r>   12.0824    0.0000 </r>
       <r>   12.4793    0.0000 </r>
       <r>   12.9193    0.0000 </r>
       <r>   13.0334    0.0000 </r>
       <r>   13.8413    0.0000 </r>
       <r>   14.2194    0.0000 </r>
       <r>   14.6578    0.0000 </r>
       <r>   15.4302    0.0000 </r>
       <r>   15.6396    0.0000 </r>
      </set>
      <set comment="kpoint 7">
       <r>  -68.6453    1.0000 </r>
       <r>  -68.6447    1.0000 </r>
       <r>  -68.6356    1.0000 </r>
       <r>  -68.6336    1.0000 </r>
       <r>  -68.6131    1.0000 </r>
       <r>  -68.6124    1.0000 </r>
       <r>  -68.5958    1.0000 </r>
       <r>  -68.5953    1.0000 </r>
       <r>  -68.5802    1.0000 </r>
       <r>  -68.5779    1.0000 </r>
       <r>  -68.5616    1.0000 </r>
       <r>  -68.5610    1.0000 </r>
       <r>  -12.6001    1.0000 </r>
       <r>  -11.2507    1.0000 </r>
       <r>  -10.9936    1.0000 </r>
       <r>  -10.5722    1.0000 </r>
       <r>  -10.3634    1.0000 </r>
       <r>  -10.1794    1.0000 </r>
       <r>   -6.0103    1.0000 </r>
       <r>   -4.8965    1.0000 </r>
       <r>   -2.6469    1.0000 </r>
       <r>   -2.3147    1.0000 </r>
       <r>   -1.9711    1.0000 </r>
       <r>   -1.6464    1.0000 </r>
       <r>   -1.4960    1.0000 </r>
       <r>   -1.1841    1.0000 </r>
       <r>   -0.7879    1.0000 </r>
       <r>   -0.5859    1.0000 </r>
       <r>   -0.4482    1.0000 </r>
       <r>   -0.3346    1.0000 </r>
       <r>   -0.2939    1.0000 </r>
       <r>   -0.2315    1.0000 </r>
       <r>   -0.1766    1.0000 </r>
       <r>   -0.1332    1.0000 </r>
       <r>   -0.0107    1.0000 </r>
       <r>    0.0743    1.0000 </r>
       <r>    1.2586    1.0000 </r>
       <r>    1.3208    1.0000 </r>
       <r>    1.3652    1.0000 </r>
       <r>    1.4225    1.0000 </r>
       <r>    1.4302    1.0000 </r>
       <r>    1.4754    1.0000 </r>
       <r>    1.5035    1.0000 </r>
       <r>    1.5436    1.0000 </r>
       <r>    1.7255    1.0000 </r>
       <r>    1.8124    1.0000 </r>
       <r>    1.9955    1.0000 </r>
       <r>    2.0731    1.0000 </r>
       <r>    2.4175    1.0000 </r>
       <r>    2.4637    1.0000 </r>
       <r>    2.5295    1.0000 </r>
       <r>    2.8734    1.0000 </r>
       <r>    3.1412    1.0000 </r>
       <r>    3.2269    1.0000 </r>
       <r>    3.7838    1.0000 </r>
       <r>    4.0688    1.0270 </r>
       <r>    5.9790   -0.0000 </r>
       <r>    6.6877   -0.0000 </r>
       <r>    7.5349    0.0000 </r>
       <r>    8.2221    0.0000 </r>
       <r>    8.6174    0.0000 </r>
       <r>    8.9123    0.0000 </r>
       <r>    9.3079    0.0000 </r>
       <r>    9.4312    0.0000 </r>
       <r>    9.8040    0.0000 </r>
       <r>   10.2724    0.0000 </r>
       <r>   10.5425    0.0000 </r>
       <r>   10.8318    0.0000 </r>
       <r>   10.9716    0.0000 </r>
       <r>   11.3813    0.0000 </r>
       <r>   11.4678    0.0000 </r>
       <r>   11.7340    0.0000 </r>
       <r>   12.1000    0.0000 </r>
       <r>   12.6639    0.0000 </r>
       <r>   12.9412    0.0000 </r>
       <r>   13.1033    0.0000 </r>
       <r>   13.3529    0.0000 </r>
       <r>   13.5208    0.0000 </r>
       <r>   14.4767    0.0000 </r>
       <r>   14.7562    0.0000 </r>
      </set>
      <set comment="kpoint 8">
       <r>  -68.6452    1.0000 </r>
       <r>  -68.6446    1.0000 </r>
       <r>  -68.6355    1.0000 </r>
       <r>  -68.6336    1.0000 </r>
       <r>  -68.6131    1.0000 </r>
       <r>  -68.6125    1.0000 </r>
       <r>  -68.5958    1.0000 </r>
       <r>  -68.5953    1.0000 </r>
       <r>  -68.5803    1.0000 </r>
       <r>  -68.5779    1.0000 </r>
       <r>  -68.5614    1.0000 </r>
       <r>  -68.5609    1.0000 </r>
       <r>  -12.4380    1.0000 </r>
       <r>  -11.2472    1.0000 </r>
       <r>  -10.9584    1.0000 </r>
       <r>  -10.7690    1.0000 </r>
       <r>  -10.4256    1.0000 </r>
       <r>  -10.3551    1.0000 </r>
       <r>   -5.8710    1.0000 </r>
       <r>   -4.5495    1.0000 </r>
       <r>   -2.4945    1.0000 </r>
       <r>   -2.2452    1.0000 </r>
       <r>   -1.9453    1.0000 </r>
       <r>   -1.4665    1.0000 </r>
       <r>   -1.2241    1.0000 </r>
       <r>   -1.1040    1.0000 </r>
       <r>   -0.9024    1.0000 </r>
       <r>   -0.8632    1.0000 </r>
       <r>   -0.5999    1.0000 </r>
       <r>   -0.5385    1.0000 </r>
       <r>   -0.2705    1.0000 </r>
       <r>   -0.2080    1.0000 </r>
       <r>   -0.1991    1.0000 </r>
       <r>   -0.1443    1.0000 </r>
       <r>   -0.0275    1.0000 </r>
       <r>    0.0795    1.0000 </r>
       <r>    1.2545    1.0000 </r>
       <r>    1.3272    1.0000 </r>
       <r>    1.3473    1.0000 </r>
       <r>    1.3973    1.0000 </r>
       <r>    1.4703    1.0000 </r>
       <r>    1.4772    1.0000 </r>
       <r>    1.4991    1.0000 </r>
       <r>    1.5532    1.0000 </r>
       <r>    1.7517    1.0000 </r>
       <r>    1.7915    1.0000 </r>
       <r>    1.9674    1.0000 </r>
       <r>    2.1472    1.0000 </r>
       <r>    2.3193    1.0000 </r>
       <r>    2.3655    1.0000 </r>
       <r>    2.5545    1.0000 </r>
       <r>    2.6707    1.0000 </r>
       <r>    2.9375    1.0000 </r>
       <r>    3.0798    1.0000 </r>
       <r>    3.2483    1.0000 </r>
       <r>    3.8592    1.0000 </r>
       <r>    6.3853   -0.0000 </r>
       <r>    7.0959    0.0000 </r>
       <r>    7.9791    0.0000 </r>
       <r>    8.2038    0.0000 </r>
       <r>    8.5184    0.0000 </r>
       <r>    8.8212    0.0000 </r>
       <r>    9.3272    0.0000 </r>
       <r>    9.8899    0.0000 </r>
       <r>   10.0121    0.0000 </r>
       <r>   10.5204    0.0000 </r>
       <r>   10.6922    0.0000 </r>
       <r>   10.7941    0.0000 </r>
       <r>   11.1404    0.0000 </r>
       <r>   11.4041    0.0000 </r>
       <r>   11.6119    0.0000 </r>
       <r>   11.7726    0.0000 </r>
       <r>   11.9473    0.0000 </r>
       <r>   12.5067    0.0000 </r>
       <r>   12.8237    0.0000 </r>
       <r>   13.0304    0.0000 </r>
       <r>   13.5478    0.0000 </r>
       <r>   13.6856    0.0000 </r>
       <r>   14.5517    0.0000 </r>
       <r>   15.2506    0.0000 </r>
      </set>
      <set comment="kpoint 9">
       <r>  -68.6451    1.0000 </r>
       <r>  -68.6445    1.0000 </r>
       <r>  -68.6355    1.0000 </r>
       <r>  -68.6337    1.0000 </r>
       <r>  -68.6129    1.0000 </r>
       <r>  -68.6126    1.0000 </r>
       <r>  -68.5956    1.0000 </r>
       <r>  -68.5955    1.0000 </r>
       <r>  -68.5802    1.0000 </r>
       <r>  -68.5779    1.0000 </r>
       <r>  -68.5613    1.0000 </r>
       <r>  -68.5610    1.0000 </r>
       <r>  -12.4423    1.0000 </r>
       <r>  -11.3527    1.0000 </r>
       <r>  -10.9398    1.0000 </r>
       <r>  -10.7406    1.0000 </r>
       <r>  -10.3862    1.0000 </r>
       <r>  -10.2706    1.0000 </r>
       <r>   -5.9479    1.0000 </r>
       <r>   -4.6442    1.0000 </r>
       <r>   -2.3928    1.0000 </r>
       <r>   -2.2266    1.0000 </r>
       <r>   -2.0565    1.0000 </r>
       <r>   -1.6415    1.0000 </r>
       <r>   -1.3616    1.0000 </r>
       <r>   -1.2806    1.0000 </r>
       <r>   -1.0226    1.0000 </r>
       <r>   -0.5102    1.0000 </r>
       <r>   -0.4869    1.0000 </r>
       <r>   -0.3325    1.0000 </r>
       <r>   -0.2851    1.0000 </r>
       <r>   -0.2143    1.0000 </r>
       <r>   -0.1506    1.0000 </r>
       <r>   -0.1341    1.0000 </r>
       <r>   -0.0098    1.0000 </r>
       <r>    0.1139    1.0000 </r>
       <r>    1.2463    1.0000 </r>
       <r>    1.3155    1.0000 </r>
       <r>    1.3826    1.0000 </r>
       <r>    1.4359    1.0000 </r>
       <r>    1.4619    1.0000 </r>
       <r>    1.4917    1.0000 </r>
       <r>    1.4962    1.0000 </r>
       <r>    1.5501    1.0000 </r>
       <r>    1.7495    1.0000 </r>
       <r>    1.8273    1.0000 </r>
       <r>    1.9230    1.0000 </r>
       <r>    2.1337    1.0000 </r>
       <r>    2.2213    1.0000 </r>
       <r>    2.3875    1.0000 </r>
       <r>    2.5624    1.0000 </r>
       <r>    2.7911    1.0000 </r>
       <r>    2.9766    1.0000 </r>
       <r>    3.3117    1.0000 </r>
       <r>    3.6009    1.0000 </r>
       <r>    3.7467    1.0000 </r>
       <r>    6.0885   -0.0000 </r>
       <r>    6.9385   -0.0000 </r>
       <r>    7.6121    0.0000 </r>
       <r>    8.0688    0.0000 </r>
       <r>    8.4095    0.0000 </r>
       <r>    8.6160    0.0000 </r>
       <r>    8.9831    0.0000 </r>
       <r>    9.1511    0.0000 </r>
       <r>   10.0882    0.0000 </r>
       <r>   10.3350    0.0000 </r>
       <r>   10.7334    0.0000 </r>
       <r>   11.1080    0.0000 </r>
       <r>   11.4602    0.0000 </r>
       <r>   11.5772    0.0000 </r>
       <r>   11.7867    0.0000 </r>
       <r>   12.0322    0.0000 </r>
       <r>   12.5212    0.0000 </r>
       <r>   12.6883    0.0000 </r>
       <r>   12.9124    0.0000 </r>
       <r>   13.2104    0.0000 </r>
       <r>   14.2337    0.0000 </r>
       <r>   14.7675    0.0000 </r>
       <r>   15.2514    0.0000 </r>
       <r>   15.9121    0.0000 </r>
      </set>
      <set comment="kpoint 10">
       <r>  -68.6450    1.0000 </r>
       <r>  -68.6443    1.0000 </r>
       <r>  -68.6353    1.0000 </r>
       <r>  -68.6335    1.0000 </r>
       <r>  -68.6128    1.0000 </r>
       <r>  -68.6125    1.0000 </r>
       <r>  -68.5955    1.0000 </r>
       <r>  -68.5951    1.0000 </r>
       <r>  -68.5801    1.0000 </r>
       <r>  -68.5778    1.0000 </r>
       <r>  -68.5612    1.0000 </r>
       <r>  -68.5607    1.0000 </r>
       <r>  -12.4345    1.0000 </r>
       <r>  -11.5003    1.0000 </r>
       <r>  -10.9154    1.0000 </r>
       <r>  -10.6197    1.0000 </r>
       <r>  -10.3943    1.0000 </r>
       <r>  -10.1987    1.0000 </r>
       <r>   -6.0265    1.0000 </r>
       <r>   -4.8128    1.0000 </r>
       <r>   -2.3135    1.0000 </r>
       <r>   -2.2640    1.0000 </r>
       <r>   -2.0929    1.0000 </r>
       <r>   -1.7009    1.0000 </r>
       <r>   -1.2438    1.0000 </r>
       <r>   -1.1139    1.0000 </r>
       <r>   -0.8420    1.0000 </r>
       <r>   -0.7818    1.0000 </r>
       <r>   -0.7285    1.0000 </r>
       <r>   -0.2449    1.0000 </r>
       <r>   -0.1970    1.0000 </r>
       <r>   -0.1775    1.0000 </r>
       <r>   -0.1556    1.0000 </r>
       <r>   -0.0431    1.0000 </r>
       <r>   -0.0046    1.0000 </r>
       <r>    0.1868    1.0000 </r>
       <r>    1.2649    1.0000 </r>
       <r>    1.3180    1.0000 </r>
       <r>    1.3757    1.0000 </r>
       <r>    1.4136    1.0000 </r>
       <r>    1.4330    1.0000 </r>
       <r>    1.4928    1.0000 </r>
       <r>    1.5084    1.0000 </r>
       <r>    1.5499    1.0000 </r>
       <r>    1.7875    1.0000 </r>
       <r>    1.8477    1.0000 </r>
       <r>    1.9972    1.0000 </r>
       <r>    2.1499    1.0000 </r>
       <r>    2.2531    1.0000 </r>
       <r>    2.3373    1.0000 </r>
       <r>    2.5590    1.0000 </r>
       <r>    2.7626    1.0000 </r>
       <r>    2.7760    1.0000 </r>
       <r>    3.3679    1.0000 </r>
       <r>    3.7636    1.0000 </r>
       <r>    4.0051    1.0048 </r>
       <r>    5.8551   -0.0000 </r>
       <r>    6.7638   -0.0000 </r>
       <r>    7.0852    0.0000 </r>
       <r>    8.4107    0.0000 </r>
       <r>    8.5611    0.0000 </r>
       <r>    8.7707    0.0000 </r>
       <r>    9.1419    0.0000 </r>
       <r>    9.2393    0.0000 </r>
       <r>    9.9596    0.0000 </r>
       <r>   10.2833    0.0000 </r>
       <r>   10.7261    0.0000 </r>
       <r>   10.8246    0.0000 </r>
       <r>   10.8757    0.0000 </r>
       <r>   11.2764    0.0000 </r>
       <r>   11.7545    0.0000 </r>
       <r>   11.9158    0.0000 </r>
       <r>   11.9741    0.0000 </r>
       <r>   12.3673    0.0000 </r>
       <r>   12.5403    0.0000 </r>
       <r>   13.4571    0.0000 </r>
       <r>   14.2792    0.0000 </r>
       <r>   14.6730    0.0000 </r>
       <r>   16.7505    0.0000 </r>
       <r>   16.7537    0.0000 </r>
      </set>
      <set comment="kpoint 11">
       <r>  -68.6454    1.0000 </r>
       <r>  -68.6448    1.0000 </r>
       <r>  -68.6356    1.0000 </r>
       <r>  -68.6337    1.0000 </r>
       <r>  -68.6132    1.0000 </r>
       <r>  -68.6125    1.0000 </r>
       <r>  -68.5959    1.0000 </r>
       <r>  -68.5953    1.0000 </r>
       <r>  -68.5803    1.0000 </r>
       <r>  -68.5780    1.0000 </r>
       <r>  -68.5616    1.0000 </r>
       <r>  -68.5610    1.0000 </r>
       <r>  -12.6187    1.0000 </r>
       <r>  -11.4262    1.0000 </r>
       <r>  -10.7795    1.0000 </r>
       <r>  -10.6089    1.0000 </r>
       <r>  -10.2487    1.0000 </r>
       <r>  -10.2357    1.0000 </r>
       <r>   -5.8315    1.0000 </r>
       <r>   -5.0480    1.0000 </r>
       <r>   -2.5999    1.0000 </r>
       <r>   -2.3737    1.0000 </r>
       <r>   -1.9622    1.0000 </r>
       <r>   -1.7746    1.0000 </r>
       <r>   -1.4442    1.0000 </r>
       <r>   -1.1280    1.0000 </r>
       <r>   -1.0639    1.0000 </r>
       <r>   -0.7723    1.0000 </r>
       <r>   -0.4716    1.0000 </r>
       <r>   -0.2942    1.0000 </r>
       <r>   -0.2386    1.0000 </r>
       <r>   -0.2349    1.0000 </r>
       <r>   -0.1913    1.0000 </r>
       <r>   -0.1456    1.0000 </r>
       <r>   -0.0132    1.0000 </r>
       <r>    0.0215    1.0000 </r>
       <r>    1.3335    1.0000 </r>
       <r>    1.3810    1.0000 </r>
       <r>    1.4157    1.0000 </r>
       <r>    1.4392    1.0000 </r>
       <r>    1.4644    1.0000 </r>
       <r>    1.4654    1.0000 </r>
       <r>    1.5139    1.0000 </r>
       <r>    1.5457    1.0000 </r>
       <r>    1.6330    1.0000 </r>
       <r>    1.7586    1.0000 </r>
       <r>    1.7876    1.0000 </r>
       <r>    1.9505    1.0000 </r>
       <r>    2.0890    1.0000 </r>
       <r>    2.6618    1.0000 </r>
       <r>    2.7174    1.0000 </r>
       <r>    3.1971    1.0000 </r>
       <r>    3.2511    1.0000 </r>
       <r>    3.5193    1.0000 </r>
       <r>    3.8937    1.0000 </r>
       <r>    3.9768    1.0015 </r>
       <r>    6.0457   -0.0000 </r>
       <r>    6.4165   -0.0000 </r>
       <r>    7.8240    0.0000 </r>
       <r>    7.9076    0.0000 </r>
       <r>    8.3644    0.0000 </r>
       <r>    8.8182    0.0000 </r>
       <r>    9.7752    0.0000 </r>
       <r>    9.7956    0.0000 </r>
       <r>   10.0634    0.0000 </r>
       <r>   10.5866    0.0000 </r>
       <r>   10.6446    0.0000 </r>
       <r>   10.8114    0.0000 </r>
       <r>   10.8568    0.0000 </r>
       <r>   11.4934    0.0000 </r>
       <r>   11.5577    0.0000 </r>
       <r>   12.0277    0.0000 </r>
       <r>   12.5801    0.0000 </r>
       <r>   12.7769    0.0000 </r>
       <r>   12.9119    0.0000 </r>
       <r>   13.2046    0.0000 </r>
       <r>   13.5343    0.0000 </r>
       <r>   13.8236    0.0000 </r>
       <r>   14.1945    0.0000 </r>
       <r>   14.7066    0.0000 </r>
      </set>
      <set comment="kpoint 12">
       <r>  -68.6453    1.0000 </r>
       <r>  -68.6447    1.0000 </r>
       <r>  -68.6356    1.0000 </r>
       <r>  -68.6337    1.0000 </r>
       <r>  -68.6132    1.0000 </r>
       <r>  -68.6126    1.0000 </r>
       <r>  -68.5958    1.0000 </r>
       <r>  -68.5953    1.0000 </r>
       <r>  -68.5803    1.0000 </r>
       <r>  -68.5780    1.0000 </r>
       <r>  -68.5615    1.0000 </r>
       <r>  -68.5610    1.0000 </r>
       <r>  -12.4596    1.0000 </r>
       <r>  -11.4675    1.0000 </r>
       <r>  -10.8663    1.0000 </r>
       <r>  -10.6892    1.0000 </r>
       <r>  -10.3718    1.0000 </r>
       <r>  -10.2440    1.0000 </r>
       <r>   -5.7669    1.0000 </r>
       <r>   -4.8050    1.0000 </r>
       <r>   -2.4448    1.0000 </r>
       <r>   -2.2342    1.0000 </r>
       <r>   -1.8503    1.0000 </r>
       <r>   -1.7148    1.0000 </r>
       <r>   -1.4338    1.0000 </r>
       <r>   -1.1902    1.0000 </r>
       <r>   -0.8909    1.0000 </r>
       <r>   -0.7428    1.0000 </r>
       <r>   -0.6081    1.0000 </r>
       <r>   -0.5239    1.0000 </r>
       <r>   -0.3106    1.0000 </r>
       <r>   -0.2414    1.0000 </r>
       <r>   -0.1730    1.0000 </r>
       <r>   -0.1229    1.0000 </r>
       <r>   -0.0506    1.0000 </r>
       <r>    0.0600    1.0000 </r>
       <r>    1.3013    1.0000 </r>
       <r>    1.3357    1.0000 </r>
       <r>    1.3697    1.0000 </r>
       <r>    1.4310    1.0000 </r>
       <r>    1.4457    1.0000 </r>
       <r>    1.4790    1.0000 </r>
       <r>    1.5204    1.0000 </r>
       <r>    1.5461    1.0000 </r>
       <r>    1.6425    1.0000 </r>
       <r>    1.8714    1.0000 </r>
       <r>    1.9787    1.0000 </r>
       <r>    2.0485    1.0000 </r>
       <r>    2.1951    1.0000 </r>
       <r>    2.4764    1.0000 </r>
       <r>    2.5962    1.0000 </r>
       <r>    2.8379    1.0000 </r>
       <r>    2.9621    1.0000 </r>
       <r>    3.1325    1.0000 </r>
       <r>    3.5671    1.0000 </r>
       <r>    3.7248    1.0000 </r>
       <r>    6.4414   -0.0000 </r>
       <r>    6.9571    0.0000 </r>
       <r>    8.1710    0.0000 </r>
       <r>    8.2465    0.0000 </r>
       <r>    8.8334    0.0000 </r>
       <r>    9.1289    0.0000 </r>
       <r>    9.4650    0.0000 </r>
       <r>    9.7950    0.0000 </r>
       <r>   10.0849    0.0000 </r>
       <r>   10.2970    0.0000 </r>
       <r>   10.7437    0.0000 </r>
       <r>   11.0786    0.0000 </r>
       <r>   11.2895    0.0000 </r>
       <r>   11.4236    0.0000 </r>
       <r>   11.6330    0.0000 </r>
       <r>   11.7227    0.0000 </r>
       <r>   12.0858    0.0000 </r>
       <r>   12.2668    0.0000 </r>
       <r>   12.5426    0.0000 </r>
       <r>   12.6582    0.0000 </r>
       <r>   12.9527    0.0000 </r>
       <r>   13.0623    0.0000 </r>
       <r>   13.6400    0.0000 </r>
       <r>   14.6885    0.0000 </r>
      </set>
      <set comment="kpoint 13">
       <r>  -68.6451    1.0000 </r>
       <r>  -68.6446    1.0000 </r>
       <r>  -68.6355    1.0000 </r>
       <r>  -68.6336    1.0000 </r>
       <r>  -68.6131    1.0000 </r>
       <r>  -68.6124    1.0000 </r>
       <r>  -68.5957    1.0000 </r>
       <r>  -68.5952    1.0000 </r>
       <r>  -68.5802    1.0000 </r>
       <r>  -68.5779    1.0000 </r>
       <r>  -68.5613    1.0000 </r>
       <r>  -68.5611    1.0000 </r>
       <r>  -12.3573    1.0000 </r>
       <r>  -11.4147    1.0000 </r>
       <r>  -10.9545    1.0000 </r>
       <r>  -10.6845    1.0000 </r>
       <r>  -10.4767    1.0000 </r>
       <r>  -10.3332    1.0000 </r>
       <r>   -5.7520    1.0000 </r>
       <r>   -4.7228    1.0000 </r>
       <r>   -2.5233    1.0000 </r>
       <r>   -2.1850    1.0000 </r>
       <r>   -1.9541    1.0000 </r>
       <r>   -1.5350    1.0000 </r>
       <r>   -1.3013    1.0000 </r>
       <r>   -1.0978    1.0000 </r>
       <r>   -0.8678    1.0000 </r>
       <r>   -0.7611    1.0000 </r>
       <r>   -0.5485    1.0000 </r>
       <r>   -0.4451    1.0000 </r>
       <r>   -0.2913    1.0000 </r>
       <r>   -0.1799    1.0000 </r>
       <r>   -0.1449    1.0000 </r>
       <r>   -0.1042    1.0000 </r>
       <r>   -0.0447    1.0000 </r>
       <r>    0.0229    1.0000 </r>
       <r>    1.2718    1.0000 </r>
       <r>    1.2966    1.0000 </r>
       <r>    1.3514    1.0000 </r>
       <r>    1.4283    1.0000 </r>
       <r>    1.4521    1.0000 </r>
       <r>    1.4804    1.0000 </r>
       <r>    1.5011    1.0000 </r>
       <r>    1.5878    1.0000 </r>
       <r>    1.7187    1.0000 </r>
       <r>    1.9346    1.0000 </r>
       <r>    2.0773    1.0000 </r>
       <r>    2.1465    1.0000 </r>
       <r>    2.2669    1.0000 </r>
       <r>    2.4036    1.0000 </r>
       <r>    2.5691    1.0000 </r>
       <r>    2.5978    1.0000 </r>
       <r>    2.8968    1.0000 </r>
       <r>    3.0075    1.0000 </r>
       <r>    3.3581    1.0000 </r>
       <r>    3.8998    1.0000 </r>
       <r>    6.3652   -0.0000 </r>
       <r>    6.8973   -0.0000 </r>
       <r>    7.5742    0.0000 </r>
       <r>    8.0839    0.0000 </r>
       <r>    8.5486    0.0000 </r>
       <r>    8.7975    0.0000 </r>
       <r>    9.2777    0.0000 </r>
       <r>    9.6286    0.0000 </r>
       <r>    9.9315    0.0000 </r>
       <r>   10.2767    0.0000 </r>
       <r>   10.6598    0.0000 </r>
       <r>   10.9274    0.0000 </r>
       <r>   10.9720    0.0000 </r>
       <r>   11.2786    0.0000 </r>
       <r>   11.5192    0.0000 </r>
       <r>   11.7889    0.0000 </r>
       <r>   12.2477    0.0000 </r>
       <r>   12.5479    0.0000 </r>
       <r>   13.0946    0.0000 </r>
       <r>   13.5147    0.0000 </r>
       <r>   14.2974    0.0000 </r>
       <r>   14.5678    0.0000 </r>
       <r>   15.1281    0.0000 </r>
       <r>   16.2634    0.0000 </r>
      </set>
      <set comment="kpoint 14">
       <r>  -68.6454    1.0000 </r>
       <r>  -68.6448    1.0000 </r>
       <r>  -68.6356    1.0000 </r>
       <r>  -68.6336    1.0000 </r>
       <r>  -68.6132    1.0000 </r>
       <r>  -68.6125    1.0000 </r>
       <r>  -68.5959    1.0000 </r>
       <r>  -68.5953    1.0000 </r>
       <r>  -68.5803    1.0000 </r>
       <r>  -68.5780    1.0000 </r>
       <r>  -68.5616    1.0000 </r>
       <r>  -68.5610    1.0000 </r>
       <r>  -12.5424    1.0000 </r>
       <r>  -11.3385    1.0000 </r>
       <r>  -10.8741    1.0000 </r>
       <r>  -10.6072    1.0000 </r>
       <r>  -10.3965    1.0000 </r>
       <r>  -10.2821    1.0000 </r>
       <r>   -5.8250    1.0000 </r>
       <r>   -4.9757    1.0000 </r>
       <r>   -2.6653    1.0000 </r>
       <r>   -2.4544    1.0000 </r>
       <r>   -2.0376    1.0000 </r>
       <r>   -1.5773    1.0000 </r>
       <r>   -1.1727    1.0000 </r>
       <r>   -0.9848    1.0000 </r>
       <r>   -0.7956    1.0000 </r>
       <r>   -0.6501    1.0000 </r>
       <r>   -0.5180    1.0000 </r>
       <r>   -0.3885    1.0000 </r>
       <r>   -0.2721    1.0000 </r>
       <r>   -0.2560    1.0000 </r>
       <r>   -0.1929    1.0000 </r>
       <r>   -0.1423    1.0000 </r>
       <r>   -0.0435    1.0000 </r>
       <r>    0.0123    1.0000 </r>
       <r>    1.2898    1.0000 </r>
       <r>    1.3094    1.0000 </r>
       <r>    1.3891    1.0000 </r>
       <r>    1.4083    1.0000 </r>
       <r>    1.4339    1.0000 </r>
       <r>    1.4555    1.0000 </r>
       <r>    1.4921    1.0000 </r>
       <r>    1.5661    1.0000 </r>
       <r>    1.6868    1.0000 </r>
       <r>    1.9157    1.0000 </r>
       <r>    1.9862    1.0000 </r>
       <r>    2.1453    1.0000 </r>
       <r>    2.3359    1.0000 </r>
       <r>    2.5663    1.0000 </r>
       <r>    2.6176    1.0000 </r>
       <r>    2.8261    1.0000 </r>
       <r>    2.9741    1.0000 </r>
       <r>    3.2465    1.0000 </r>
       <r>    3.6837    1.0000 </r>
       <r>    3.9446    1.0003 </r>
       <r>    6.1784   -0.0000 </r>
       <r>    6.6384   -0.0000 </r>
       <r>    7.7660    0.0000 </r>
       <r>    7.9724    0.0000 </r>
       <r>    8.2139    0.0000 </r>
       <r>    8.5611    0.0000 </r>
       <r>    9.3787    0.0000 </r>
       <r>    9.5776    0.0000 </r>
       <r>    9.9077    0.0000 </r>
       <r>   10.2516    0.0000 </r>
       <r>   10.5447    0.0000 </r>
       <r>   10.7890    0.0000 </r>
       <r>   10.8404    0.0000 </r>
       <r>   11.0691    0.0000 </r>
       <r>   11.5657    0.0000 </r>
       <r>   12.0245    0.0000 </r>
       <r>   12.5271    0.0000 </r>
       <r>   12.7514    0.0000 </r>
       <r>   12.9538    0.0000 </r>
       <r>   13.3072    0.0000 </r>
       <r>   13.4125    0.0000 </r>
       <r>   13.7400    0.0000 </r>
       <r>   13.8483    0.0000 </r>
       <r>   14.7266    0.0000 </r>
      </set>
      <set comment="kpoint 15">
       <r>  -68.6453    1.0000 </r>
       <r>  -68.6447    1.0000 </r>
       <r>  -68.6356    1.0000 </r>
       <r>  -68.6337    1.0000 </r>
       <r>  -68.6132    1.0000 </r>
       <r>  -68.6126    1.0000 </r>
       <r>  -68.5958    1.0000 </r>
       <r>  -68.5953    1.0000 </r>
       <r>  -68.5803    1.0000 </r>
       <r>  -68.5780    1.0000 </r>
       <r>  -68.5616    1.0000 </r>
       <r>  -68.5610    1.0000 </r>
       <r>  -12.4597    1.0000 </r>
       <r>  -11.4676    1.0000 </r>
       <r>  -10.8631    1.0000 </r>
       <r>  -10.6921    1.0000 </r>
       <r>  -10.3724    1.0000 </r>
       <r>  -10.2435    1.0000 </r>
       <r>   -5.7669    1.0000 </r>
       <r>   -4.8051    1.0000 </r>
       <r>   -2.4454    1.0000 </r>
       <r>   -2.2340    1.0000 </r>
       <r>   -1.8510    1.0000 </r>
       <r>   -1.7155    1.0000 </r>
       <r>   -1.4303    1.0000 </r>
       <r>   -1.1884    1.0000 </r>
       <r>   -0.8924    1.0000 </r>
       <r>   -0.7471    1.0000 </r>
       <r>   -0.6054    1.0000 </r>
       <r>   -0.5264    1.0000 </r>
       <r>   -0.3108    1.0000 </r>
       <r>   -0.2420    1.0000 </r>
       <r>   -0.1714    1.0000 </r>
       <r>   -0.1222    1.0000 </r>
       <r>   -0.0494    1.0000 </r>
       <r>    0.0592    1.0000 </r>
       <r>    1.3026    1.0000 </r>
       <r>    1.3357    1.0000 </r>
       <r>    1.3691    1.0000 </r>
       <r>    1.4306    1.0000 </r>
       <r>    1.4458    1.0000 </r>
       <r>    1.4792    1.0000 </r>
       <r>    1.5213    1.0000 </r>
       <r>    1.5463    1.0000 </r>
       <r>    1.6424    1.0000 </r>
       <r>    1.8713    1.0000 </r>
       <r>    1.9792    1.0000 </r>
       <r>    2.0480    1.0000 </r>
       <r>    2.1944    1.0000 </r>
       <r>    2.4766    1.0000 </r>
       <r>    2.5942    1.0000 </r>
       <r>    2.8377    1.0000 </r>
       <r>    2.9635    1.0000 </r>
       <r>    3.1339    1.0000 </r>
       <r>    3.5664    1.0000 </r>
       <r>    3.7233    1.0000 </r>
       <r>    6.4417   -0.0000 </r>
       <r>    6.9562    0.0000 </r>
       <r>    8.1704    0.0000 </r>
       <r>    8.2466    0.0000 </r>
       <r>    8.8338    0.0000 </r>
       <r>    9.1290    0.0000 </r>
       <r>    9.4656    0.0000 </r>
       <r>    9.7962    0.0000 </r>
       <r>   10.0841    0.0000 </r>
       <r>   10.2994    0.0000 </r>
       <r>   10.7404    0.0000 </r>
       <r>   11.0786    0.0000 </r>
       <r>   11.2902    0.0000 </r>
       <r>   11.4233    0.0000 </r>
       <r>   11.6353    0.0000 </r>
       <r>   11.7243    0.0000 </r>
       <r>   12.0858    0.0000 </r>
       <r>   12.2661    0.0000 </r>
       <r>   12.5436    0.0000 </r>
       <r>   12.6559    0.0000 </r>
       <r>   12.9519    0.0000 </r>
       <r>   13.0567    0.0000 </r>
       <r>   13.6562    0.0000 </r>
       <r>   14.6964    0.0000 </r>
      </set>
      <set comment="kpoint 16">
       <r>  -68.6452    1.0000 </r>
       <r>  -68.6446    1.0000 </r>
       <r>  -68.6354    1.0000 </r>
       <r>  -68.6335    1.0000 </r>
       <r>  -68.6131    1.0000 </r>
       <r>  -68.6124    1.0000 </r>
       <r>  -68.5957    1.0000 </r>
       <r>  -68.5952    1.0000 </r>
       <r>  -68.5802    1.0000 </r>
       <r>  -68.5779    1.0000 </r>
       <r>  -68.5615    1.0000 </r>
       <r>  -68.5609    1.0000 </r>
       <r>  -12.3281    1.0000 </r>
       <r>  -11.4758    1.0000 </r>
       <r>  -10.8657    1.0000 </r>
       <r>  -10.8556    1.0000 </r>
       <r>  -10.4078    1.0000 </r>
       <r>  -10.2842    1.0000 </r>
       <r>   -5.7480    1.0000 </r>
       <r>   -4.6926    1.0000 </r>
       <r>   -2.2419    1.0000 </r>
       <r>   -2.1396    1.0000 </r>
       <r>   -1.9295    1.0000 </r>
       <r>   -1.8501    1.0000 </r>
       <r>   -1.4532    1.0000 </r>
       <r>   -1.3968    1.0000 </r>
       <r>   -1.0387    1.0000 </r>
       <r>   -0.5218    1.0000 </r>
       <r>   -0.4637    1.0000 </r>
       <r>   -0.3534    1.0000 </r>
       <r>   -0.2481    1.0000 </r>
       <r>   -0.2126    1.0000 </r>
       <r>   -0.1583    1.0000 </r>
       <r>   -0.1111    1.0000 </r>
       <r>   -0.0895    1.0000 </r>
       <r>    0.0787    1.0000 </r>
       <r>    1.2608    1.0000 </r>
       <r>    1.3472    1.0000 </r>
       <r>    1.3971    1.0000 </r>
       <r>    1.4347    1.0000 </r>
       <r>    1.4518    1.0000 </r>
       <r>    1.5094    1.0000 </r>
       <r>    1.5353    1.0000 </r>
       <r>    1.5438    1.0000 </r>
       <r>    1.7528    1.0000 </r>
       <r>    1.8176    1.0000 </r>
       <r>    2.0412    1.0000 </r>
       <r>    2.1357    1.0000 </r>
       <r>    2.2847    1.0000 </r>
       <r>    2.3114    1.0000 </r>
       <r>    2.5215    1.0000 </r>
       <r>    2.7689    1.0000 </r>
       <r>    2.8986    1.0000 </r>
       <r>    3.2608    1.0000 </r>
       <r>    3.4958    1.0000 </r>
       <r>    3.8006    1.0000 </r>
       <r>    6.1840   -0.0000 </r>
       <r>    6.8401   -0.0000 </r>
       <r>    7.8269    0.0000 </r>
       <r>    8.0443    0.0000 </r>
       <r>    8.1891    0.0000 </r>
       <r>    8.7272    0.0000 </r>
       <r>    9.1534    0.0000 </r>
       <r>    9.3054    0.0000 </r>
       <r>   10.2203    0.0000 </r>
       <r>   10.4415    0.0000 </r>
       <r>   10.5924    0.0000 </r>
       <r>   11.0070    0.0000 </r>
       <r>   11.2382    0.0000 </r>
       <r>   11.4907    0.0000 </r>
       <r>   11.8117    0.0000 </r>
       <r>   12.1705    0.0000 </r>
       <r>   12.2084    0.0000 </r>
       <r>   12.5755    0.0000 </r>
       <r>   12.6920    0.0000 </r>
       <r>   13.1133    0.0000 </r>
       <r>   13.4145    0.0000 </r>
       <r>   13.8840    0.0000 </r>
       <r>   14.0031    0.0000 </r>
       <r>   14.5262    0.0000 </r>
      </set>
      <set comment="kpoint 17">
       <r>  -68.6451    1.0000 </r>
       <r>  -68.6445    1.0000 </r>
       <r>  -68.6355    1.0000 </r>
       <r>  -68.6337    1.0000 </r>
       <r>  -68.6129    1.0000 </r>
       <r>  -68.6126    1.0000 </r>
       <r>  -68.5957    1.0000 </r>
       <r>  -68.5953    1.0000 </r>
       <r>  -68.5801    1.0000 </r>
       <r>  -68.5780    1.0000 </r>
       <r>  -68.5612    1.0000 </r>
       <r>  -68.5610    1.0000 </r>
       <r>  -12.3749    1.0000 </r>
       <r>  -11.4741    1.0000 </r>
       <r>  -10.9372    1.0000 </r>
       <r>  -10.6546    1.0000 </r>
       <r>  -10.4177    1.0000 </r>
       <r>  -10.3036    1.0000 </r>
       <r>   -5.8009    1.0000 </r>
       <r>   -4.8378    1.0000 </r>
       <r>   -2.5268    1.0000 </r>
       <r>   -2.2461    1.0000 </r>
       <r>   -1.8699    1.0000 </r>
       <r>   -1.6434    1.0000 </r>
       <r>   -1.5054    1.0000 </r>
       <r>   -1.3094    1.0000 </r>
       <r>   -0.8992    1.0000 </r>
       <r>   -0.5332    1.0000 </r>
       <r>   -0.3797    1.0000 </r>
       <r>   -0.3494    1.0000 </r>
       <r>   -0.2257    1.0000 </r>
       <r>   -0.1764    1.0000 </r>
       <r>   -0.1610    1.0000 </r>
       <r>   -0.0784    1.0000 </r>
       <r>   -0.0276    1.0000 </r>
       <r>    0.0812    1.0000 </r>
       <r>    1.1889    1.0000 </r>
       <r>    1.3635    1.0000 </r>
       <r>    1.3976    1.0000 </r>
       <r>    1.4422    1.0000 </r>
       <r>    1.4627    1.0000 </r>
       <r>    1.5059    1.0000 </r>
       <r>    1.5189    1.0000 </r>
       <r>    1.5853    1.0000 </r>
       <r>    1.7401    1.0000 </r>
       <r>    1.8179    1.0000 </r>
       <r>    2.0390    1.0000 </r>
       <r>    2.2353    1.0000 </r>
       <r>    2.2694    1.0000 </r>
       <r>    2.3631    1.0000 </r>
       <r>    2.4893    1.0000 </r>
       <r>    2.6697    1.0000 </r>
       <r>    3.0522    1.0000 </r>
       <r>    3.4091    1.0000 </r>
       <r>    3.7290    1.0000 </r>
       <r>    3.8651    1.0000 </r>
       <r>    5.9318   -0.0000 </r>
       <r>    6.6122   -0.0000 </r>
       <r>    7.3547    0.0000 </r>
       <r>    7.9416    0.0000 </r>
       <r>    8.0655    0.0000 </r>
       <r>    8.7230    0.0000 </r>
       <r>    8.9050    0.0000 </r>
       <r>    9.1382    0.0000 </r>
       <r>    9.8444    0.0000 </r>
       <r>   10.3299    0.0000 </r>
       <r>   10.5566    0.0000 </r>
       <r>   10.9265    0.0000 </r>
       <r>   11.2240    0.0000 </r>
       <r>   11.4150    0.0000 </r>
       <r>   11.7491    0.0000 </r>
       <r>   12.0028    0.0000 </r>
       <r>   12.4950    0.0000 </r>
       <r>   12.8321    0.0000 </r>
       <r>   13.2055    0.0000 </r>
       <r>   14.1818    0.0000 </r>
       <r>   14.7149    0.0000 </r>
       <r>   15.1536    0.0000 </r>
       <r>   15.9245    0.0000 </r>
       <r>   16.5689    0.0000 </r>
      </set>
      <set comment="kpoint 18">
       <r>  -68.6453    1.0000 </r>
       <r>  -68.6447    1.0000 </r>
       <r>  -68.6356    1.0000 </r>
       <r>  -68.6337    1.0000 </r>
       <r>  -68.6131    1.0000 </r>
       <r>  -68.6125    1.0000 </r>
       <r>  -68.5959    1.0000 </r>
       <r>  -68.5954    1.0000 </r>
       <r>  -68.5803    1.0000 </r>
       <r>  -68.5779    1.0000 </r>
       <r>  -68.5615    1.0000 </r>
       <r>  -68.5610    1.0000 </r>
       <r>  -12.5011    1.0000 </r>
       <r>  -11.4264    1.0000 </r>
       <r>  -10.9476    1.0000 </r>
       <r>  -10.5837    1.0000 </r>
       <r>  -10.3723    1.0000 </r>
       <r>  -10.2069    1.0000 </r>
       <r>   -5.8289    1.0000 </r>
       <r>   -4.9418    1.0000 </r>
       <r>   -2.5718    1.0000 </r>
       <r>   -2.3683    1.0000 </r>
       <r>   -1.9173    1.0000 </r>
       <r>   -1.5932    1.0000 </r>
       <r>   -1.4182    1.0000 </r>
       <r>   -1.1203    1.0000 </r>
       <r>   -0.8162    1.0000 </r>
       <r>   -0.6736    1.0000 </r>
       <r>   -0.5352    1.0000 </r>
       <r>   -0.4705    1.0000 </r>
       <r>   -0.2563    1.0000 </r>
       <r>   -0.1953    1.0000 </r>
       <r>   -0.1663    1.0000 </r>
       <r>   -0.1192    1.0000 </r>
       <r>   -0.0359    1.0000 </r>
       <r>    0.0596    1.0000 </r>
       <r>    1.2805    1.0000 </r>
       <r>    1.3247    1.0000 </r>
       <r>    1.3443    1.0000 </r>
       <r>    1.4339    1.0000 </r>
       <r>    1.4510    1.0000 </r>
       <r>    1.4687    1.0000 </r>
       <r>    1.4924    1.0000 </r>
       <r>    1.5577    1.0000 </r>
       <r>    1.7268    1.0000 </r>
       <r>    1.8423    1.0000 </r>
       <r>    1.9706    1.0000 </r>
       <r>    2.0990    1.0000 </r>
       <r>    2.3374    1.0000 </r>
       <r>    2.4498    1.0000 </r>
       <r>    2.5413    1.0000 </r>
       <r>    2.8505    1.0000 </r>
       <r>    3.0518    1.0000 </r>
       <r>    3.2614    1.0000 </r>
       <r>    3.6720    1.0000 </r>
       <r>    3.7833    1.0000 </r>
       <r>    6.2616   -0.0000 </r>
       <r>    6.7987   -0.0000 </r>
       <r>    7.8150    0.0000 </r>
       <r>    8.1354    0.0000 </r>
       <r>    8.3371    0.0000 </r>
       <r>    8.9288    0.0000 </r>
       <r>    9.3385    0.0000 </r>
[...]
       <r>   11.7070    0.0000 </r>
       <r>   11.8944    0.0000 </r>
       <r>   12.2983    0.0000 </r>
       <r>   12.6597    0.0000 </r>
       <r>   13.0108    0.0000 </r>
       <r>   13.2310    0.0000 </r>
       <r>   13.6681    0.0000 </r>
       <r>   14.0743    0.0000 </r>
       <r>   14.3991    0.0000 </r>
       <r>   16.5524    0.0000 </r>
      </set>
      <set comment="kpoint 42">
       <r>  -68.6449    1.0000 </r>
       <r>  -68.6450    1.0000 </r>
       <r>  -68.6353    1.0000 </r>
       <r>  -68.6335    1.0000 </r>
       <r>  -68.6129    1.0000 </r>
       <r>  -68.6126    1.0000 </r>
       <r>  -68.5956    1.0000 </r>
       <r>  -68.5951    1.0000 </r>
       <r>  -68.5802    1.0000 </r>
       <r>  -68.5779    1.0000 </r>
       <r>  -68.5615    1.0000 </r>
       <r>  -68.5610    1.0000 </r>
       <r>  -12.1799    1.0000 </r>
       <r>  -11.7074    1.0000 </r>
       <r>  -10.7180    1.0000 </r>
       <r>  -10.6919    1.0000 </r>
       <r>  -10.5870    1.0000 </r>
       <r>  -10.3899    1.0000 </r>
       <r>   -5.4458    1.0000 </r>
       <r>   -5.0724    1.0000 </r>
       <r>   -2.5093    1.0000 </r>
       <r>   -2.3813    1.0000 </r>
       <r>   -1.9633    1.0000 </r>
       <r>   -1.3682    1.0000 </r>
       <r>   -1.3327    1.0000 </r>
       <r>   -1.0549    1.0000 </r>
       <r>   -0.8322    1.0000 </r>
       <r>   -0.7641    1.0000 </r>
       <r>   -0.4245    1.0000 </r>
       <r>   -0.3376    1.0000 </r>
       <r>   -0.2729    1.0000 </r>
       <r>   -0.2085    1.0000 </r>
       <r>   -0.1420    1.0000 </r>
       <r>   -0.1405    1.0000 </r>
       <r>   -0.0125    1.0000 </r>
       <r>    0.0292    1.0000 </r>
       <r>    1.1727    1.0000 </r>
       <r>    1.3704    1.0000 </r>
       <r>    1.3966    1.0000 </r>
       <r>    1.4528    1.0000 </r>
       <r>    1.4545    1.0000 </r>
       <r>    1.4995    1.0000 </r>
       <r>    1.5166    1.0000 </r>
       <r>    1.5499    1.0000 </r>
       <r>    1.7422    1.0000 </r>
       <r>    1.8209    1.0000 </r>
       <r>    1.9751    1.0000 </r>
       <r>    2.2272    1.0000 </r>
       <r>    2.3980    1.0000 </r>
       <r>    2.6100    1.0000 </r>
       <r>    2.6550    1.0000 </r>
       <r>    2.9155    1.0000 </r>
       <r>    3.0700    1.0000 </r>
       <r>    3.1178    1.0000 </r>
       <r>    3.2867    1.0000 </r>
       <r>    3.5821    1.0000 </r>
       <r>    6.2914   -0.0000 </r>
       <r>    6.3797   -0.0000 </r>
       <r>    7.3572    0.0000 </r>
       <r>    7.5223    0.0000 </r>
       <r>    8.3087    0.0000 </r>
       <r>    8.3332    0.0000 </r>
       <r>    9.1050    0.0000 </r>
       <r>    9.3605    0.0000 </r>
       <r>    9.7167    0.0000 </r>
       <r>    9.9483    0.0000 </r>
       <r>   10.5262    0.0000 </r>
       <r>   10.9881    0.0000 </r>
       <r>   11.4239    0.0000 </r>
       <r>   11.5655    0.0000 </r>
       <r>   12.0206    0.0000 </r>
       <r>   12.2845    0.0000 </r>
       <r>   12.4295    0.0000 </r>
       <r>   12.4772    0.0000 </r>
       <r>   13.0350    0.0000 </r>
       <r>   13.1451    0.0000 </r>
       <r>   14.1391    0.0000 </r>
       <r>   14.4353    0.0000 </r>
       <r>   15.1675    0.0000 </r>
       <r>   15.8703    0.0000 </r>
      </set>
     </set>
    </set>
   </array>
  </eigenvalues>
  <separator name="orbital magnetization" >
   <v name="MAGDIPOLOUT">      0.00000000      0.00000000      0.00000000</v>
  </separator>
  <dos>
   <i name="efermi">      4.22026865 </i>
   <total>
    <array>
     <dimension dim="1">gridpoints</dimension>
     <dimension dim="2">spin</dimension>
     <field>energy</field>
     <field>total</field>
     <field>integrated</field>
     <set>
      <set comment="spin 1">
       <r>   -72.8301     0.0000     0.0000 </r>
       <r>   -72.5238     0.0000     0.0000 </r>
       <r>   -72.2174     0.0000     0.0000 </r>
       <r>   -71.9110     0.0000     0.0000 </r>
       <r>   -71.6046     0.0000     0.0000 </r>
       <r>   -71.2982     0.0000     0.0000 </r>
       <r>   -70.9918     0.0000     0.0000 </r>
       <r>   -70.6855     0.0000     0.0000 </r>
       <r>   -70.3791     0.0000     0.0000 </r>
       <r>   -70.0727     0.0000     0.0000 </r>
       <r>   -69.7663     0.0000     0.0000 </r>
       <r>   -69.4599    -0.0000    -0.0000 </r>
       <r>   -69.1536    -0.0000    -0.0000 </r>
       <r>   -68.8472    -0.2176    -0.0667 </r>
       <r>   -68.5408    70.3931    21.5005 </r>
       <r>   -68.2344     8.1587    24.0001 </r>
       <r>   -67.9280    -0.0004    24.0000 </r>
       <r>   -67.6217     0.0000    24.0000 </r>
       <r>   -67.3153     0.0000    24.0000 </r>
       <r>   -67.0089     0.0000    24.0000 </r>
       <r>   -66.7025     0.0000    24.0000 </r>
       <r>   -66.3961     0.0000    24.0000 </r>
       <r>   -66.0898     0.0000    24.0000 </r>
       <r>   -65.7834     0.0000    24.0000 </r>
       <r>   -65.4770     0.0000    24.0000 </r>
       <r>   -65.1706     0.0000    24.0000 </r>
       <r>   -64.8642     0.0000    24.0000 </r>
       <r>   -64.5578     0.0000    24.0000 </r>
       <r>   -64.2515     0.0000    24.0000 </r>
       <r>   -63.9451     0.0000    24.0000 </r>
       <r>   -63.6387     0.0000    24.0000 </r>
       <r>   -63.3323     0.0000    24.0000 </r>
       <r>   -63.0259     0.0000    24.0000 </r>
       <r>   -62.7196     0.0000    24.0000 </r>
       <r>   -62.4132     0.0000    24.0000 </r>
       <r>   -62.1068     0.0000    24.0000 </r>
       <r>   -61.8004     0.0000    24.0000 </r>
       <r>   -61.4940     0.0000    24.0000 </r>
       <r>   -61.1877     0.0000    24.0000 </r>
       <r>   -60.8813     0.0000    24.0000 </r>
       <r>   -60.5749     0.0000    24.0000 </r>
       <r>   -60.2685     0.0000    24.0000 </r>
       <r>   -59.9621     0.0000    24.0000 </r>
       <r>   -59.6557     0.0000    24.0000 </r>
       <r>   -59.3494     0.0000    24.0000 </r>
       <r>   -59.0430     0.0000    24.0000 </r>
       <r>   -58.7366     0.0000    24.0000 </r>
       <r>   -58.4302     0.0000    24.0000 </r>
       <r>   -58.1238     0.0000    24.0000 </r>
       <r>   -57.8175     0.0000    24.0000 </r>
       <r>   -57.5111     0.0000    24.0000 </r>
       <r>   -57.2047     0.0000    24.0000 </r>
       <r>   -56.8983     0.0000    24.0000 </r>
       <r>   -56.5919     0.0000    24.0000 </r>
       <r>   -56.2856     0.0000    24.0000 </r>
       <r>   -55.9792     0.0000    24.0000 </r>
       <r>   -55.6728     0.0000    24.0000 </r>
       <r>   -55.3664     0.0000    24.0000 </r>
       <r>   -55.0600     0.0000    24.0000 </r>
       <r>   -54.7537     0.0000    24.0000 </r>
       <r>   -54.4473     0.0000    24.0000 </r>
       <r>   -54.1409     0.0000    24.0000 </r>
       <r>   -53.8345     0.0000    24.0000 </r>
       <r>   -53.5281     0.0000    24.0000 </r>
       <r>   -53.2217     0.0000    24.0000 </r>
       <r>   -52.9154     0.0000    24.0000 </r>
       <r>   -52.6090     0.0000    24.0000 </r>
       <r>   -52.3026     0.0000    24.0000 </r>
       <r>   -51.9962     0.0000    24.0000 </r>
       <r>   -51.6898     0.0000    24.0000 </r>
       <r>   -51.3835     0.0000    24.0000 </r>
       <r>   -51.0771     0.0000    24.0000 </r>
       <r>   -50.7707     0.0000    24.0000 </r>
       <r>   -50.4643     0.0000    24.0000 </r>
       <r>   -50.1579     0.0000    24.0000 </r>
       <r>   -49.8516     0.0000    24.0000 </r>
       <r>   -49.5452     0.0000    24.0000 </r>
       <r>   -49.2388     0.0000    24.0000 </r>
       <r>   -48.9324     0.0000    24.0000 </r>
       <r>   -48.6260     0.0000    24.0000 </r>
       <r>   -48.3197     0.0000    24.0000 </r>
       <r>   -48.0133     0.0000    24.0000 </r>
       <r>   -47.7069     0.0000    24.0000 </r>
       <r>   -47.4005     0.0000    24.0000 </r>
       <r>   -47.0941     0.0000    24.0000 </r>
       <r>   -46.7877     0.0000    24.0000 </r>
       <r>   -46.4814     0.0000    24.0000 </r>
       <r>   -46.1750     0.0000    24.0000 </r>
       <r>   -45.8686     0.0000    24.0000 </r>
       <r>   -45.5622     0.0000    24.0000 </r>
       <r>   -45.2558     0.0000    24.0000 </r>
       <r>   -44.9495     0.0000    24.0000 </r>
       <r>   -44.6431     0.0000    24.0000 </r>
       <r>   -44.3367     0.0000    24.0000 </r>
       <r>   -44.0303     0.0000    24.0000 </r>
       <r>   -43.7239     0.0000    24.0000 </r>
       <r>   -43.4176     0.0000    24.0000 </r>
       <r>   -43.1112     0.0000    24.0000 </r>
       <r>   -42.8048     0.0000    24.0000 </r>
       <r>   -42.4984     0.0000    24.0000 </r>
       <r>   -42.1920     0.0000    24.0000 </r>
       <r>   -41.8856     0.0000    24.0000 </r>
       <r>   -41.5793     0.0000    24.0000 </r>
       <r>   -41.2729     0.0000    24.0000 </r>
       <r>   -40.9665     0.0000    24.0000 </r>
       <r>   -40.6601     0.0000    24.0000 </r>
       <r>   -40.3537     0.0000    24.0000 </r>
       <r>   -40.0474     0.0000    24.0000 </r>
       <r>   -39.7410     0.0000    24.0000 </r>
       <r>   -39.4346     0.0000    24.0000 </r>
       <r>   -39.1282     0.0000    24.0000 </r>
       <r>   -38.8218     0.0000    24.0000 </r>
       <r>   -38.5155     0.0000    24.0000 </r>
       <r>   -38.2091     0.0000    24.0000 </r>
       <r>   -37.9027     0.0000    24.0000 </r>
       <r>   -37.5963     0.0000    24.0000 </r>
       <r>   -37.2899     0.0000    24.0000 </r>
       <r>   -36.9836     0.0000    24.0000 </r>
       <r>   -36.6772     0.0000    24.0000 </r>
       <r>   -36.3708     0.0000    24.0000 </r>
       <r>   -36.0644     0.0000    24.0000 </r>
       <r>   -35.7580     0.0000    24.0000 </r>
       <r>   -35.4516     0.0000    24.0000 </r>
       <r>   -35.1453     0.0000    24.0000 </r>
       <r>   -34.8389     0.0000    24.0000 </r>
       <r>   -34.5325     0.0000    24.0000 </r>
       <r>   -34.2261     0.0000    24.0000 </r>
       <r>   -33.9197     0.0000    24.0000 </r>
       <r>   -33.6134     0.0000    24.0000 </r>
       <r>   -33.3070     0.0000    24.0000 </r>
       <r>   -33.0006     0.0000    24.0000 </r>
       <r>   -32.6942     0.0000    24.0000 </r>
       <r>   -32.3878     0.0000    24.0000 </r>
       <r>   -32.0815     0.0000    24.0000 </r>
       <r>   -31.7751     0.0000    24.0000 </r>
       <r>   -31.4687     0.0000    24.0000 </r>
       <r>   -31.1623     0.0000    24.0000 </r>
       <r>   -30.8559     0.0000    24.0000 </r>
       <r>   -30.5496     0.0000    24.0000 </r>
       <r>   -30.2432     0.0000    24.0000 </r>
       <r>   -29.9368     0.0000    24.0000 </r>
       <r>   -29.6304     0.0000    24.0000 </r>
       <r>   -29.3240     0.0000    24.0000 </r>
       <r>   -29.0176     0.0000    24.0000 </r>
       <r>   -28.7113     0.0000    24.0000 </r>
       <r>   -28.4049     0.0000    24.0000 </r>
       <r>   -28.0985     0.0000    24.0000 </r>
       <r>   -27.7921     0.0000    24.0000 </r>
       <r>   -27.4857     0.0000    24.0000 </r>
       <r>   -27.1794     0.0000    24.0000 </r>
       <r>   -26.8730     0.0000    24.0000 </r>
       <r>   -26.5666     0.0000    24.0000 </r>
       <r>   -26.2602     0.0000    24.0000 </r>
       <r>   -25.9538     0.0000    24.0000 </r>
       <r>   -25.6475     0.0000    24.0000 </r>
       <r>   -25.3411     0.0000    24.0000 </r>
       <r>   -25.0347     0.0000    24.0000 </r>
       <r>   -24.7283     0.0000    24.0000 </r>
       <r>   -24.4219     0.0000    24.0000 </r>
       <r>   -24.1155     0.0000    24.0000 </r>
       <r>   -23.8092     0.0000    24.0000 </r>
       <r>   -23.5028     0.0000    24.0000 </r>
       <r>   -23.1964     0.0000    24.0000 </r>
       <r>   -22.8900     0.0000    24.0000 </r>
       <r>   -22.5836     0.0000    24.0000 </r>
       <r>   -22.2773     0.0000    24.0000 </r>
       <r>   -21.9709     0.0000    24.0000 </r>
       <r>   -21.6645     0.0000    24.0000 </r>
       <r>   -21.3581     0.0000    24.0000 </r>
       <r>   -21.0517     0.0000    24.0000 </r>
       <r>   -20.7454     0.0000    24.0000 </r>
       <r>   -20.4390     0.0000    24.0000 </r>
       <r>   -20.1326     0.0000    24.0000 </r>
       <r>   -19.8262     0.0000    24.0000 </r>
       <r>   -19.5198     0.0000    24.0000 </r>
       <r>   -19.2135     0.0000    24.0000 </r>
       <r>   -18.9071     0.0000    24.0000 </r>
       <r>   -18.6007     0.0000    24.0000 </r>
       <r>   -18.2943     0.0000    24.0000 </r>
       <r>   -17.9879     0.0000    24.0000 </r>
       <r>   -17.6815     0.0000    24.0000 </r>
       <r>   -17.3752     0.0000    24.0000 </r>
       <r>   -17.0688     0.0000    24.0000 </r>
       <r>   -16.7624     0.0000    24.0000 </r>
       <r>   -16.4560     0.0000    24.0000 </r>
       <r>   -16.1496     0.0000    24.0000 </r>
       <r>   -15.8433     0.0000    24.0000 </r>
       <r>   -15.5369     0.0000    24.0000 </r>
       <r>   -15.2305     0.0000    24.0000 </r>
       <r>   -14.9241     0.0000    24.0000 </r>
       <r>   -14.6177     0.0000    24.0000 </r>
       <r>   -14.3114     0.0000    24.0000 </r>
       <r>   -14.0050     0.0000    24.0000 </r>
       <r>   -13.6986    -0.0000    24.0000 </r>
       <r>   -13.3922    -0.0000    24.0000 </r>
       <r>   -13.0858    -0.0000    24.0000 </r>
       <r>   -12.7795    -0.0038    23.9988 </r>
       <r>   -12.4731     1.5620    24.4774 </r>
       <r>   -12.1667     3.5680    25.5706 </r>
       <r>   -11.8603     1.9028    26.1535 </r>
       <r>   -11.5539     2.1396    26.8091 </r>
       <r>   -11.2475     3.1903    27.7865 </r>
       <r>   -10.9412     2.5652    28.5725 </r>
       <r>   -10.6348     9.3066    31.4238 </r>
       <r>   -10.3284     9.2843    34.2683 </r>
       <r>   -10.0220     5.6706    36.0057 </r>
       <r>    -9.7156    -0.0186    36.0000 </r>
       <r>    -9.4093    -0.0000    36.0000 </r>
       <r>    -9.1029     0.0000    36.0000 </r>
       <r>    -8.7965     0.0000    36.0000 </r>
       <r>    -8.4901     0.0000    36.0000 </r>
       <r>    -8.1837     0.0000    36.0000 </r>
       <r>    -7.8774     0.0000    36.0000 </r>
       <r>    -7.5710     0.0000    36.0000 </r>
       <r>    -7.2646     0.0000    36.0000 </r>
       <r>    -6.9582    -0.0000    36.0000 </r>
       <r>    -6.6518    -0.0000    36.0000 </r>
       <r>    -6.3454    -0.0000    36.0000 </r>
       <r>    -6.0391     0.0579    36.0177 </r>
       <r>    -5.7327     3.4952    37.0886 </r>
       <r>    -5.4263     2.0527    37.7175 </r>
       <r>    -5.1199     1.8761    38.2923 </r>
       <r>    -4.8135     3.3090    39.3061 </r>
       <r>    -4.5072     2.2013    39.9805 </r>
       <r>    -4.2008     0.0635    40.0000 </r>
       <r>    -3.8944    -0.0000    40.0000 </r>
       <r>    -3.5880    -0.0000    40.0000 </r>
       <r>    -3.2816    -0.0000    40.0000 </r>
       <r>    -2.9753    -0.0004    39.9999 </r>
       <r>    -2.6689     0.3787    40.1159 </r>
       <r>    -2.3625     6.1672    42.0054 </r>
       <r>    -2.0561     6.6940    44.0563 </r>
       <r>    -1.7497     7.3469    46.3073 </r>
       <r>    -1.4434     6.4034    48.2691 </r>
       <r>    -1.1370     8.7325    50.9446 </r>
       <r>    -0.8306     9.0791    53.7263 </r>
       <r>    -0.5242    11.4145    57.2235 </r>
       <r>    -0.2178    18.1081    62.7715 </r>
       <r>     0.0886    28.9642    71.6455 </r>
       <r>     0.3949     1.1577    72.0002 </r>
       <r>     0.7013    -0.0007    72.0000 </r>
       <r>     1.0077    -0.0205    71.9937 </r>
       <r>     1.3141     7.4339    74.2713 </r>
       <r>     1.6205    44.8260    88.0052 </r>
       <r>     1.9268    13.7879    92.2295 </r>
       <r>     2.2332    13.1686    96.2641 </r>
       <r>     2.5396    12.8469   100.2002 </r>
       <r>     2.8460    11.1967   103.6306 </r>
       <r>     3.1524     9.0531   106.4043 </r>
       <r>     3.4587     7.9144   108.8292 </r>
       <r>     3.7651     6.9517   110.9590 </r>
       <r>     4.0715     3.1561   111.9260 </r>
       <r>     4.3779     0.2421   112.0002 </r>
       <r>     4.6843    -0.0005   112.0000 </r>
       <r>     4.9907    -0.0000   112.0000 </r>
       <r>     5.2970    -0.0001   112.0000 </r>
       <r>     5.6034     0.0772   112.0236 </r>
       <r>     5.9098     0.1690   112.0754 </r>
       <r>     6.2162     2.6385   112.8838 </r>
       <r>     6.5226     4.3739   114.2238 </r>
       <r>     6.8289     3.4438   115.2790 </r>
       <r>     7.1353     2.4215   116.0209 </r>
       <r>     7.4417     1.4297   116.4589 </r>
       <r>     7.7481     3.1970   117.4384 </r>
       <r>     8.0545     5.5592   119.1416 </r>
       <r>     8.3608     5.5436   120.8401 </r>
       <r>     8.6672     4.5987   122.2490 </r>
       <r>     8.9736     4.4668   123.6176 </r>
       <r>     9.2800     5.6091   125.3361 </r>
       <r>     9.5864     5.6874   127.0786 </r>
       <r>     9.8927     4.7705   128.5402 </r>
       <r>    10.1991     4.4671   129.9088 </r>
       <r>    10.5055     6.4953   131.8989 </r>
       <r>    10.8119     8.2813   134.4361 </r>
       <r>    11.1183     8.2526   136.9645 </r>
       <r>    11.4247     7.9920   139.4131 </r>
       <r>    11.7310     7.8907   141.8307 </r>
       <r>    12.0374     6.5762   143.8455 </r>
       <r>    12.3438     5.8730   145.6449 </r>
       <r>    12.6502     6.6358   147.6780 </r>
       <r>    12.9566     5.8043   149.4563 </r>
       <r>    13.2629     6.1794   151.3495 </r>
       <r>    13.5693     5.3202   152.9795 </r>
       <r>    13.8757     4.1019   154.2363 </r>
       <r>    14.1821     3.1418   155.1989 </r>
       <r>    14.4885     4.7608   156.6575 </r>
       <r>    14.7948     3.3396   157.6807 </r>
       <r>    15.1012     1.4156   158.1144 </r>
       <r>    15.4076     1.5931   158.6025 </r>
       <r>    15.7140     1.2517   158.9860 </r>
       <r>    16.0204     1.6538   159.4927 </r>
       <r>    16.3267     0.3322   159.5944 </r>
       <r>    16.6331     0.6719   159.8003 </r>
       <r>    16.9395     0.5184   159.9591 </r>
       <r>    17.2459     0.1335   160.0000 </r>
       <r>    17.5523    -0.0001   160.0000 </r>
       <r>    17.8587     0.0000   160.0000 </r>
       <r>    18.1650     0.0000   160.0000 </r>
       <r>    18.4714     0.0000   160.0000 </r>
       <r>    18.7778     0.0000   160.0000 </r>
       <r>    19.0842     0.0000   160.0000 </r>
      </set>
     </set>
    </array>
   </total>
  </dos>
 </calculation>
 <structure name="finalpos" >
  <crystal>
   <varray name="basis" >
    <v>       3.22479600      -5.64383000       0.03157200 </v>
    <v>       3.22479600       5.64383000       0.03157200 </v>
    <v>      -2.10194600       0.00000000       6.07553700 </v>
   </varray>
   <i name="volume">    221.90106089 </i>
   <varray name="rec_basis" >
    <v>       0.15452516      -0.08859232       0.05346088 </v>
    <v>       0.15452516       0.08859232       0.05346088 </v>
    <v>      -0.00160600       0.00000000       0.16403888 </v>
   </varray>
  </crystal>
  <varray name="positions" >
   <v>       0.61844300       0.12117100       0.11953300 </v>
   <v>       0.12117100       0.61844300       0.61953300 </v>
   <v>       0.96141860       0.79032200       0.11881300 </v>
   <v>       0.79032200       0.96295700       0.61881300 </v>
   <v>       0.43973200       0.26728100       0.59904700 </v>
   <v>       0.26728100       0.43973200       0.09904700 </v>
   <v>       0.07949800       0.91167500       0.49736300 </v>
   <v>       0.57140300       0.41236400       0.98018400 </v>
   <v>       0.73711100       0.25006200       0.49504900 </v>
   <v>       0.41236400       0.57140300       0.48018400 </v>
   <v>       0.91167500       0.07949800       0.99736300 </v>
   <v>       0.25006200       0.73711100       0.99504900 </v>
  </varray>
 </structure>
</modeling>
