   12   12    1    1
  0.1849176E+02  0.6500240E-09  0.6500240E-09  0.6428867E-09  0.5000000E-15
  1.000000000000000E-004
  CAR 
 CGS                                     
  112   42   80
 
  0.0000000E+00  0.0000000E+00  0.0000000E+00  0.1250000E-01
   1      -68.645920
   2      -68.645135
   3      -68.633645
   4      -68.632707
   5      -68.614155
   6      -68.613872
   7      -68.597232
   8      -68.596494
   9      -68.577815
  10      -68.576773
  11      -68.560920
  12      -68.559989
  13      -12.722046
  14      -11.130048
  15      -10.918755
  16      -10.603053
  17      -10.250632
  18      -10.233519
  19       -5.985006
  20       -4.983704
  21       -2.762871
  22       -2.210866
  23       -2.071425
  24       -1.921781
  25       -1.575710
  26       -0.981424
  27       -0.950886
  28       -0.682789
  29       -0.403077
  30       -0.273401
  31       -0.264819
  32       -0.235585
  33       -0.188952
  34       -0.152975
  35       -0.039171
  36        0.029506
  37        1.348933
  38        1.363497
  39        1.415001
  40        1.457322
  41        1.471089
  42        1.473824
  43        1.519957
  44        1.533248
  45        1.574372
  46        1.711602
  47        1.892593
  48        1.927942
  49        2.058228
  50        2.648618
  51        2.731011
  52        3.091502
  53        3.216734
  54        4.005145
  55        4.038482
  56        4.171893
  57        5.536599
  58        6.358689
  59        7.630007
  60        7.986096
  61        8.616107
  62        8.791431
  63        9.570591
  64        9.739307
  65        9.815387
  66       10.420268
  67       10.581401
  68       10.692747
  69       10.717494
  70       11.284084
  71       11.712393
  72       12.389922
  73       12.451502
  74       12.727189
  75       13.320433
  76       13.383541
  77       13.829497
  78       13.885513
  79       14.143873
  80       14.183629
 
  0.2500000E+00  0.7372575E-17  0.1387779E-16  0.2500000E-01
   1      -68.645876
   2      -68.645106
   3      -68.633620
   4      -68.632668
   5      -68.614014
   6      -68.613797
   7      -68.597243
   8      -68.596517
   9      -68.577745
  10      -68.576721
  11      -68.560886
  12      -68.559954
  13      -12.597347
  14      -11.126311
  15      -10.985384
  16      -10.675855
  17      -10.367458
  18      -10.275084
  19       -5.933327
  20       -4.773635
  21       -2.648637
  22       -2.252984
  23       -2.087734
  24       -1.687972
  25       -1.342729
  26       -0.999578
  27       -0.769053
  28       -0.619630
  29       -0.553470
  30       -0.439332
  31       -0.359688
  32       -0.240581
  33       -0.194957
  34       -0.167409
  35       -0.046953
  36        0.037689
  37        1.279876
  38        1.336496
  39        1.355237
  40        1.391098
  41        1.426856
  42        1.471998
  43        1.498561
  44        1.531458
  45        1.724879
  46        1.857707
  47        2.056257
  48        2.094932
  49        2.231408
  50        2.413349
  51        2.557569
  52        2.825795
  53        2.944546
  54        3.243170
  55        3.662661
  56        4.039006
  57        6.169252
  58        6.906494
  59        8.136553
  60        8.269425
  61        8.593524
  62        9.012507
  63        9.242177
  64        9.531989
  65        9.866715
  66       10.375107
  67       10.631890
  68       10.815380
  69       10.939536
  70       11.188898
  71       11.652761
  72       11.769761
  73       12.116391
  74       12.443219
  75       12.618336
  76       13.008724
  77       13.506491
  78       13.876450
  79       14.211969
  80       14.710996
 
  0.5000000E+00  0.1474515E-16  0.2775558E-16  0.1250000E-01
   1      -68.645759
   2      -68.644937
   3      -68.633543
   4      -68.632587
   5      -68.614003
   6      -68.613745
   7      -68.597172
   8      -68.596434
   9      -68.577691
  10      -68.576708
  11      -68.560772
  12      -68.559784
  13      -12.438505
  14      -11.247681
  15      -10.959194
  16      -10.763857
  17      -10.429485
  18      -10.354758
  19       -5.871036
  20       -4.549181
  21       -2.498006
  22       -2.245379
  23       -1.943409
  24       -1.463556
  25       -1.225948
  26       -1.102101
  27       -0.903886
  28       -0.860057
  29       -0.599721
  30       -0.534393
  31       -0.273202
  32       -0.204448
  33       -0.200867
  34       -0.147712
  35       -0.028303
  36        0.077939
  37        1.254872
  38        1.328629
  39        1.346487
  40        1.397333
  41        1.470869
  42        1.478977
  43        1.500052
  44        1.554276
  45        1.753148
  46        1.792355
  47        1.968298
  48        2.144639
  49        2.318670
  50        2.361781
  51        2.554329
  52        2.669543
  53        2.937315
  54        3.081665
  55        3.250763
  56        3.859081
  57        6.384548
  58        7.098621
  59        7.981100
  60        8.202792
  61        8.518251
  62        8.821789
  63        9.327069
  64        9.887292
  65       10.010227
  66       10.521013
  67       10.688230
  68       10.791742
  69       11.140021
  70       11.407670
  71       11.609830
  72       11.776690
  73       11.944101
  74       12.501409
  75       12.779078
  76       13.000848
  77       13.399517
  78       13.542072
  79       13.937421
  80       14.270511
 
  0.7372575E-17  0.2500000E+00  0.1387779E-16  0.2500000E-01
   1      -68.645898
   2      -68.645090
   3      -68.633604
   4      -68.632684
   5      -68.614009
   6      -68.613802
   7      -68.597264
   8      -68.596491
   9      -68.577760
  10      -68.576706
  11      -68.560886
  12      -68.559955
  13      -12.597197
  14      -11.128326
  15      -10.984569
  16      -10.673497
  17      -10.366558
  18      -10.277434
  19       -5.933333
  20       -4.773238
  21       -2.647606
  22       -2.253651
  23       -2.085978
  24       -1.690549
  25       -1.344160
  26       -0.998834
  27       -0.766692
  28       -0.621415
  29       -0.557461
  30       -0.438464
  31       -0.358868
  32       -0.240257
  33       -0.192523
  34       -0.167986
  35       -0.047471
  36        0.039580
  37        1.278642
  38        1.336712
  39        1.354646
  40        1.392403
  41        1.426141
  42        1.472240
  43        1.498207
  44        1.530439
  45        1.724433
  46        1.860260
  47        2.056514
  48        2.094604
  49        2.231899
  50        2.414160
  51        2.554410
  52        2.824003
  53        2.948465
  54        3.243886
  55        3.660281
  56        4.039308
  57        6.168723
  58        6.905958
  59        8.136703
  60        8.268448
  61        8.593951
  62        9.012717
  63        9.243419
  64        9.532043
  65        9.865747
  66       10.375836
  67       10.633157
  68       10.811651
  69       10.940719
  70       11.191943
  71       11.655752
  72       11.769095
  73       12.117523
  74       12.443609
  75       12.617768
  76       13.005460
  77       13.519101
  78       13.900719
  79       14.272273
  80       14.839770
 
  0.2500000E+00  0.2500000E+00  0.0000000E+00  0.2500000E-01
   1      -68.645896
   2      -68.645114
   3      -68.633509
   4      -68.632565
   5      -68.614151
   6      -68.613927
   7      -68.597147
   8      -68.596388
   9      -68.577877
  10      -68.576837
  11      -68.560904
  12      -68.559972
  13      -12.442100
  14      -11.191527
  15      -10.945369
  16      -10.874788
  17      -10.388367
  18      -10.352472
  19       -5.876074
  20       -4.522077
  21       -2.421104
  22       -2.246269
  23       -1.791202
  24       -1.682107
  25       -1.356626
  26       -1.296897
  27       -1.077954
  28       -0.684766
  29       -0.527921
  30       -0.293168
  31       -0.281943
  32       -0.225170
  33       -0.185075
  34       -0.128551
  35       -0.090537
  36        0.079337
  37        1.293447
  38        1.311432
  39        1.415509
  40        1.426403
  41        1.462777
  42        1.482667
  43        1.495687
  44        1.570185
  45        1.671993
  46        1.881889
  47        1.939617
  48        2.133856
  49        2.279837
  50        2.318886
  51        2.562322
  52        2.650409
  53        2.902578
  54        2.943606
  55        3.697422
  56        3.830765
  57        6.170831
  58        6.990269
  59        8.004037
  60        8.327106
  61        8.434931
  62        8.570773
  63        9.145972
  64        9.247978
  65       10.361103
  66       10.494536
  67       10.920122
  68       11.184883
  69       11.329391
  70       11.559520
  71       11.812686
  72       11.963857
  73       12.315551
  74       12.503500
  75       12.711148
  76       12.912827
  77       13.339166
  78       13.445541
  79       14.256749
  80       14.366765
 
  0.5000000E+00  0.2500000E+00 -0.2775558E-16  0.2500000E-01
   1      -68.645477
   2      -68.645089
   3      -68.633518
   4      -68.632699
   5      -68.613915
   6      -68.613719
   7      -68.597164
   8      -68.596480
   9      -68.577493
  10      -68.576816
  11      -68.560635
  12      -68.559946
  13      -12.442364
  14      -11.354257
  15      -10.939962
  16      -10.735456
  17      -10.391808
  18      -10.268697
  19       -5.947838
  20       -4.642819
  21       -2.394493
  22       -2.228343
  23       -2.056720
  24       -1.639776
  25       -1.362708
  26       -1.282183
  27       -1.020737
  28       -0.509196
  29       -0.480955
  30       -0.329267
  31       -0.281673
  32       -0.216154
  33       -0.152277
  34       -0.136053
  35       -0.009508
  36        0.110610
  37        1.246379
  38        1.315409
  39        1.382827
  40        1.437130
  41        1.461593
  42        1.491810
  43        1.497020
  44        1.550636
  45        1.747829
  46        1.828577
  47        1.921854
  48        2.132196
  49        2.220417
  50        2.386124
  51        2.560290
  52        2.791921
  53        2.977955
  54        3.312960
  55        3.604448
  56        3.746752
  57        6.087267
  58        6.939723
  59        7.611172
  60        8.068594
  61        8.409927
  62        8.615392
  63        8.984161
  64        9.151792
  65       10.087232
  66       10.334431
  67       10.733437
  68       11.107451
  69       11.459969
  70       11.595345
  71       11.795768
  72       12.083025
  73       12.477634
  74       12.919177
  75       13.035992
  76       13.823572
  77       14.195064
  78       14.661482
  79       15.428974
  80       15.641806
 
 -0.2500000E+00  0.2500000E+00  0.0000000E+00  0.2500000E-01
   1      -68.645888
   2      -68.645100
   3      -68.633585
   4      -68.632648
   5      -68.613947
   6      -68.613731
   7      -68.597236
   8      -68.596489
   9      -68.577703
  10      -68.576660
  11      -68.560887
  12      -68.559956
  13      -12.600050
  14      -11.251826
  15      -10.993654
  16      -10.567220
  17      -10.369032
  18      -10.178096
  19       -6.010227
  20       -4.894814
  21       -2.648337
  22       -2.315542
  23       -1.973685
  24       -1.646922
  25       -1.493973
  26       -1.184236
  27       -0.789770
  28       -0.580094
  29       -0.442181
  30       -0.337115
  31       -0.292398
  32       -0.234076
  33       -0.173430
  34       -0.132786
  35       -0.010650
  36        0.071116
  37        1.259167
  38        1.320725
  39        1.364368
  40        1.424226
  41        1.430711
  42        1.475144
  43        1.503881
  44        1.542692
  45        1.724390
  46        1.812426
  47        1.995158
  48        2.072693
  49        2.416772
  50        2.463570
  51        2.527507
  52        2.871928
  53        3.142299
  54        3.228397
  55        3.785082
  56        4.069140
  57        5.978453
  58        6.689626
  59        7.533988
  60        8.222312
  61        8.616618
  62        8.913438
  63        9.307829
  64        9.430691
  65        9.804744
  66       10.267852
  67       10.544160
  68       10.832856
  69       10.972425
  70       11.378779
  71       11.471169
  72       11.732026
  73       12.100325
  74       12.661807
  75       12.943730
  76       13.103663
  77       13.351806
  78       13.521186
  79       14.477308
  80       14.755397
 
  0.1474515E-16  0.5000000E+00  0.2775558E-16  0.1250000E-01
   1      -68.645718
   2      -68.644978
   3      -68.633507
   4      -68.632622
   5      -68.613941
   6      -68.613798
   7      -68.597174
   8      -68.596435
   9      -68.577741
  10      -68.576658
  11      -68.560686
  12      -68.559875
  13      -12.438068
  14      -11.251198
  15      -10.958511
  16      -10.758267
  17      -10.428937
  18      -10.358792
  19       -5.870981
  20       -4.548279
  21       -2.494963
  22       -2.246249
  23       -1.945225
  24       -1.463669
  25       -1.228885
  26       -1.100819
  27       -0.904301
  28       -0.859596
  29       -0.601662
  30       -0.537335
  31       -0.272664
  32       -0.203858
  33       -0.199380
  34       -0.145518
  35       -0.031485
  36        0.083306
  37        1.253670
  38        1.328166
  39        1.347511
  40        1.397745
  41        1.471427
  42        1.478257
  43        1.499484
  44        1.552992
  45        1.751687
  46        1.791303
  47        1.967279
  48        2.148083
  49        2.323772
  50        2.361320
  51        2.554078
  52        2.671481
  53        2.936118
  54        3.076202
  55        3.249946
  56        3.861416
  57        6.383494
  58        7.096307
  59        7.979182
  60        8.204281
  61        8.518156
  62        8.821524
  63        9.326547
  64        9.890171
  65       10.012028
  66       10.519412
  67       10.691246
  68       10.792443
  69       11.142480
  70       11.408084
  71       11.609266
  72       11.774003
  73       11.946638
  74       12.501227
  75       12.819666
  76       13.030039
  77       13.525201
  78       13.667151
  79       14.553979
  80       15.260787
 
  0.2500000E+00  0.5000000E+00 -0.2775558E-16  0.2500000E-01
   1      -68.645524
   2      -68.645053
   3      -68.633431
   4      -68.632747
   5      -68.613867
   6      -68.613779
   7      -68.597146
   8      -68.596518
   9      -68.577523
  10      -68.576781
  11      -68.560553
  12      -68.560028
  13      -12.442132
  14      -11.355450
  15      -10.939966
  16      -10.733377
  17      -10.391397
  18      -10.270361
  19       -5.947816
  20       -4.642477
  21       -2.393058
  22       -2.226922
  23       -2.058744
  24       -1.639440
  25       -1.364055
  26       -1.282226
  27       -1.021982
  28       -0.512109
  29       -0.482534
  30       -0.326322
  31       -0.282187
  32       -0.213887
  33       -0.151922
  34       -0.135146
  35       -0.010844
  36        0.112668
  37        1.245707
  38        1.315703
  39        1.381225
  40        1.437820
  41        1.461341
  42        1.491926
  43        1.496929
  44        1.550361
  45        1.749502
  46        1.828218
  47        1.921562
  48        2.131483
  49        2.222598
  50        2.385102
  51        2.561996
  52        2.790240
  53        2.978629
  54        3.310206
  55        3.603713
  56        3.748637
  57        6.086814
  58        6.939296
  59        7.611606
  60        8.068302
  61        8.410130
  62        8.614996
  63        8.983216
  64        9.152848
  65       10.087751
  66       10.335606
  67       10.732749
  68       11.105840
  69       11.457619
  70       11.577311
  71       11.784657
  72       12.033880
  73       12.523976
  74       12.678875
  75       12.918368
  76       13.211214
  77       14.233389
  78       14.779286
  79       15.251377
  80       15.906840
 
  0.5000000E+00  0.5000000E+00  0.0000000E+00  0.1250000E-01
   1      -68.645516
   2      -68.644713
   3      -68.633272
   4      -68.632560
   5      -68.613726
   6      -68.613699
   7      -68.596980
   8      -68.596280
   9      -68.577587
  10      -68.576535
  11      -68.560537
  12      -68.559641
  13      -12.433954
  14      -11.502214
  15      -10.915166
  16      -10.613781
  17      -10.400928
  18      -10.197207
  19       -6.026375
  20       -4.810589
  21       -2.312478
  22       -2.266835
  23       -2.094368
  24       -1.702233
  25       -1.250964
  26       -1.110616
  27       -0.839144
  28       -0.781498
  29       -0.721359
  30       -0.240743
  31       -0.200372
  32       -0.183133
  33       -0.151705
  34       -0.039215
  35       -0.001924
  36        0.183190
  37        1.266443
  38        1.317386
  39        1.373327
  40        1.413534
  41        1.434356
  42        1.491083
  43        1.509174
  44        1.550091
  45        1.786977
  46        1.847090
  47        1.995916
  48        2.150755
  49        2.252076
  50        2.335337
  51        2.558648
  52        2.764560
  53        2.775633
  54        3.369088
  55        3.763114
  56        4.007191
  57        5.854252
  58        6.765913
  59        7.083656
  60        8.412003
  61        8.560433
  62        8.769878
  63        9.142555
  64        9.240088
  65        9.958725
  66       10.284873
  67       10.724238
  68       10.826820
  69       10.877482
  70       11.272938
  71       11.753558
  72       11.914294
  73       11.974251
  74       12.366166
  75       12.539418
  76       13.457326
  77       14.288091
  78       14.678598
  79       16.746610
  80       16.754683
 
 -0.2168404E-18 -0.2168404E-18  0.2000000E+00  0.2500000E-01
   1      -68.645928
   2      -68.645131
   3      -68.633612
   4      -68.632678
   5      -68.614056
   6      -68.613811
   7      -68.597265
   8      -68.596509
   9      -68.577787
  10      -68.576748
  11      -68.560918
  12      -68.559995
  13      -12.618841
  14      -11.426238
  15      -10.779603
  16      -10.608263
  17      -10.249351
  18      -10.235574
  19       -5.831437
  20       -5.047259
  21       -2.602604
  22       -2.372855
  23       -1.960828
  24       -1.776154
  25       -1.443496
  26       -1.125993
  27       -1.063254
  28       -0.771898
  29       -0.469386
  30       -0.292415
  31       -0.239210
  32       -0.233818
  33       -0.192270
  34       -0.147155
  35       -0.017300
  36        0.024236
  37        1.332196
  38        1.382264
  39        1.416357
  40        1.439049
  41        1.464775
  42        1.466601
  43        1.514151
  44        1.546370
  45        1.632700
  46        1.758232
  47        1.787276
  48        1.950547
  49        2.088362
  50        2.661344
  51        2.717388
  52        3.195184
  53        3.251948
  54        3.519522
  55        3.893907
  56        3.977549
  57        6.045124
  58        6.417063
  59        7.824060
  60        7.907952
  61        8.365067
  62        8.818768
  63        9.775936
  64        9.794071
  65       10.061445
  66       10.587420
  67       10.647075
  68       10.814778
  69       10.852358
  70       11.494479
  71       11.557568
  72       12.025424
  73       12.579306
  74       12.774714
  75       12.911393
  76       13.205390
  77       13.532704
  78       13.822830
  79       14.198499
  80       14.709582
 
  0.2500000E+00  0.1517883E-17  0.2000000E+00  0.2500000E-01
   1      -68.645862
   2      -68.645074
   3      -68.633598
   4      -68.632664
   5      -68.614077
   6      -68.613875
   7      -68.597229
   8      -68.596454
   9      -68.577803
  10      -68.576751
  11      -68.560854
  12      -68.559934
  13      -12.460142
  14      -11.467207
  15      -10.865325
  16      -10.688677
  17      -10.372845
  18      -10.244388
  19       -5.766965
  20       -4.804906
  21       -2.448284
  22       -2.233232
  23       -1.848954
  24       -1.713078
  25       -1.432282
  26       -1.186613
  27       -0.890735
  28       -0.746050
  29       -0.607002
  30       -0.521753
  31       -0.312052
  32       -0.245665
  33       -0.174445
  34       -0.120730
  35       -0.052873
  36        0.062072
  37        1.302210
  38        1.336039
  39        1.369271
  40        1.431768
  41        1.446138
  42        1.479499
  43        1.521448
  44        1.546988
  45        1.643123
  46        1.870059
  47        1.979008
  48        2.047855
  49        2.195586
  50        2.475203
  51        2.596790
  52        2.839103
  53        2.963625
  54        3.131253
  55        3.566160
  56        3.724358
  57        6.440951
  58        6.957177
  59        8.170562
  60        8.245933
  61        8.834260
  62        9.127945
  63        9.465683
  64        9.796054
  65       10.084475
  66       10.300191
  67       10.739412
  68       11.079366
  69       11.289779
  70       11.422780
  71       11.630865
  72       11.724006
  73       12.085648
  74       12.265964
  75       12.541913
  76       12.658330
  77       12.955854
  78       13.061000
  79       13.641408
  80       14.688595
 
  0.5000000E+00  0.9107298E-17  0.2000000E+00  0.2500000E-01
   1      -68.645578
   2      -68.645019
   3      -68.633437
   4      -68.632653
   5      -68.613920
   6      -68.613751
   7      -68.597134
   8      -68.596384
   9      -68.577579
  10      -68.576776
  11      -68.560649
  12      -68.559994
  13      -12.358122
  14      -11.413951
  15      -10.952734
  16      -10.684865
  17      -10.478620
  18      -10.332603
  19       -5.752248
  20       -4.723151
  21       -2.523895
  22       -2.186704
  23       -1.951710
  24       -1.534828
  25       -1.299049
  26       -1.097521
  27       -0.870725
  28       -0.756018
  29       -0.550466
  30       -0.445201
  31       -0.288970
  32       -0.180690
  33       -0.144068
  34       -0.108246
  35       -0.043966
  36        0.023609
  37        1.273081
  38        1.297654
  39        1.350479
  40        1.429084
  41        1.452964
  42        1.480335
  43        1.501624
  44        1.588674
  45        1.720820
  46        1.932478
  47        2.076645
  48        2.143466
  49        2.266365
  50        2.403344
  51        2.566895
  52        2.596469
  53        2.900552
  54        3.010496
  55        3.358966
  56        3.898174
  57        6.364856
  58        6.897536
  59        7.574813
  60        8.083358
  61        8.549126
  62        8.797554
  63        9.277932
  64        9.629100
  65        9.929822
  66       10.274231
  67       10.658979
  68       10.926623
  69       10.970895
  70       11.281001
  71       11.518990
  72       11.787716
  73       12.246180
  74       12.545036
  75       13.090583
  76       13.515787
  77       14.290145
  78       14.550327
  79       15.126176
  80       16.266345
 
 -0.2500000E+00 -0.4098284E-16  0.2000000E+00  0.2500000E-01
   1      -68.645919
   2      -68.645126
   3      -68.633589
   4      -68.632652
   5      -68.614059
   6      -68.613822
   7      -68.597255
   8      -68.596490
   9      -68.577798
  10      -68.576771
  11      -68.560921
  12      -68.559979
  13      -12.542647
  14      -11.338589
  15      -10.873270
  16      -10.606737
  17      -10.398967
  18      -10.280643
  19       -5.825059
  20       -4.975296
  21       -2.667298
  22       -2.453036
  23       -2.039352
  24       -1.577287
  25       -1.168770
  26       -0.982057
  27       -0.795220
  28       -0.658620
  29       -0.513803
  30       -0.388664
  31       -0.269518
  32       -0.253194
  33       -0.191237
  34       -0.144964
  35       -0.045490
  36        0.013186
  37        1.290680
  38        1.311023
  39        1.389262
  40        1.408214
  41        1.434022
  42        1.455372
  43        1.492148
  44        1.565245
  45        1.687589
  46        1.916379
  47        1.986158
  48        2.144753
  49        2.332745
  50        2.565076
  51        2.617526
  52        2.828989
  53        2.971627
  54        3.248678
  55        3.684137
  56        3.943221
  57        6.178583
  58        6.638456
  59        7.766626
  60        7.973676
  61        8.214546
  62        8.562868
  63        9.379064
  64        9.577837
  65        9.906913
  66       10.249547
  67       10.543524
  68       10.787014
  69       10.841816
  70       11.068520
  71       11.562650
  72       12.020086
  73       12.528577
  74       12.750810
  75       12.954560
  76       13.309474
  77       13.413167
  78       13.742586
  79       13.848415
  80       14.725528
 
  0.1517883E-17  0.2500000E+00  0.2000000E+00  0.2500000E-01
   1      -68.645863
   2      -68.645068
   3      -68.633595
   4      -68.632667
   5      -68.614087
   6      -68.613866
   7      -68.597225
   8      -68.596461
   9      -68.577792
  10      -68.576762
  11      -68.560864
  12      -68.559923
  13      -12.459972
  14      -11.467822
  15      -10.864401
  16      -10.688850
  17      -10.371952
  18      -10.245747
  19       -5.766871
  20       -4.804494
  21       -2.446484
  22       -2.233494
  23       -1.851393
  24       -1.713890
  25       -1.432041
  26       -1.187409
  27       -0.887330
  28       -0.746396
  29       -0.606174
  30       -0.527936
  31       -0.308475
  32       -0.245495
  33       -0.171734
  34       -0.121825
  35       -0.053716
  36        0.062330
  37        1.302239
  38        1.336384
  39        1.369105
  40        1.430558
  41        1.446185
  42        1.479683
  43        1.520933
  44        1.546900
  45        1.643443
  46        1.872171
  47        1.979866
  48        2.048053
  49        2.194190
  50        2.476268
  51        2.593222
  52        2.837867
  53        2.963598
  54        3.133045
  55        3.567618
  56        3.723568
  57        6.440186
  58        6.957020
  59        8.170088
  60        8.246339
  61        8.833170
  62        9.127385
  63        9.466842
  64        9.795781
  65       10.085195
  66       10.299357
  67       10.740866
  68       11.078298
  69       11.291877
  70       11.424680
  71       11.633037
  72       11.724646
  73       12.086395
  74       12.265225
  75       12.540766
  76       12.659315
  77       12.953012
  78       13.056652
  79       13.655989
  80       14.692735
 
  0.2500000E+00  0.2500000E+00  0.2000000E+00  0.2500000E-01
   1      -68.645769
   2      -68.644983
   3      -68.633455
   4      -68.632504
   5      -68.613920
   6      -68.613709
   7      -68.597097
   8      -68.596346
   9      -68.577673
  10      -68.576621
  11      -68.560773
  12      -68.559836
  13      -12.328522
  14      -11.476037
  15      -10.860500
  16      -10.859648
  17      -10.403865
  18      -10.288670
  19       -5.748194
  20       -4.692288
  21       -2.244573
  22       -2.138286
  23       -1.927541
  24       -1.851720
  25       -1.453259
  26       -1.393838
  27       -1.037539
  28       -0.518960
  29       -0.464359
  30       -0.350460
  31       -0.251536
  32       -0.217023
  33       -0.159920
  34       -0.112676
  35       -0.087878
  36        0.081107
  37        1.261510
  38        1.346830
  39        1.398044
  40        1.434972
  41        1.453409
  42        1.510361
  43        1.535172
  44        1.544099
  45        1.753470
  46        1.818943
  47        2.040773
  48        2.134832
  49        2.283105
  50        2.310758
  51        2.521610
  52        2.768284
  53        2.898473
  54        3.262958
  55        3.495929
  56        3.800301
  57        6.182026
  58        6.840689
  59        7.827098
  60        8.045257
  61        8.188099
  62        8.726569
  63        9.153708
  64        9.306079
  65       10.220854
  66       10.441720
  67       10.590248
  68       11.006725
  69       11.239504
  70       11.488494
  71       11.812498
  72       12.173728
  73       12.208285
  74       12.573165
  75       12.692669
  76       13.109916
  77       13.416493
  78       13.881376
  79       14.005094
  80       14.523493
 
  0.5000000E+00  0.2500000E+00  0.2000000E+00  0.2500000E-01
   1      -68.645462
   2      -68.645031
   3      -68.633468
   4      -68.632711
   5      -68.613862
   6      -68.613815
   7      -68.597157
   8      -68.596425
   9      -68.577484
  10      -68.576861
  11      -68.560522
  12      -68.560020
  13      -12.374961
  14      -11.474447
  15      -10.938415
  16      -10.651010
  17      -10.420819
  18      -10.302631
  19       -5.801033
  20       -4.836925
  21       -2.528307
  22       -2.244937
  23       -1.873460
  24       -1.643355
  25       -1.503262
  26       -1.307837
  27       -0.899826
  28       -0.531866
  29       -0.377006
  30       -0.347954
  31       -0.223575
  32       -0.179808
  33       -0.163625
  34       -0.078100
  35       -0.023644
  36        0.079732
  37        1.190104
  38        1.363764
  39        1.397107
  40        1.442367
  41        1.463083
  42        1.506298
  43        1.518192
  44        1.585855
  45        1.739897
  46        1.818250
  47        2.036852
  48        2.234270
  49        2.269247
  50        2.363619
  51        2.485108
  52        2.671354
  53        3.053209
  54        3.411436
  55        3.729582
  56        3.865010
  57        5.930686
  58        6.613092
  59        7.353302
  60        7.942952
  61        8.065098
  62        8.723678
  63        8.906518
  64        9.138629
  65        9.843708
  66       10.328004
  67       10.554390
  68       10.925594
  69       11.223195
  70       11.417024
  71       11.748588
  72       12.003182
  73       12.497165
  74       12.830184
  75       13.206587
  76       14.183383
  77       14.719466
  78       15.145529
  79       15.917763
  80       16.562415
 
 -0.2500000E+00  0.2500000E+00  0.2000000E+00  0.2500000E-01
   1      -68.645824
   2      -68.645075
   3      -68.633648
   4      -68.632702
   5      -68.613994