       N       E                     dE             d eps       ncg     rms          ort
SDA:   1     0.757073403322E+02    0.75707E+02   -0.21362E+03  3360   0.534E+03 0.000E+00
DMP:   2    -0.824263745532E+01   -0.83950E+02   -0.14720E+03  3360   0.396E+03-0.743E+02
DMP:   3    -0.150248355634E+02   -0.67822E+01   -0.20506E+03  3360   0.699E+03-0.488E+03
DMP:   4    -0.225185998365E+02   -0.74938E+01   -0.10766E+03  3360   0.391E+03-0.320E+03
DMP:   5    -0.607931517187E+02   -0.38275E+02   -0.15093E+02  3360   0.707E+02-0.864E+02
DMP:   6    -0.658987430303E+02   -0.51056E+01   -0.82686E+01  3360   0.249E+02-0.112E+02
DMP:   7    -0.674531832771E+02   -0.15544E+01   -0.41755E+01  3360   0.149E+02-0.116E+02
DMP:   8    -0.690816810831E+02   -0.16285E+01   -0.77543E+00  3360   0.285E+01-0.239E+01
DMP:   9    -0.693935437584E+02   -0.31186E+00   -0.39048E+00  3360   0.112E+01-0.369E+00
DMP:  10    -0.694983020244E+02   -0.10476E+00   -0.15352E+00  3360   0.553E+00-0.442E+00
DMP:  11    -0.695685008136E+02   -0.70199E-01   -0.37073E-01  3360   0.106E+00-0.340E-01
DMP:  12    -0.695808439203E+02   -0.12343E-01   -0.23064E-01  3360   0.697E-01-0.314E-01
DMP:  13    -0.695906026365E+02   -0.97587E-02   -0.51484E-02  3360   0.162E-01-0.881E-02
DMP:  14    -0.695930704334E+02   -0.24678E-02   -0.38188E-02  3360   0.975E-02-0.524E-03
DMP:  15    -0.695945915840E+02   -0.15212E-02   -0.10461E-02  3360   0.336E-02-0.195E-02
DMP:  16    -0.695951678942E+02   -0.57631E-03   -0.41329E-03  3360   0.924E-03 0.285E-03
DMP:  17    -0.695953425825E+02   -0.17469E-03   -0.21060E-03  3360   0.585E-03-0.153E-03
DMP:  18    -0.695954607764E+02   -0.11819E-03   -0.56759E-04  3360   0.120E-03 0.563E-04
DMP:  19    -0.695954899908E+02   -0.29214E-04   -0.35706E-04  3360   0.893E-04-0.320E-07
DMP:  20    -0.695955100046E+02   -0.20014E-04   -0.11708E-04  3360   0.244E-04 0.128E-04
DMP:  21    -0.695955174931E+02   -0.74885E-05   -0.71081E-05  3360   0.142E-04 0.932E-05
   1 F= -.69595517E+02 E0= -.69595706E+02  d E =0.564263E-03
