<?xml version="1.0" encoding="ISO-8859-1"?>
<modeling>
 <generator>
  <i name="program" type="string">vasp </i>
  <i name="version" type="string">5.3.3  </i>
  <i name="subversion" type="string">18Dez12 (build Nov 13 2015 09:58:40) complex                          parallel </i>
  <i name="platform" type="string">LinuxIFC </i>
  <i name="date" type="string">2017 10 18 </i>
  <i name="time" type="string">13:04:00 </i>
 </generator>
 <incar>
  <i type="string" name="SYSTEM"> CGS</i>
  <i type="string" name="PREC">normal</i>
  <i type="string" name="ALGO"> D</i>
  <i type="logical" name="LDIAG"> T  </i>
  <i name="EDIFF">      0.00001000</i>
  <i name="ENCUT">    400.00000000</i>
  <i name="TIME">      0.40000000</i>
  <i type="int" name="ISMEAR">     1</i>
  <i name="SIGMA">      0.10000000</i>
  <i type="logical" name="LHFCALC"> T  </i>
  <i type="string" name="GGA"> PE</i>
  <i name="HFSCREEN">      0.20000000</i>
  <i name="AEXX">      0.25000000</i>
  <i type="string" name="PRECFOCK">fast</i>
 </incar>
 <kpoints>
  <generation param="Gamma">
   <v type="int" name="divisions">       4        4        5 </v>
   <v name="usershift">      0.00000000       0.00000000       0.00000000 </v>
   <v name="genvec1">      0.25000000       0.00000000       0.00000000 </v>
   <v name="genvec2">      0.00000000       0.25000000       0.00000000 </v>
   <v name="genvec3">      0.00000000       0.00000000       0.20000000 </v>
   <v name="shift">      0.00000000       0.00000000       0.00000000 </v>
  </generation>
  <varray name="kpointlist" >
   <v>       0.00000000       0.00000000       0.00000000 </v>
   <v>       0.25000000       0.00000000       0.00000000 </v>
   <v>       0.50000000       0.00000000       0.00000000 </v>
   <v>       0.00000000       0.25000000       0.00000000 </v>
   <v>       0.25000000       0.25000000       0.00000000 </v>
   <v>       0.50000000       0.25000000      -0.00000000 </v>
   <v>      -0.25000000       0.25000000       0.00000000 </v>
   <v>       0.00000000       0.50000000       0.00000000 </v>
   <v>       0.25000000       0.50000000      -0.00000000 </v>
   <v>       0.50000000       0.50000000       0.00000000 </v>
   <v>      -0.00000000      -0.00000000       0.20000000 </v>
   <v>       0.25000000       0.00000000       0.20000000 </v>
   <v>       0.50000000       0.00000000       0.20000000 </v>
   <v>      -0.25000000      -0.00000000       0.20000000 </v>
   <v>       0.00000000       0.25000000       0.20000000 </v>
   <v>       0.25000000       0.25000000       0.20000000 </v>
   <v>       0.50000000       0.25000000       0.20000000 </v>
   <v>      -0.25000000       0.25000000       0.20000000 </v>
   <v>       0.00000000       0.50000000       0.20000000 </v>
   <v>       0.25000000       0.50000000       0.20000000 </v>
   <v>       0.50000000       0.50000000       0.20000000 </v>
   <v>      -0.25000000       0.50000000       0.20000000 </v>
   <v>      -0.00000000      -0.25000000       0.20000000 </v>
   <v>       0.25000000      -0.25000000       0.20000000 </v>
   <v>       0.50000000      -0.25000000       0.20000000 </v>
   <v>      -0.25000000      -0.25000000       0.20000000 </v>
   <v>      -0.00000000      -0.00000000       0.40000000 </v>
   <v>       0.25000000       0.00000000       0.40000000 </v>
   <v>       0.50000000       0.00000000       0.40000000 </v>
   <v>      -0.25000000       0.00000000       0.40000000 </v>
   <v>       0.00000000       0.25000000       0.40000000 </v>
   <v>       0.25000000       0.25000000       0.40000000 </v>
   <v>       0.50000000       0.25000000       0.40000000 </v>
   <v>      -0.25000000       0.25000000       0.40000000 </v>
   <v>       0.00000000       0.50000000       0.40000000 </v>
   <v>       0.25000000       0.50000000       0.40000000 </v>
   <v>       0.50000000       0.50000000       0.40000000 </v>
   <v>      -0.25000000       0.50000000       0.40000000 </v>
   <v>       0.00000000      -0.25000000       0.40000000 </v>
   <v>       0.25000000      -0.25000000       0.40000000 </v>
   <v>       0.50000000      -0.25000000       0.40000000 </v>
   <v>      -0.25000000      -0.25000000       0.40000000 </v>
  </varray>
  <varray name="weights" >
   <v>       0.01250000 </v>
   <v>       0.02500000 </v>
   <v>       0.01250000 </v>
   <v>       0.02500000 </v>
   <v>       0.02500000 </v>
   <v>       0.02500000 </v>
   <v>       0.02500000 </v>
   <v>       0.01250000 </v>
   <v>       0.02500000 </v>
   <v>       0.01250000 </v>
   <v>       0.02500000 </v>
   <v>       0.02500000 </v>
   <v>       0.02500000 </v>
   <v>       0.02500000 </v>
   <v>       0.02500000 </v>
   <v>       0.02500000 </v>
   <v>       0.02500000 </v>
   <v>       0.02500000 </v>
   <v>       0.02500000 </v>
   <v>       0.02500000 </v>
   <v>       0.02500000 </v>
   <v>       0.02500000 </v>
   <v>       0.02500000 </v>
   <v>       0.02500000 </v>
   <v>       0.02500000 </v>
   <v>       0.02500000 </v>
   <v>       0.02500000 </v>
   <v>       0.02500000 </v>
   <v>       0.02500000 </v>
   <v>       0.02500000 </v>
   <v>       0.02500000 </v>
   <v>       0.02500000 </v>
   <v>       0.02500000 </v>
   <v>       0.02500000 </v>
   <v>       0.02500000 </v>
   <v>       0.02500000 </v>
   <v>       0.02500000 </v>
   <v>       0.02500000 </v>
   <v>       0.02500000 </v>
   <v>       0.02500000 </v>
   <v>       0.02500000 </v>
   <v>       0.02500000 </v>
  </varray>
 </kpoints>
 <parameters>
  <separator name="general" >
   <i type="string" name="SYSTEM">CGS</i>
   <i type="logical" name="LCOMPAT"> F  </i>
  </separator>
  <separator name="electronic" >
   <i type="string" name="PREC">normal</i>
   <i name="ENMAX">    400.00000000</i>
   <i name="ENAUG">    758.23300000</i>
   <i name="EDIFF">      0.00001000</i>
   <i type="int" name="IALGO">    53</i>
   <i type="int" name="IWAVPR">    10</i>
   <i type="int" name="NBANDS">    80</i>
   <i name="NELECT">    112.00000000</i>
   <i type="int" name="TURBO">     0</i>
   <i type="int" name="IRESTART">     0</i>
   <i type="int" name="NREBOOT">     0</i>
   <i type="int" name="NMIN">     0</i>
   <i name="EREF">      0.00000000</i>
   <separator name="electronic smearing" >
    <i type="int" name="ISMEAR">     1</i>
    <i name="SIGMA">      0.10000000</i>
    <i name="KSPACING">      0.50000000</i>
    <i type="logical" name="KGAMMA"> T  </i>
   </separator>
   <separator name="electronic projectors" >
    <i type="logical" name="LREAL"> F  </i>
    <v name="ROPT">      0.00000000      0.00000000      0.00000000</v>
    <i type="int" name="LMAXPAW">  -100</i>
    <i type="int" name="LMAXMIX">     2</i>
    <i type="logical" name="NLSPLINE"> F  </i>
   </separator>
   <separator name="electronic startup" >
    <i type="int" name="ISTART">     1</i>
    <i type="int" name="ICHARG">     0</i>
    <i type="int" name="INIWAV">     1</i>
   </separator>
   <separator name="electronic spin" >
    <i type="int" name="ISPIN">     1</i>
    <i type="logical" name="LNONCOLLINEAR"> F  </i>
    <v name="MAGMOM">      1.00000000      1.00000000      1.00000000      1.00000000      1.00000000      1.00000000      1.00000000      1.00000000      1.00000000      1.00000000      1.00000000      1.00000000</v>
    <i name="NUPDOWN">     -1.00000000</i>
    <i type="logical" name="LSORBIT"> F  </i>
    <v name="SAXIS">      0.00000000      0.00000000      1.00000000</v>
    <i type="logical" name="LSPIRAL"> F  </i>
    <v name="QSPIRAL">      0.00000000      0.00000000      0.00000000</v>
    <i type="logical" name="LZEROZ"> F  </i>
   </separator>
   <separator name="electronic exchange-correlation" >
    <i type="logical" name="LASPH"> F  </i>
    <i type="logical" name="LMETAGGA"> F  </i>
   </separator>
   <separator name="electronic convergence" >
    <i type="int" name="NELM">    60</i>
    <i type="int" name="NELMDL">     0</i>
    <i type="int" name="NELMIN">     2</i>
    <i name="ENINI">    400.00000000</i>
    <separator name="electronic convergence detail" >
     <i type="logical" name="LDIAG"> T  </i>
     <i type="logical" name="LSUBROT"> T  </i>
     <i name="WEIMIN">      0.00000000</i>
     <i name="EBREAK">      0.00000003</i>
     <i name="DEPER">      0.30000000</i>
     <i type="int" name="NRMM">     4</i>
     <i name="TIME">      0.40000000</i>
    </separator>
   </separator>
   <separator name="electronic mixer" >
    <i name="AMIX">      0.40000000</i>
    <i name="BMIX">      1.00000000</i>
    <i name="AMIN">      0.10000000</i>
    <i name="AMIX_MAG">      1.60000000</i>
    <i name="BMIX_MAG">      1.00000000</i>
    <separator name="electronic mixer details" >
     <i type="int" name="IMIX">     4</i>
     <i type="int" name="MAXMIX">   -45</i>
     <i name="WC">    100.00000000</i>
     <i type="int" name="INIMIX">     1</i>
     <i type="int" name="MIXPRE">     1</i>
     <i type="int" name="MREMOVE">     5</i>
    </separator>
   </separator>
   <separator name="electronic dipolcorrection" >
    <i type="logical" name="LDIPOL"> F  </i>
    <i type="logical" name="LMONO"> F  </i>
    <i type="int" name="IDIPOL">     0</i>
    <i name="EPSILON">      1.00000000</i>
    <v name="DIPOL">   -100.00000000   -100.00000000   -100.00000000</v>
    <i name="EFIELD">      0.00000000</i>
   </separator>
  </separator>
  <separator name="grids" >
   <i type="int" name="NGX">    32</i>
   <i type="int" name="NGY">    32</i>
   <i type="int" name="NGZ">    32</i>
   <i type="int" name="NGXF">    64</i>
   <i type="int" name="NGYF">    64</i>
   <i type="int" name="NGZF">    64</i>
   <i type="logical" name="ADDGRID"> F  </i>
  </separator>
  <separator name="ionic" >
   <i type="int" name="NSW">     0</i>
   <i type="int" name="IBRION">    -1</i>
   <i type="int" name="ISIF">     0</i>
   <i name="PSTRESS">      0.00000000</i>
   <i name="EDIFFG">      0.00010000</i>
   <i type="int" name="NFREE">     0</i>
   <i name="POTIM">      0.50000000</i>
   <i name="SMASS">     -3.00000000</i>
   <i name="SCALEE">      1.00000000</i>
  </separator>
  <separator name="ionic md" >
   <i name="TEBEG">      0.00010000</i>
   <i name="TEEND">      0.00010000</i>
   <i type="int" name="NBLOCK">     1</i>
   <i type="int" name="KBLOCK">     1</i>
   <i type="int" name="NPACO">   256</i>
   <i name="APACO">     16.00000000</i>
  </separator>
  <separator name="symmetry" >
   <i type="int" name="ISYM">     3</i>
   <i name="SYMPREC">      0.00001000</i>
  </separator>
  <separator name="dos" >
   <i type="logical" name="LORBIT"> F  </i>
   <v name="RWIGS">     -1.00000000     -1.00000000     -1.00000000</v>
   <i type="int" name="NEDOS">   301</i>
   <i name="EMIN">     10.00000000</i>
   <i name="EMAX">    -10.00000000</i>
   <i name="EFERMI">      0.00000000</i>
  </separator>
  <separator name="writing" >
   <i type="int" name="NWRITE">     2</i>
   <i type="logical" name="LWAVE"> T  </i>
   <i type="logical" name="LCHARG"> T  </i>
   <i type="logical" name="LPARD"> F  </i>
   <i type="logical" name="LVTOT"> F  </i>
   <i type="logical" name="LVHAR"> F  </i>
   <i type="logical" name="LELF"> F  </i>
   <i type="logical" name="LOPTICS"> F  </i>
   <v name="STM">      0.00000000      0.00000000      0.00000000      0.00000000      0.00000000      0.00000000      0.00000000</v>
  </separator>
  <separator name="performance" >
   <i type="int" name="NPAR">    16</i>
   <i type="int" name="NSIM">     4</i>
   <i type="int" name="NBLK">    -1</i>
   <i type="logical" name="LPLANE"> T  </i>
   <i type="logical" name="LSCALAPACK"> T  </i>
   <i type="logical" name="LSCAAWARE"> F  </i>
   <i type="logical" name="LSCALU"> F  </i>
   <i type="logical" name="LASYNC"> F  </i>
   <i type="logical" name="LORBITALREAL"> F  </i>
  </separator>
  <separator name="miscellaneous" >
   <i type="int" name="IDIOT">     3</i>
   <i type="logical" name="LMUSIC"> F  </i>
   <v name="POMASS">     63.54600000     72.61000000     32.06600000</v>
   <v name="DARWINR">      0.00000000      0.00000000      0.00000000</v>
   <v name="DARWINV">      1.00000000      1.00000000      1.00000000</v>
   <i type="logical" name="LCORR"> T  </i>
  </separator>
  <i type="logical" name="GGA_COMPAT"> T  </i>
  <i type="logical" name="LBERRY"> F  </i>
  <i type="int" name="ICORELEVEL">     0</i>
  <i type="logical" name="LDAU"> F  </i>
  <i type="int" name="I_CONSTRAINED_M">     0</i>
  <separator name="electronic exchange-correlation" >
   <i type="string" name="GGA">PE</i>
   <i type="int" name="VOSKOWN">     0</i>
   <i type="logical" name="LHFCALC"> T  </i>
   <i type="string" name="PRECFOCK">fast</i>
   <i type="logical" name="LSYMGRAD"> F  </i>
   <i type="logical" name="LHFONE"> F  </i>
   <i type="logical" name="LRHFCALC"> F  </i>
   <i type="logical" name="LTHOMAS"> F  </i>
   <i type="logical" name="LMODELHF"> F  </i>
   <i name="ENCUT4O">     -1.00000000</i>
   <i type="int" name="EXXOEP">     0</i>
   <i type="int" name="FOURORBIT">     0</i>
   <i name="AEXX">      0.25000000</i>
   <i name="HFALPHA">     -1.00000000</i>
   <i name="MCALPHA">      0.00000000</i>
   <i name="ALDAX">      0.75000000</i>
   <i name="AGGAX">      0.75000000</i>
   <i name="ALDAC">      1.00000000</i>
   <i name="AGGAC">      1.00000000</i>
   <i type="int" name="NKREDX">     1</i>
   <i type="int" name="NKREDY">     1</i>
   <i type="int" name="NKREDZ">     1</i>
   <i type="logical" name="SHIFTRED"> F  </i>
   <i type="logical" name="ODDONLY"> F  </i>
   <i type="logical" name="EVENONLY"> F  </i>
   <i type="int" name="LMAXFOCK">     4</i>
   <i type="int" name="NMAXFOCKAE">     1</i>
   <i type="logical" name="LFOCKAEDFT"> F  </i>
   <i name="HFSCREEN">      0.20000000</i>
   <i name="HFSCREENC">      0.20000000</i>
   <i type="int" name="NBANDSGWLOW">     1</i>
  </separator>
  <separator name="vdW DFT" >
   <i type="logical" name="LUSE_VDW"> F  </i>
   <i name="Zab_VDW">     -0.84910000</i>
   <i name="PARAM1">      0.12340000</i>
   <i name="PARAM2">      1.00000000</i>
   <i name="PARAM3">      0.00000000</i>
  </separator>
  <separator name="model GW" >
   <i type="int" name="MODEL_GW">     0</i>
   <i name="MODEL_EPS0">     11.09505304</i>
   <i name="MODEL_ALPHA">      1.00000000</i>
  </separator>
  <separator name="linear response parameters" >
   <i type="logical" name="LEPSILON"> F  </i>
   <i type="logical" name="LRPA"> F  </i>
   <i type="logical" name="LNABLA"> F  </i>
   <i type="logical" name="LVEL"> F  </i>
   <i type="int" name="KINTER">     0</i>
   <i name="CSHIFT">      0.10000000</i>
   <i name="OMEGAMAX">     -1.00000000</i>
   <i name="DEG_THRESHOLD">      0.00200000</i>
  </separator>
  <separator name="orbital magnetization" >
   <i type="logical" name="NUCIND"> F  </i>
   <v name="MAGPOS">      0.00000000      0.00000000      0.00000000</v>
   <i type="logical" name="LNICSALL"> T  </i>
   <i type="logical" name="ORBITALMAG"> F  </i>
   <i type="logical" name="LMAGBLOCH"> F  </i>
   <i type="logical" name="LCHIMAG"> F  </i>
   <i type="logical" name="LGAUGE"> T  </i>
   <i type="int" name="MAGATOM">     0</i>
   <v name="MAGDIPOL">      0.00000000      0.00000000      0.00000000</v>
   <v name="AVECCONST">      0.00000000      0.00000000      0.00000000</v>
  </separator>
  <separator name="response functions" >
   <i type="logical" name="LADDER"> F  </i>
   <i type="logical" name="LFXC"> F  </i>
   <i type="logical" name="LHARTREE"> T  </i>
   <i type="int" name="IBSE">     0</i>
   <i type="logical" name="LTCTE"> F  </i>
   <i type="logical" name="LTETE"> F  </i>
   <i type="logical" name="LTRIPLET"> F  </i>
   <i type="logical" name="LFXCEPS"> F  </i>
   <i type="logical" name="L2ORDER"> F  </i>
   <i type="logical" name="LUSEW"> F  </i>
   <i name="ENCUTGW">     -2.00000000</i>
   <i name="ENCUTGWSOFT">     -2.00000000</i>
   <i name="ENCUTLF">     -1.00000000</i>
   <i type="int" name="LMAXMP2">    -1</i>
   <i name="SCISSOR">      0.00000000</i>
   <i type="int" name="NOMEGA">     0</i>
   <i type="int" name="NOMEGAR">     0</i>
   <i type="int" name="NBANDSGW">    -1</i>
   <i type="int" name="NBANDSO">    -1</i>
   <i type="int" name="NBANDSV">    -1</i>
   <i type="int" name="NELM">     1</i>
   <i type="int" name="DIM">     3</i>
   <i type="int" name="ANTIRES">     0</i>
   <i name="OMEGAMAX">    -30.00000000</i>
   <i name="OMEGATL">   -200.00000000</i>
   <i type="int" name="OMEGAGRID">     0</i>
   <i name="CSHIFT">     -0.10000000</i>
   <i type="logical" name="SELFENERGY"> F  </i>
   <i type="logical" name="LSPECTRAL"> F  </i>
   <i type="logical" name="ODDONLYGW"> F  </i>
   <i type="logical" name="EVENONLYGW"> F  </i>
   <i type="int" name="NKREDLFX">     1</i>
   <i type="int" name="NKREDLFY">     1</i>
   <i type="int" name="NKREDLFZ">     1</i>
   <i type="int" name="MAXMEM">  1800</i>
   <i type="int" name="TELESCOPE">     0</i>
  </separator>
 </parameters>
 <atominfo>
  <atoms>      12 </atoms>
  <types>       3 </types>
  <array name="atoms" >
   <dimension dim="1">ion</dimension>
   <field type="string">element</field>
   <field type="int">atomtype</field>
   <set>
    <rc><c>Cu</c><c>   1</c></rc>
    <rc><c>Cu</c><c>   1</c></rc>
    <rc><c>Cu</c><c>   1</c></rc>
    <rc><c>Cu</c><c>   1</c></rc>
    <rc><c>Ge</c><c>   2</c></rc>
    <rc><c>Ge</c><c>   2</c></rc>
    <rc><c>S </c><c>   3</c></rc>
    <rc><c>S </c><c>   3</c></rc>
    <rc><c>S </c><c>   3</c></rc>
    <rc><c>S </c><c>   3</c></rc>
    <rc><c>S </c><c>   3</c></rc>
    <rc><c>S </c><c>   3</c></rc>
   </set>
  </array>
  <array name="atomtypes" >
   <dimension dim="1">type</dimension>
   <field type="int">atomspertype</field>
   <field type="string">element</field>
   <field>mass</field>
   <field>valence</field>
   <field type="string">pseudopotential</field>
   <set>
    <rc><c>   4</c><c>Cu</c><c>     63.54600000</c><c>     17.00000000</c><c>  PAW_PBE Cu_pv 06Sep2000               </c></rc>
    <rc><c>   2</c><c>Ge</c><c>     72.61000000</c><c>      4.00000000</c><c>  PAW_PBE Ge 05Jan2001                  </c></rc>
    <rc><c>   6</c><c>S </c><c>     32.06600000</c><c>      6.00000000</c><c>  PAW_PBE S 17Jan2003                   </c></rc>
   </set>
  </array>
 </atominfo>
 <structure name="initialpos" >
  <crystal>
   <varray name="basis" >
    <v>       3.22479600      -5.64383000       0.03157200 </v>
    <v>       3.22479600       5.64383000       0.03157200 </v>
    <v>      -2.10194600       0.00000000       6.07553700 </v>
   </varray>
   <i name="volume">    221.90106089 </i>
   <varray name="rec_basis" >
    <v>       0.15452516      -0.08859232       0.05346088 </v>
    <v>       0.15452516       0.08859232       0.05346088 </v>
    <v>      -0.00160600       0.00000000       0.16403888 </v>
   </varray>
  </crystal>
  <varray name="positions" >
   <v>       0.61690460       0.12117100       0.11953300 </v>
   <v>       0.12117100       0.61844300       0.61953300 </v>
   <v>       0.96295700       0.79032200       0.11881300 </v>
   <v>       0.79032200       0.96295700       0.61881300 </v>
   <v>       0.43973200       0.26728100       0.59904700 </v>
   <v>       0.26728100       0.43973200       0.09904700 </v>
   <v>       0.07949800       0.91167500       0.49736300 </v>
   <v>       0.57140300       0.41236400       0.98018400 </v>
   <v>       0.73711100       0.25006200       0.49504900 </v>
   <v>       0.41236400       0.57140300       0.48018400 </v>
   <v>       0.91167500       0.07949800       0.99736300 </v>
   <v>       0.25006200       0.73711100       0.99504900 </v>
  </varray>
 </structure>
 <calculation>
  <scstep>
   <time name="total">  261.49  261.31</time>
   <energy>
    <i name="alphaZ">    339.31929130 </i>
    <i name="ewald">  -9065.38622517 </i>
    <i name="hartreedc">  -8066.52331555 </i>
    <i name="XCdc">    369.89424776 </i>
    <i name="pawpsdc">  16957.83153799 </i>
    <i name="pawaedc"> -17450.57027359 </i>
    <i name="eentropy">     -0.00145532 </i>
    <i name="bandstr">  -1657.28185521 </i>
    <i name="atom">  18320.98302006 </i>
    <i name="e_fr_energy">     75.70734033 </i>
    <i name="e_wo_entrp">     75.70879566 </i>
    <i name="e_0_energy">     75.70782544 </i>
   </energy>
  </scstep>
  <scstep>
   <time name="total">  269.78  269.56</time>
   <energy>
    <i name="e_fr_energy">     -8.24263746 </i>
    <i name="e_wo_entrp">     -8.24180115 </i>
    <i name="e_0_energy">     -8.24235869 </i>
   </energy>
  </scstep>
  <scstep>
   <time name="total">  267.31  267.10</time>
   <energy>
    <i name="e_fr_energy">    -15.02483556 </i>
    <i name="e_wo_entrp">    -15.02503900 </i>
    <i name="e_0_energy">    -15.02490338 </i>
   </energy>
  </scstep>
  <scstep>
   <time name="total">  269.27  269.07</time>
   <energy>
    <i name="e_fr_energy">    -22.51859984 </i>
    <i name="e_wo_entrp">    -22.51897232 </i>
    <i name="e_0_energy">    -22.51872400 </i>
   </energy>
  </scstep>
  <scstep>
   <time name="total">  269.32  269.11</time>
   <energy>
    <i name="e_fr_energy">    -60.79315172 </i>
    <i name="e_wo_entrp">    -60.79377349 </i>
    <i name="e_0_energy">    -60.79335898 </i>
   </energy>
  </scstep>
  <scstep>
   <time name="total">  268.91  268.70</time>
   <energy>
    <i name="e_fr_energy">    -65.89874303 </i>
    <i name="e_wo_entrp">    -65.89940707 </i>
    <i name="e_0_energy">    -65.89896438 </i>
   </energy>
  </scstep>
  <scstep>
   <time name="total">  269.31  269.08</time>
   <energy>
    <i name="e_fr_energy">    -67.45318328 </i>
    <i name="e_wo_entrp">    -67.45361686 </i>
    <i name="e_0_energy">    -67.45332780 </i>
   </energy>
  </scstep>
  <scstep>
   <time name="total">  270.82  270.69</time>
   <energy>
    <i name="e_fr_energy">    -69.08168108 </i>
    <i name="e_wo_entrp">    -69.08240469 </i>
    <i name="e_0_energy">    -69.08192229 </i>
   </energy>
  </scstep>
  <scstep>
   <time name="total">  271.05  270.81</time>
   <energy>
    <i name="e_fr_energy">    -69.39354376 </i>
    <i name="e_wo_entrp">    -69.39440398 </i>
    <i name="e_0_energy">    -69.39383050 </i>
   </energy>
  </scstep>
  <scstep>
   <time name="total">  270.63  270.42</time>
   <energy>
    <i name="e_fr_energy">    -69.49830202 </i>
    <i name="e_wo_entrp">    -69.49902036 </i>
    <i name="e_0_energy">    -69.49854147 </i>
   </energy>
  </scstep>
  <scstep>
   <time name="total">  270.69  270.47</time>
   <energy>
    <i name="e_fr_energy">    -69.56850081 </i>
    <i name="e_wo_entrp">    -69.56910403 </i>
    <i name="e_0_energy">    -69.56870189 </i>
   </energy>
  </scstep>
  <scstep>
   <time name="total">  269.95  269.73</time>
   <energy>
    <i name="e_fr_energy">    -69.58084392 </i>
    <i name="e_wo_entrp">    -69.58139414 </i>
    <i name="e_0_energy">    -69.58102733 </i>
   </energy>
  </scstep>
  <scstep>
   <time name="total">  270.25  270.06</time>
   <energy>
    <i name="e_fr_energy">    -69.59060264 </i>
    <i name="e_wo_entrp">    -69.59114084 </i>
    <i name="e_0_energy">    -69.59078204 </i>
   </energy>
  </scstep>
  <scstep>
   <time name="total">  270.33  270.10</time>
   <energy>
    <i name="e_fr_energy">    -69.59307043 </i>
    <i name="e_wo_entrp">    -69.59362730 </i>
    <i name="e_0_energy">    -69.59325605 </i>
   </energy>
  </scstep>
  <scstep>
   <time name="total">  269.42  269.19</time>
   <energy>
    <i name="e_fr_energy">    -69.59459158 </i>
    <i name="e_wo_entrp">    -69.59516163 </i>
    <i name="e_0_energy">    -69.59478160 </i>
   </energy>
  </scstep>
  <scstep>
   <time name="total">  267.88  267.67</time>
   <energy>
    <i name="e_fr_energy">    -69.59516789 </i>
    <i name="e_wo_entrp">    -69.59573856 </i>
    <i name="e_0_energy">    -69.59535811 </i>
   </energy>
  </scstep>
  <scstep>
   <time name="total">  268.10  267.87</time>
   <energy>
    <i name="e_fr_energy">    -69.59534258 </i>
    <i name="e_wo_entrp">    -69.59591017 </i>
    <i name="e_0_energy">    -69.59553178 </i>
   </energy>
  </scstep>
  <scstep>
   <time name="total">  267.79  267.57</time>
   <energy>
    <i name="e_fr_energy">    -69.59546078 </i>
    <i name="e_wo_entrp">    -69.59602540 </i>
    <i name="e_0_energy">    -69.59564898 </i>
   </energy>
  </scstep>
  <scstep>
   <time name="total">  267.68  267.44</time>
   <energy>
    <i name="e_fr_energy">    -69.59548999 </i>
    <i name="e_wo_entrp">    -69.59605322 </i>
    <i name="e_0_energy">    -69.59567773 </i>
   </energy>
  </scstep>
  <scstep>
   <time name="total">  267.11  266.89</time>
   <energy>
    <i name="e_fr_energy">    -69.59551000 </i>
    <i name="e_wo_entrp">    -69.59607365 </i>
    <i name="e_0_energy">    -69.59569789 </i>
   </energy>
  </scstep>
  <scstep>
   <time name="total">  267.69  267.46</time>
   <energy>
    <i name="alphaZ">    339.31929130 </i>
    <i name="ewald">  -9065.38622517 </i>
    <i name="hartreedc">  -8148.71380224 </i>
    <i name="XCdc">    372.06735450 </i>
    <i name="pawpsdc">  15921.59039271 </i>
    <i name="pawaedc"> -16406.77988072 </i>
    <i name="eentropy">      0.00056426 </i>
    <i name="bandstr">  -1742.74082449 </i>
    <i name="atom">  18320.98302006 </i>
    <i name="e_fr_energy">    -69.59551749 </i>
    <i name="e_wo_entrp">    -69.59608176 </i>
    <i name="e_0_energy">    -69.59570558 </i>
   </energy>
  </scstep>
  <structure>
   <crystal>
    <varray name="basis" >
     <v>       3.22479600      -5.64383000       0.03157200 </v>
     <v>       3.22479600       5.64383000       0.03157200 </v>
     <v>      -2.10194600       0.00000000       6.07553700 </v>
    </varray>
    <i name="volume">    221.90106089 </i>
    <varray name="rec_basis" >
     <v>       0.15452516      -0.08859232       0.05346088 </v>
     <v>       0.15452516       0.08859232       0.05346088 </v>
     <v>      -0.00160600       0.00000000       0.16403888 </v>
    </varray>
   </crystal>
   <varray name="positions" >
    <v>       0.61690460       0.12117100       0.11953300 </v>
    <v>       0.12117100       0.61844300       0.61953300 </v>
    <v>       0.96295700       0.79032200       0.11881300 </v>
    <v>       0.79032200       0.96295700       0.61881300 </v>
    <v>       0.43973200       0.26728100       0.59904700 </v>
    <v>       0.26728100       0.43973200       0.09904700 </v>
    <v>       0.07949800       0.91167500       0.49736300 </v>
    <v>       0.57140300       0.41236400       0.98018400 </v>
    <v>       0.73711100       0.25006200       0.49504900 </v>
    <v>       0.41236400       0.57140300       0.48018400 </v>
    <v>       0.91167500       0.07949800       0.99736300 </v>
    <v>       0.25006200       0.73711100       0.99504900 </v>
   </varray>
  </structure>
  <varray name="forces" >
   <v>       0.02863423      -0.03705448      -0.00096512 </v>
   <v>      -0.00334867       0.00173160      -0.00065832 </v>
   <v>       0.00219070       0.00158846       0.00066852 </v>
   <v>       0.00212545       0.00004814       0.00173363 </v>
   <v>      -0.00073306       0.00713943      -0.00011618 </v>
   <v>      -0.00785992      -0.00651692       0.00154315 </v>
   <v>       0.00137029       0.00114091      -0.00238323 </v>
   <v>       0.00377692      -0.00193113       0.00032742 </v>
   <v>      -0.00308576       0.00350988      -0.00144095 </v>
   <v>      -0.00031527       0.00714285       0.00079228 </v>
   <v>      -0.00785422       0.02405397       0.00922032 </v>
   <v>      -0.01490069      -0.00085270      -0.00872151 </v>
  </varray>
  <energy>
   <i name="e_fr_energy">    -69.59551749 </i>
   <i name="e_wo_entrp">    -69.59570558 </i>
   <i name="e_0_energy">      0.00056426 </i>
  </energy>
  <time name="totalsc"> 6137.76 6134.98</time>
  <eigenvalues>
   <array>
    <dimension dim="1">band</dimension>
    <dimension dim="2">kpoint</dimension>
    <dimension dim="3">spin</dimension>
    <field>eigene</field>
    <field>occ</field>
    <set>
     <set comment="spin 1">
      <set comment="kpoint 1">
       <r>  -68.6459    1.0000 </r>
       <r>  -68.6451    1.0000 </r>
       <r>  -68.6336    1.0000 </r>
       <r>  -68.6327    1.0000 </r>
       <r>  -68.6142    1.0000 </r>
       <r>  -68.6139    1.0000 </r>
       <r>  -68.5972    1.0000 </r>
       <r>  -68.5965    1.0000 </r>
       <r>  -68.5778    1.0000 </r>
       <r>  -68.5768    1.0000 </r>
       <r>  -68.5609    1.0000 </r>
       <r>  -68.5600    1.0000 </r>
       <r>  -12.7220    1.0000 </r>
       <r>  -11.1300    1.0000 </r>
       <r>  -10.9188    1.0000 </r>
       <r>  -10.6031    1.0000 </r>
       <r>  -10.2506    1.0000 </r>
       <r>  -10.2335    1.0000 </r>
       <r>   -5.9850    1.0000 </r>
       <r>   -4.9837    1.0000 </r>
       <r>   -2.7629    1.0000 </r>
       <r>   -2.2109    1.0000 </r>
       <r>   -2.0714    1.0000 </r>
       <r>   -1.9218    1.0000 </r>
       <r>   -1.5757    1.0000 </r>
       <r>   -0.9814    1.0000 </r>
       <r>   -0.9509    1.0000 </r>
       <r>   -0.6828    1.0000 </r>
       <r>   -0.4031    1.0000 </r>
       <r>   -0.2734    1.0000 </r>
       <r>   -0.2648    1.0000 </r>
       <r>   -0.2356    1.0000 </r>
       <r>   -0.1890    1.0000 </r>
       <r>   -0.1530    1.0000 </r>
       <r>   -0.0392    1.0000 </r>
       <r>    0.0295    1.0000 </r>
       <r>    1.3489    1.0000 </r>
       <r>    1.3635    1.0000 </r>
       <r>    1.4150    1.0000 </r>
       <r>    1.4573    1.0000 </r>
       <r>    1.4711    1.0000 </r>
       <r>    1.4738    1.0000 </r>
       <r>    1.5200    1.0000 </r>
       <r>    1.5332    1.0000 </r>
       <r>    1.5744    1.0000 </r>
       <r>    1.7116    1.0000 </r>
       <r>    1.8926    1.0000 </r>
       <r>    1.9279    1.0000 </r>
       <r>    2.0582    1.0000 </r>
       <r>    2.6486    1.0000 </r>
       <r>    2.7310    1.0000 </r>
       <r>    3.0915    1.0000 </r>
       <r>    3.2167    1.0000 </r>
       <r>    4.0051    1.0047 </r>
       <r>    4.0385    1.0136 </r>
       <r>    4.1719    0.8622 </r>
       <r>    5.5366   -0.0000 </r>
       <r>    6.3587   -0.0000 </r>
       <r>    7.6300    0.0000 </r>
       <r>    7.9861    0.0000 </r>
       <r>    8.6161    0.0000 </r>
       <r>    8.7914    0.0000 </r>
       <r>    9.5706    0.0000 </r>
       <r>    9.7393    0.0000 </r>
       <r>    9.8154    0.0000 </r>
       <r>   10.4203    0.0000 </r>
       <r>   10.5814    0.0000 </r>
       <r>   10.6927    0.0000 </r>
       <r>   10.7175    0.0000 </r>
       <r>   11.2841    0.0000 </r>
       <r>   11.7124    0.0000 </r>
       <r>   12.3899    0.0000 </r>
       <r>   12.4515    0.0000 </r>
       <r>   12.7272    0.0000 </r>
       <r>   13.3204    0.0000 </r>
       <r>   13.3835    0.0000 </r>
       <r>   13.8295    0.0000 </r>
       <r>   13.8855    0.0000 </r>
       <r>   14.1439    0.0000 </r>
       <r>   14.1836    0.0000 </r>
      </set>
      <set comment="kpoint 2">
       <r>  -68.6459    1.0000 </r>
       <r>  -68.6451    1.0000 </r>
       <r>  -68.6336    1.0000 </r>
       <r>  -68.6327    1.0000 </r>
       <r>  -68.6140    1.0000 </r>
       <r>  -68.6138    1.0000 </r>
       <r>  -68.5972    1.0000 </r>
       <r>  -68.5965    1.0000 </r>
       <r>  -68.5777    1.0000 </r>
       <r>  -68.5767    1.0000 </r>
       <r>  -68.5609    1.0000 </r>
       <r>  -68.5600    1.0000 </r>
       <r>  -12.5973    1.0000 </r>
       <r>  -11.1263    1.0000 </r>
       <r>  -10.9854    1.0000 </r>
       <r>  -10.6759    1.0000 </r>
       <r>  -10.3675    1.0000 </r>
       <r>  -10.2751    1.0000 </r>
       <r>   -5.9333    1.0000 </r>
       <r>   -4.7736    1.0000 </r>
       <r>   -2.6486    1.0000 </r>
       <r>   -2.2530    1.0000 </r>
       <r>   -2.0877    1.0000 </r>
       <r>   -1.6880    1.0000 </r>
       <r>   -1.3427    1.0000 </r>
       <r>   -0.9996    1.0000 </r>
       <r>   -0.7691    1.0000 </r>
       <r>   -0.6196    1.0000 </r>
       <r>   -0.5535    1.0000 </r>
       <r>   -0.4393    1.0000 </r>
       <r>   -0.3597    1.0000 </r>
       <r>   -0.2406    1.0000 </r>
       <r>   -0.1950    1.0000 </r>
       <r>   -0.1674    1.0000 </r>
       <r>   -0.0470    1.0000 </r>
       <r>    0.0377    1.0000 </r>
       <r>    1.2799    1.0000 </r>
       <r>    1.3365    1.0000 </r>
       <r>    1.3552    1.0000 </r>
       <r>    1.3911    1.0000 </r>
       <r>    1.4269    1.0000 </r>
       <r>    1.4720    1.0000 </r>
       <r>    1.4986    1.0000 </r>
       <r>    1.5315    1.0000 </r>
       <r>    1.7249    1.0000 </r>
       <r>    1.8577    1.0000 </r>
       <r>    2.0563    1.0000 </r>
       <r>    2.0949    1.0000 </r>
       <r>    2.2314    1.0000 </r>
       <r>    2.4133    1.0000 </r>
       <r>    2.5576    1.0000 </r>
       <r>    2.8258    1.0000 </r>
       <r>    2.9445    1.0000 </r>
       <r>    3.2432    1.0000 </r>
       <r>    3.6627    1.0000 </r>
       <r>    4.0390    1.0139 </r>
       <r>    6.1693   -0.0000 </r>
       <r>    6.9065   -0.0000 </r>
       <r>    8.1366    0.0000 </r>
       <r>    8.2694    0.0000 </r>
       <r>    8.5935    0.0000 </r>
       <r>    9.0125    0.0000 </r>
       <r>    9.2422    0.0000 </r>
       <r>    9.5320    0.0000 </r>
       <r>    9.8667    0.0000 </r>
       <r>   10.3751    0.0000 </r>
       <r>   10.6319    0.0000 </r>
       <r>   10.8154    0.0000 </r>
       <r>   10.9395    0.0000 </r>
       <r>   11.1889    0.0000 </r>
       <r>   11.6528    0.0000 </r>
       <r>   11.7698    0.0000 </r>
       <r>   12.1164    0.0000 </r>
       <r>   12.4432    0.0000 </r>
       <r>   12.6183    0.0000 </r>
       <r>   13.0087    0.0000 </r>
       <r>   13.5065    0.0000 </r>
       <r>   13.8764    0.0000 </r>
       <r>   14.2120    0.0000 </r>
       <r>   14.7110    0.0000 </r>
      </set>
      <set comment="kpoint 3">
       <r>  -68.6458    1.0000 </r>
       <r>  -68.6449    1.0000 </r>
       <r>  -68.6335    1.0000 </r>
       <r>  -68.6326    1.0000 </r>
       <r>  -68.6140    1.0000 </r>
       <r>  -68.6137    1.0000 </r>
       <r>  -68.5972    1.0000 </r>
       <r>  -68.5964    1.0000 </r>
       <r>  -68.5777    1.0000 </r>
       <r>  -68.5767    1.0000 </r>
       <r>  -68.5608    1.0000 </r>
       <r>  -68.5598    1.0000 </r>
       <r>  -12.4385    1.0000 </r>
       <r>  -11.2477    1.0000 </r>
       <r>  -10.9592    1.0000 </r>
       <r>  -10.7639    1.0000 </r>
       <r>  -10.4295    1.0000 </r>
       <r>  -10.3548    1.0000 </r>
       <r>   -5.8710    1.0000 </r>
       <r>   -4.5492    1.0000 </r>
       <r>   -2.4980    1.0000 </r>
       <r>   -2.2454    1.0000 </r>
       <r>   -1.9434    1.0000 </r>
       <r>   -1.4636    1.0000 </r>
       <r>   -1.2259    1.0000 </r>
       <r>   -1.1021    1.0000 </r>
       <r>   -0.9039    1.0000 </r>
       <r>   -0.8601    1.0000 </r>
       <r>   -0.5997    1.0000 </r>
       <r>   -0.5344    1.0000 </r>
       <r>   -0.2732    1.0000 </r>
       <r>   -0.2044    1.0000 </r>
       <r>   -0.2009    1.0000 </r>
       <r>   -0.1477    1.0000 </r>
       <r>   -0.0283    1.0000 </r>
       <r>    0.0779    1.0000 </r>
       <r>    1.2549    1.0000 </r>
       <r>    1.3286    1.0000 </r>
       <r>    1.3465    1.0000 </r>
       <r>    1.3973    1.0000 </r>
       <r>    1.4709    1.0000 </r>
       <r>    1.4790    1.0000 </r>
       <r>    1.5001    1.0000 </r>
       <r>    1.5543    1.0000 </r>
       <r>    1.7531    1.0000 </r>
       <r>    1.7924    1.0000 </r>
       <r>    1.9683    1.0000 </r>
       <r>    2.1446    1.0000 </r>
       <r>    2.3187    1.0000 </r>
       <r>    2.3618    1.0000 </r>
       <r>    2.5543    1.0000 </r>
       <r>    2.6695    1.0000 </r>
       <r>    2.9373    1.0000 </r>
       <r>    3.0817    1.0000 </r>
       <r>    3.2508    1.0000 </r>
       <r>    3.8591    1.0000 </r>
       <r>    6.3845   -0.0000 </r>
       <r>    7.0986    0.0000 </r>
       <r>    7.9811    0.0000 </r>
       <r>    8.2028    0.0000 </r>
       <r>    8.5183    0.0000 </r>
       <r>    8.8218    0.0000 </r>
       <r>    9.3271    0.0000 </r>
       <r>    9.8873    0.0000 </r>
       <r>   10.0102    0.0000 </r>
       <r>   10.5210    0.0000 </r>
       <r>   10.6882    0.0000 </r>
       <r>   10.7917    0.0000 </r>
       <r>   11.1400    0.0000 </r>
       <r>   11.4077    0.0000 </r>
       <r>   11.6098    0.0000 </r>
       <r>   11.7767    0.0000 </r>
       <r>   11.9441    0.0000 </r>
       <r>   12.5014    0.0000 </r>
       <r>   12.7791    0.0000 </r>
       <r>   13.0008    0.0000 </r>
       <r>   13.3995    0.0000 </r>
       <r>   13.5421    0.0000 </r>
       <r>   13.9374    0.0000 </r>
       <r>   14.2705    0.0000 </r>
      </set>
      <set comment="kpoint 4">
       <r>  -68.6459    1.0000 </r>
       <r>  -68.6451    1.0000 </r>
       <r>  -68.6336    1.0000 </r>
       <r>  -68.6327    1.0000 </r>
       <r>  -68.6140    1.0000 </r>
       <r>  -68.6138    1.0000 </r>
       <r>  -68.5973    1.0000 </r>
       <r>  -68.5965    1.0000 </r>
       <r>  -68.5778    1.0000 </r>
       <r>  -68.5767    1.0000 </r>
       <r>  -68.5609    1.0000 </r>
       <r>  -68.5600    1.0000 </r>
       <r>  -12.5972    1.0000 </r>
       <r>  -11.1283    1.0000 </r>
       <r>  -10.9846    1.0000 </r>
       <r>  -10.6735    1.0000 </r>
       <r>  -10.3666    1.0000 </r>
       <r>  -10.2774    1.0000 </r>
       <r>   -5.9333    1.0000 </r>
       <r>   -4.7732    1.0000 </r>
       <r>   -2.6476    1.0000 </r>
       <r>   -2.2537    1.0000 </r>
       <r>   -2.0860    1.0000 </r>
       <r>   -1.6905    1.0000 </r>
       <r>   -1.3442    1.0000 </r>
       <r>   -0.9988    1.0000 </r>
       <r>   -0.7667    1.0000 </r>
       <r>   -0.6214    1.0000 </r>
       <r>   -0.5575    1.0000 </r>
       <r>   -0.4385    1.0000 </r>
       <r>   -0.3589    1.0000 </r>
       <r>   -0.2403    1.0000 </r>
       <r>   -0.1925    1.0000 </r>
       <r>   -0.1680    1.0000 </r>
       <r>   -0.0475    1.0000 </r>
       <r>    0.0396    1.0000 </r>
       <r>    1.2786    1.0000 </r>
       <r>    1.3367    1.0000 </r>
       <r>    1.3546    1.0000 </r>
       <r>    1.3924    1.0000 </r>
       <r>    1.4261    1.0000 </r>
       <r>    1.4722    1.0000 </r>
       <r>    1.4982    1.0000 </r>
       <r>    1.5304    1.0000 </r>
       <r>    1.7244    1.0000 </r>
       <r>    1.8603    1.0000 </r>
       <r>    2.0565    1.0000 </r>
       <r>    2.0946    1.0000 </r>
       <r>    2.2319    1.0000 </r>
       <r>    2.4142    1.0000 </r>
       <r>    2.5544    1.0000 </r>
       <r>    2.8240    1.0000 </r>
       <r>    2.9485    1.0000 </r>
       <r>    3.2439    1.0000 </r>
       <r>    3.6603    1.0000 </r>
       <r>    4.0393    1.0140 </r>
       <r>    6.1687   -0.0000 </r>
       <r>    6.9060   -0.0000 </r>
       <r>    8.1367    0.0000 </r>
       <r>    8.2684    0.0000 </r>
       <r>    8.5940    0.0000 </r>
       <r>    9.0127    0.0000 </r>
       <r>    9.2434    0.0000 </r>
       <r>    9.5320    0.0000 </r>
       <r>    9.8657    0.0000 </r>
       <r>   10.3758    0.0000 </r>
       <r>   10.6332    0.0000 </r>
       <r>   10.8117    0.0000 </r>
       <r>   10.9407    0.0000 </r>
       <r>   11.1919    0.0000 </r>
       <r>   11.6558    0.0000 </r>
       <r>   11.7691    0.0000 </r>
       <r>   12.1175    0.0000 </r>
       <r>   12.4436    0.0000 </r>
       <r>   12.6178    0.0000 </r>
       <r>   13.0055    0.0000 </r>
       <r>   13.5191    0.0000 </r>
       <r>   13.9007    0.0000 </r>
       <r>   14.2723    0.0000 </r>
       <r>   14.8398    0.0000 </r>
      </set>
      <set comment="kpoint 5">
       <r>  -68.6459    1.0000 </r>
       <r>  -68.6451    1.0000 </r>
       <r>  -68.6335    1.0000 </r>
       <r>  -68.6326    1.0000 </r>
       <r>  -68.6142    1.0000 </r>
       <r>  -68.6139    1.0000 </r>
       <r>  -68.5971    1.0000 </r>
       <r>  -68.5964    1.0000 </r>
       <r>  -68.5779    1.0000 </r>
       <r>  -68.5768    1.0000 </r>
       <r>  -68.5609    1.0000 </r>
       <r>  -68.5600    1.0000 </r>
       <r>  -12.4421    1.0000 </r>
       <r>  -11.1915    1.0000 </r>
       <r>  -10.9454    1.0000 </r>
       <r>  -10.8748    1.0000 </r>
       <r>  -10.3884    1.0000 </r>
       <r>  -10.3525    1.0000 </r>
       <r>   -5.8761    1.0000 </r>
       <r>   -4.5221    1.0000 </r>
       <r>   -2.4211    1.0000 </r>
       <r>   -2.2463    1.0000 </r>
       <r>   -1.7912    1.0000 </r>
       <r>   -1.6821    1.0000 </r>
       <r>   -1.3566    1.0000 </r>
       <r>   -1.2969    1.0000 </r>
       <r>   -1.0780    1.0000 </r>
       <r>   -0.6848    1.0000 </r>
       <r>   -0.5279    1.0000 </r>
       <r>   -0.2932    1.0000 </r>
       <r>   -0.2819    1.0000 </r>
       <r>   -0.2252    1.0000 </r>
       <r>   -0.1851    1.0000 </r>
       <r>   -0.1286    1.0000 </r>
       <r>   -0.0905    1.0000 </r>
       <r>    0.0793    1.0000 </r>
       <r>    1.2934    1.0000 </r>
       <r>    1.3114    1.0000 </r>
       <r>    1.4155    1.0000 </r>
       <r>    1.4264    1.0000 </r>
       <r>    1.4628    1.0000 </r>
       <r>    1.4827    1.0000 </r>
       <r>    1.4957    1.0000 </r>
       <r>    1.5702    1.0000 </r>
       <r>    1.6720    1.0000 </r>
       <r>    1.8819    1.0000 </r>
       <r>    1.9396    1.0000 </r>
       <r>    2.1339    1.0000 </r>
       <r>    2.2798    1.0000 </r>
       <r>    2.3189    1.0000 </r>
       <r>    2.5623    1.0000 </r>
       <r>    2.6504    1.0000 </r>
       <r>    2.9026    1.0000 </r>
       <r>    2.9436    1.0000 </r>
       <r>    3.6974    1.0000 </r>
       <r>    3.8308    1.0000 </r>
       <r>    6.1708   -0.0000 </r>
       <r>    6.9903    0.0000 </r>
       <r>    8.0040    0.0000 </r>
       <r>    8.3271    0.0000 </r>
       <r>    8.4349    0.0000 </r>
       <r>    8.5708    0.0000 </r>
       <r>    9.1460    0.0000 </r>
       <r>    9.2480    0.0000 </r>
       <r>   10.3611    0.0000 </r>
       <r>   10.4945    0.0000 </r>
       <r>   10.9201    0.0000 </r>
       <r>   11.1849    0.0000 </r>
       <r>   11.3294    0.0000 </r>
       <r>   11.5595    0.0000 </r>
       <r>   11.8127    0.0000 </r>
       <r>   11.9639    0.0000 </r>
       <r>   12.3156    0.0000 </r>
       <r>   12.5035    0.0000 </r>
       <r>   12.7111    0.0000 </r>
       <r>   12.9128    0.0000 </r>
       <r>   13.3392    0.0000 </r>
       <r>   13.4455    0.0000 </r>
       <r>   14.2567    0.0000 </r>
       <r>   14.3668    0.0000 </r>
      </set>
      <set comment="kpoint 6">
       <r>  -68.6455    1.0000 </r>
       <r>  -68.6451    1.0000 </r>
       <r>  -68.6335    1.0000 </r>
       <r>  -68.6327    1.0000 </r>
       <r>  -68.6139    1.0000 </r>
       <r>  -68.6137    1.0000 </r>
       <r>  -68.5972    1.0000 </r>
       <r>  -68.5965    1.0000 </r>
       <r>  -68.5775    1.0000 </r>
       <r>  -68.5768    1.0000 </r>
       <r>  -68.5606    1.0000 </r>
       <r>  -68.5599    1.0000 </r>
       <r>  -12.4424    1.0000 </r>
       <r>  -11.3543    1.0000 </r>
       <r>  -10.9400    1.0000 </r>
       <r>  -10.7355    1.0000 </r>
       <r>  -10.3918    1.0000 </r>
       <r>  -10.2687    1.0000 </r>
       <r>   -5.9478    1.0000 </r>
       <r>   -4.6428    1.0000 </r>
       <r>   -2.3945    1.0000 </r>
       <r>   -2.2283    1.0000 </r>
       <r>   -2.0567    1.0000 </r>
       <r>   -1.6398    1.0000 </r>
       <r>   -1.3627    1.0000 </r>
       <r>   -1.2822    1.0000 </r>
       <r>   -1.0207    1.0000 </r>
       <r>   -0.5092    1.0000 </r>
       <r>   -0.4810    1.0000 </r>
       <r>   -0.3293    1.0000 </r>
       <r>   -0.2817    1.0000 </r>
       <r>   -0.2162    1.0000 </r>
       <r>   -0.1523    1.0000 </r>
       <r>   -0.1361    1.0000 </r>
       <r>   -0.0095    1.0000 </r>
       <r>    0.1106    1.0000 </r>
       <r>    1.2464    1.0000 </r>
       <r>    1.3154    1.0000 </r>
       <r>    1.3828    1.0000 </r>
       <r>    1.4371    1.0000 </r>
       <r>    1.4616    1.0000 </r>
       <r>    1.4918    1.0000 </r>
       <r>    1.4970    1.0000 </r>
       <r>    1.5506    1.0000 </r>
       <r>    1.7478    1.0000 </r>
       <r>    1.8286    1.0000 </r>
       <r>    1.9219    1.0000 </r>
       <r>    2.1322    1.0000 </r>
       <r>    2.2204    1.0000 </r>
       <r>    2.3861    1.0000 </r>
       <r>    2.5603    1.0000 </r>
       <r>    2.7919    1.0000 </r>
       <r>    2.9780    1.0000 </r>
       <r>    3.3130    1.0000 </r>
       <r>    3.6044    1.0000 </r>
       <r>    3.7468    1.0000 </r>
       <r>    6.0873   -0.0000 </r>
       <r>    6.9397   -0.0000 </r>
       <r>    7.6112    0.0000 </r>
       <r>    8.0686    0.0000 </r>
       <r>    8.4099    0.0000 </r>
       <r>    8.6154    0.0000 </r>
       <r>    8.9842    0.0000 </r>
       <r>    9.1518    0.0000 </r>
       <r>   10.0872    0.0000 </r>
       <r>   10.3344    0.0000 </r>
       <r>   10.7334    0.0000 </r>
       <r>   11.1075    0.0000 </r>
       <r>   11.4600    0.0000 </r>
       <r>   11.5953    0.0000 </r>
       <r>   11.7958    0.0000 </r>
       <r>   12.0830    0.0000 </r>
       <r>   12.4776    0.0000 </r>
       <r>   12.9192    0.0000 </r>
       <r>   13.0360    0.0000 </r>
       <r>   13.8236    0.0000 </r>
       <r>   14.1951    0.0000 </r>
       <r>   14.6615    0.0000 </r>
       <r>   15.4290    0.0000 </r>
       <r>   15.6418    0.0000 </r>
      </set>
      <set comment="kpoint 7">
       <r>  -68.6459    1.0000 </r>
       <r>  -68.6451    1.0000 </r>
       <r>  -68.6336    1.0000 </r>
       <r>  -68.6326    1.0000 </r>
       <r>  -68.6139    1.0000 </r>
       <r>  -68.6137    1.0000 </r>
       <r>  -68.5972    1.0000 </r>
       <r>  -68.5965    1.0000 </r>
       <r>  -68.5777    1.0000 </r>
       <r>  -68.5767    1.0000 </r>
       <r>  -68.5609    1.0000 </r>
       <r>  -68.5600    1.0000 </r>
       <r>  -12.6001    1.0000 </r>
       <r>  -11.2518    1.0000 </r>
       <r>  -10.9937    1.0000 </r>
       <r>  -10.5672    1.0000 </r>
       <r>  -10.3690    1.0000 </r>
       <r>  -10.1781    1.0000 </r>
       <r>   -6.0102    1.0000 </r>
       <r>   -4.8948    1.0000 </r>
       <r>   -2.6483    1.0000 </r>
       <r>   -2.3155    1.0000 </r>
       <r>   -1.9737    1.0000 </r>
       <r>   -1.6469    1.0000 </r>
       <r>   -1.4940    1.0000 </r>
       <r>   -1.1842    1.0000 </r>
       <r>   -0.7898    1.0000 </r>
       <r>   -0.5801    1.0000 </r>
       <r>   -0.4422    1.0000 </r>
       <r>   -0.3371    1.0000 </r>
       <r>   -0.2924    1.0000 </r>
       <r>   -0.2341    1.0000 </r>
       <r>   -0.1734    1.0000 </r>
       <r>   -0.1328    1.0000 </r>
       <r>   -0.0107    1.0000 </r>
       <r>    0.0711    1.0000 </r>
       <r>    1.2592    1.0000 </r>
       <r>    1.3207    1.0000 </r>
       <r>    1.3644    1.0000 </r>
       <r>    1.4242    1.0000 </r>
       <r>    1.4307    1.0000 </r>
       <r>    1.4751    1.0000 </r>
       <r>    1.5039    1.0000 </r>
       <r>    1.5427    1.0000 </r>
       <r>    1.7244    1.0000 </r>
       <r>    1.8124    1.0000 </r>
       <r>    1.9952    1.0000 </r>
       <r>    2.0727    1.0000 </r>
       <r>    2.4168    1.0000 </r>
       <r>    2.4636    1.0000 </r>
       <r>    2.5275    1.0000 </r>
       <r>    2.8719    1.0000 </r>
       <r>    3.1423    1.0000 </r>
       <r>    3.2284    1.0000 </r>
       <r>    3.7851    1.0000 </r>
       <r>    4.0691    1.0270 </r>
       <r>    5.9785   -0.0000 </r>
       <r>    6.6896   -0.0000 </r>
       <r>    7.5340    0.0000 </r>
       <r>    8.2223    0.0000 </r>
       <r>    8.6166    0.0000 </r>
       <r>    8.9134    0.0000 </r>
       <r>    9.3078    0.0000 </r>
       <r>    9.4307    0.0000 </r>
       <r>    9.8047    0.0000 </r>
       <r>   10.2679    0.0000 </r>
       <r>   10.5442    0.0000 </r>
       <r>   10.8329    0.0000 </r>
       <r>   10.9724    0.0000 </r>
       <r>   11.3788    0.0000 </r>
       <r>   11.4712    0.0000 </r>
       <r>   11.7320    0.0000 </r>
       <r>   12.1003    0.0000 </r>
       <r>   12.6618    0.0000 </r>
       <r>   12.9437    0.0000 </r>
       <r>   13.1037    0.0000 </r>
       <r>   13.3518    0.0000 </r>
       <r>   13.5212    0.0000 </r>
       <r>   14.4773    0.0000 </r>
       <r>   14.7554    0.0000 </r>
      </set>
      <set comment="kpoint 8">
       <r>  -68.6457    1.0000 </r>
       <r>  -68.6450    1.0000 </r>
       <r>  -68.6335    1.0000 </r>
       <r>  -68.6326    1.0000 </r>
       <r>  -68.6139    1.0000 </r>
       <r>  -68.6138    1.0000 </r>
       <r>  -68.5972    1.0000 </r>
       <r>  -68.5964    1.0000 </r>
       <r>  -68.5777    1.0000 </r>
       <r>  -68.5767    1.0000 </r>
       <r>  -68.5607    1.0000 </r>
       <r>  -68.5599    1.0000 </r>
       <r>  -12.4381    1.0000 </r>
       <r>  -11.2512    1.0000 </r>
       <r>  -10.9585    1.0000 </r>
       <r>  -10.7583    1.0000 </r>
       <r>  -10.4289    1.0000 </r>
       <r>  -10.3588    1.0000 </r>
       <r>   -5.8710    1.0000 </r>
       <r>   -4.5483    1.0000 </r>
       <r>   -2.4950    1.0000 </r>
       <r>   -2.2462    1.0000 </r>
       <r>   -1.9452    1.0000 </r>
       <r>   -1.4637    1.0000 </r>
       <r>   -1.2289    1.0000 </r>
       <r>   -1.1008    1.0000 </r>
       <r>   -0.9043    1.0000 </r>
       <r>   -0.8596    1.0000 </r>
       <r>   -0.6017    1.0000 </r>
       <r>   -0.5373    1.0000 </r>
       <r>   -0.2727    1.0000 </r>
       <r>   -0.2039    1.0000 </r>
       <r>   -0.1994    1.0000 </r>
       <r>   -0.1455    1.0000 </r>
       <r>   -0.0315    1.0000 </r>
       <r>    0.0833    1.0000 </r>
       <r>    1.2537    1.0000 </r>
       <r>    1.3282    1.0000 </r>
       <r>    1.3475    1.0000 </r>
       <r>    1.3977    1.0000 </r>
       <r>    1.4714    1.0000 </r>
       <r>    1.4783    1.0000 </r>
       <r>    1.4995    1.0000 </r>
       <r>    1.5530    1.0000 </r>
       <r>    1.7517    1.0000 </r>
       <r>    1.7913    1.0000 </r>
       <r>    1.9673    1.0000 </r>
       <r>    2.1481    1.0000 </r>
       <r>    2.3238    1.0000 </r>
       <r>    2.3613    1.0000 </r>
       <r>    2.5541    1.0000 </r>
       <r>    2.6715    1.0000 </r>
       <r>    2.9361    1.0000 </r>
       <r>    3.0762    1.0000 </r>
       <r>    3.2499    1.0000 </r>
       <r>    3.8614    1.0000 </r>
       <r>    6.3835   -0.0000 </r>
       <r>    7.0963    0.0000 </r>
       <r>    7.9792    0.0000 </r>
       <r>    8.2043    0.0000 </r>
       <r>    8.5182    0.0000 </r>
       <r>    8.8215    0.0000 </r>
       <r>    9.3265    0.0000 </r>
       <r>    9.8902    0.0000 </r>
       <r>   10.0120    0.0000 </r>
       <r>   10.5194    0.0000 </r>
       <r>   10.6912    0.0000 </r>
       <r>   10.7924    0.0000 </r>
       <r>   11.1425    0.0000 </r>
       <r>   11.4081    0.0000 </r>
       <r>   11.6093    0.0000 </r>
       <r>   11.7740    0.0000 </r>
       <r>   11.9466    0.0000 </r>
       <r>   12.5012    0.0000 </r>
       <r>   12.8197    0.0000 </r>
       <r>   13.0300    0.0000 </r>
       <r>   13.5252    0.0000 </r>
       <r>   13.6672    0.0000 </r>
       <r>   14.5540    0.0000 </r>
       <r>   15.2608    0.0000 </r>
      </set>
      <set comment="kpoint 9">
       <r>  -68.6455    1.0000 </r>
       <r>  -68.6451    1.0000 </r>
       <r>  -68.6334    1.0000 </r>
       <r>  -68.6327    1.0000 </r>
       <r>  -68.6139    1.0000 </r>
       <r>  -68.6138    1.0000 </r>
       <r>  -68.5971    1.0000 </r>
       <r>  -68.5965    1.0000 </r>
       <r>  -68.5775    1.0000 </r>
       <r>  -68.5768    1.0000 </r>
       <r>  -68.5606    1.0000 </r>
       <r>  -68.5600    1.0000 </r>
       <r>  -12.4421    1.0000 </r>
       <r>  -11.3555    1.0000 </r>
       <r>  -10.9400    1.0000 </r>
       <r>  -10.7334    1.0000 </r>
       <r>  -10.3914    1.0000 </r>
       <r>  -10.2704    1.0000 </r>
       <r>   -5.9478    1.0000 </r>
       <r>   -4.6425    1.0000 </r>
       <r>   -2.3931    1.0000 </r>
       <r>   -2.2269    1.0000 </r>
       <r>   -2.0587    1.0000 </r>
       <r>   -1.6394    1.0000 </r>
       <r>   -1.3641    1.0000 </r>
       <r>   -1.2822    1.0000 </r>
       <r>   -1.0220    1.0000 </r>
       <r>   -0.5121    1.0000 </r>
       <r>   -0.4825    1.0000 </r>
       <r>   -0.3263    1.0000 </r>
       <r>   -0.2822    1.0000 </r>
       <r>   -0.2139    1.0000 </r>
       <r>   -0.1519    1.0000 </r>
       <r>   -0.1351    1.0000 </r>
       <r>   -0.0108    1.0000 </r>
       <r>    0.1127    1.0000 </r>
       <r>    1.2457    1.0000 </r>
       <r>    1.3157    1.0000 </r>
       <r>    1.3812    1.0000 </r>
       <r>    1.4378    1.0000 </r>
       <r>    1.4613    1.0000 </r>
       <r>    1.4919    1.0000 </r>
       <r>    1.4969    1.0000 </r>
       <r>    1.5504    1.0000 </r>
       <r>    1.7495    1.0000 </r>
       <r>    1.8282    1.0000 </r>
       <r>    1.9216    1.0000 </r>
       <r>    2.1315    1.0000 </r>
       <r>    2.2226    1.0000 </r>
       <r>    2.3851    1.0000 </r>
       <r>    2.5620    1.0000 </r>
       <r>    2.7902    1.0000 </r>
       <r>    2.9786    1.0000 </r>
       <r>    3.3102    1.0000 </r>
       <r>    3.6037    1.0000 </r>
       <r>    3.7486    1.0000 </r>
       <r>    6.0868   -0.0000 </r>
       <r>    6.9393   -0.0000 </r>
       <r>    7.6116    0.0000 </r>
       <r>    8.0683    0.0000 </r>
       <r>    8.4101    0.0000 </r>
       <r>    8.6150    0.0000 </r>
       <r>    8.9832    0.0000 </r>
       <r>    9.1528    0.0000 </r>
       <r>   10.0878    0.0000 </r>
       <r>   10.3356    0.0000 </r>
       <r>   10.7327    0.0000 </r>
       <r>   11.1058    0.0000 </r>
       <r>   11.4576    0.0000 </r>
       <r>   11.5773    0.0000 </r>
       <r>   11.7847    0.0000 </r>
       <r>   12.0339    0.0000 </r>
       <r>   12.5240    0.0000 </r>
       <r>   12.6789    0.0000 </r>
       <r>   12.9184    0.0000 </r>
       <r>   13.2112    0.0000 </r>
       <r>   14.2334    0.0000 </r>
       <r>   14.7793    0.0000 </r>
       <r>   15.2514    0.0000 </r>
       <r>   15.9068    0.0000 </r>
      </set>
      <set comment="kpoint 10">
       <r>  -68.6455    1.0000 </r>
       <r>  -68.6447    1.0000 </r>
       <r>  -68.6333    1.0000 </r>
       <r>  -68.6326    1.0000 </r>
       <r>  -68.6137    1.0000 </r>
       <r>  -68.6137    1.0000 </r>
       <r>  -68.5970    1.0000 </r>
       <r>  -68.5963    1.0000 </r>
       <r>  -68.5776    1.0000 </r>
       <r>  -68.5765    1.0000 </r>
       <r>  -68.5605    1.0000 </r>
       <r>  -68.5596    1.0000 </r>
       <r>  -12.4340    1.0000 </r>
       <r>  -11.5022    1.0000 </r>
       <r>  -10.9152    1.0000 </r>
       <r>  -10.6138    1.0000 </r>
       <r>  -10.4009    1.0000 </r>
       <r>  -10.1972    1.0000 </r>
       <r>   -6.0264    1.0000 </r>
       <r>   -4.8106    1.0000 </r>
       <r>   -2.3125    1.0000 </r>
       <r>   -2.2668    1.0000 </r>
       <r>   -2.0944    1.0000 </r>
       <r>   -1.7022    1.0000 </r>
       <r>   -1.2510    1.0000 </r>
       <r>   -1.1106    1.0000 </r>
       <r>   -0.8391    1.0000 </r>
       <r>   -0.7815    1.0000 </r>
       <r>   -0.7214    1.0000 </r>
       <r>   -0.2407    1.0000 </r>
       <r>   -0.2004    1.0000 </r>
       <r>   -0.1831    1.0000 </r>
       <r>   -0.1517    1.0000 </r>
       <r>   -0.0392    1.0000 </r>
       <r>   -0.0019    1.0000 </r>
       <r>    0.1832    1.0000 </r>
       <r>    1.2664    1.0000 </r>
       <r>    1.3174    1.0000 </r>
       <r>    1.3733    1.0000 </r>
       <r>    1.4135    1.0000 </r>
       <r>    1.4344    1.0000 </r>
       <r>    1.4911    1.0000 </r>
       <r>    1.5092    1.0000 </r>
       <r>    1.5501    1.0000 </r>
       <r>    1.7870    1.0000 </r>
       <r>    1.8471    1.0000 </r>
       <r>    1.9959    1.0000 </r>
       <r>    2.1508    1.0000 </r>
       <r>    2.2521    1.0000 </r>
       <r>    2.3353    1.0000 </r>
       <r>    2.5586    1.0000 </r>
       <r>    2.7646    1.0000 </r>
       <r>    2.7756    1.0000 </r>
       <r>    3.3691    1.0000 </r>
       <r>    3.7631    1.0000 </r>
       <r>    4.0072    1.0051 </r>
       <r>    5.8543   -0.0000 </r>
       <r>    6.7659   -0.0000 </r>
       <r>    7.0837    0.0000 </r>
       <r>    8.4120    0.0000 </r>
       <r>    8.5604    0.0000 </r>
       <r>    8.7699    0.0000 </r>
       <r>    9.1426    0.0000 </r>
       <r>    9.2401    0.0000 </r>
       <r>    9.9587    0.0000 </r>
       <r>   10.2849    0.0000 </r>
       <r>   10.7242    0.0000 </r>
       <r>   10.8268    0.0000 </r>
       <r>   10.8775    0.0000 </r>
       <r>   11.2729    0.0000 </r>
       <r>   11.7536    0.0000 </r>
       <r>   11.9143    0.0000 </r>
       <r>   11.9743    0.0000 </r>
       <r>   12.3662    0.0000 </r>
       <r>   12.5394    0.0000 </r>
       <r>   13.4573    0.0000 </r>
       <r>   14.2881    0.0000 </r>
       <r>   14.6786    0.0000 </r>
       <r>   16.7466    0.0000 </r>
       <r>   16.7547    0.0000 </r>
      </set>
      <set comment="kpoint 11">
       <r>  -68.6459    1.0000 </r>
       <r>  -68.6451    1.0000 </r>
       <r>  -68.6336    1.0000 </r>
       <r>  -68.6327    1.0000 </r>
       <r>  -68.6141    1.0000 </r>
       <r>  -68.6138    1.0000 </r>
       <r>  -68.5973    1.0000 </r>
       <r>  -68.5965    1.0000 </r>
       <r>  -68.5778    1.0000 </r>
       <r>  -68.5767    1.0000 </r>
       <r>  -68.5609    1.0000 </r>
       <r>  -68.5600    1.0000 </r>
       <r>  -12.6188    1.0000 </r>
       <r>  -11.4262    1.0000 </r>
       <r>  -10.7796    1.0000 </r>
       <r>  -10.6083    1.0000 </r>
       <r>  -10.2494    1.0000 </r>
       <r>  -10.2356    1.0000 </r>
       <r>   -5.8314    1.0000 </r>
       <r>   -5.0473    1.0000 </r>
       <r>   -2.6026    1.0000 </r>
       <r>   -2.3729    1.0000 </r>
       <r>   -1.9608    1.0000 </r>
       <r>   -1.7762    1.0000 </r>
       <r>   -1.4435    1.0000 </r>
       <r>   -1.1260    1.0000 </r>
       <r>   -1.0633    1.0000 </r>
       <r>   -0.7719    1.0000 </r>
       <r>   -0.4694    1.0000 </r>
       <r>   -0.2924    1.0000 </r>
       <r>   -0.2392    1.0000 </r>
       <r>   -0.2338    1.0000 </r>
       <r>   -0.1923    1.0000 </r>
       <r>   -0.1472    1.0000 </r>
       <r>   -0.0173    1.0000 </r>
       <r>    0.0242    1.0000 </r>
       <r>    1.3322    1.0000 </r>
       <r>    1.3823    1.0000 </r>
       <r>    1.4164    1.0000 </r>
       <r>    1.4390    1.0000 </r>
       <r>    1.4648    1.0000 </r>
       <r>    1.4666    1.0000 </r>
       <r>    1.5142    1.0000 </r>
       <r>    1.5464    1.0000 </r>
       <r>    1.6327    1.0000 </r>
       <r>    1.7582    1.0000 </r>
       <r>    1.7873    1.0000 </r>
       <r>    1.9505    1.0000 </r>
       <r>    2.0884    1.0000 </r>
       <r>    2.6613    1.0000 </r>
       <r>    2.7174    1.0000 </r>
       <r>    3.1952    1.0000 </r>
       <r>    3.2519    1.0000 </r>
       <r>    3.5195    1.0000 </r>
       <r>    3.8939    1.0000 </r>
       <r>    3.9775    1.0016 </r>
       <r>    6.0451   -0.0000 </r>
       <r>    6.4171   -0.0000 </r>
       <r>    7.8241    0.0000 </r>
       <r>    7.9080    0.0000 </r>
       <r>    8.3651    0.0000 </r>
       <r>    8.8188    0.0000 </r>
       <r>    9.7759    0.0000 </r>
       <r>    9.7941    0.0000 </r>
       <r>   10.0614    0.0000 </r>
       <r>   10.5874    0.0000 </r>
       <r>   10.6471    0.0000 </r>
       <r>   10.8148    0.0000 </r>
       <r>   10.8524    0.0000 </r>
       <r>   11.4945    0.0000 </r>
       <r>   11.5576    0.0000 </r>
       <r>   12.0254    0.0000 </r>
       <r>   12.5793    0.0000 </r>
       <r>   12.7747    0.0000 </r>
       <r>   12.9114    0.0000 </r>
       <r>   13.2054    0.0000 </r>
       <r>   13.5327    0.0000 </r>
       <r>   13.8228    0.0000 </r>
       <r>   14.1985    0.0000 </r>
       <r>   14.7096    0.0000 </r>
      </set>
      <set comment="kpoint 12">
       <r>  -68.6459    1.0000 </r>
       <r>  -68.6451    1.0000 </r>
       <r>  -68.6336    1.0000 </r>
       <r>  -68.6327    1.0000 </r>
       <r>  -68.6141    1.0000 </r>
       <r>  -68.6139    1.0000 </r>
       <r>  -68.5972    1.0000 </r>
       <r>  -68.5965    1.0000 </r>
       <r>  -68.5778    1.0000 </r>
       <r>  -68.5768    1.0000 </r>
       <r>  -68.5609    1.0000 </r>
       <r>  -68.5599    1.0000 </r>
       <r>  -12.4601    1.0000 </r>
       <r>  -11.4672    1.0000 </r>
       <r>  -10.8653    1.0000 </r>
       <r>  -10.6887    1.0000 </r>
       <r>  -10.3728    1.0000 </r>
       <r>  -10.2444    1.0000 </r>
       <r>   -5.7670    1.0000 </r>
       <r>   -4.8049    1.0000 </r>
       <r>   -2.4483    1.0000 </r>
       <r>   -2.2332    1.0000 </r>
       <r>   -1.8490    1.0000 </r>
       <r>   -1.7131    1.0000 </r>
       <r>   -1.4323    1.0000 </r>
       <r>   -1.1866    1.0000 </r>
       <r>   -0.8907    1.0000 </r>
       <r>   -0.7461    1.0000 </r>
       <r>   -0.6070    1.0000 </r>
       <r>   -0.5218    1.0000 </r>
       <r>   -0.3121    1.0000 </r>
       <r>   -0.2457    1.0000 </r>
       <r>   -0.1744    1.0000 </r>
       <r>   -0.1207    1.0000 </r>
       <r>   -0.0529    1.0000 </r>
       <r>    0.0621    1.0000 </r>
       <r>    1.3022    1.0000 </r>
       <r>    1.3360    1.0000 </r>
       <r>    1.3693    1.0000 </r>
       <r>    1.4318    1.0000 </r>
       <r>    1.4461    1.0000 </r>
       <r>    1.4795    1.0000 </r>
       <r>    1.5214    1.0000 </r>
       <r>    1.5470    1.0000 </r>
       <r>    1.6431    1.0000 </r>
       <r>    1.8701    1.0000 </r>
       <r>    1.9790    1.0000 </r>
       <r>    2.0479    1.0000 </r>
       <r>    2.1956    1.0000 </r>
       <r>    2.4752    1.0000 </r>
       <r>    2.5968    1.0000 </r>
       <r>    2.8391    1.0000 </r>
       <r>    2.9636    1.0000 </r>
       <r>    3.1313    1.0000 </r>
       <r>    3.5662    1.0000 </r>
       <r>    3.7244    1.0000 </r>
       <r>    6.4410   -0.0000 </r>
       <r>    6.9572    0.0000 </r>
       <r>    8.1706    0.0000 </r>
       <r>    8.2459    0.0000 </r>
       <r>    8.8343    0.0000 </r>
       <r>    9.1279    0.0000 </r>
       <r>    9.4657    0.0000 </r>
       <r>    9.7961    0.0000 </r>
       <r>   10.0845    0.0000 </r>
       <r>   10.3002    0.0000 </r>
       <r>   10.7394    0.0000 </r>
       <r>   11.0794    0.0000 </r>
       <r>   11.2898    0.0000 </r>
       <r>   11.4228    0.0000 </r>
       <r>   11.6309    0.0000 </r>
       <r>   11.7240    0.0000 </r>
       <r>   12.0856    0.0000 </r>
       <r>   12.2660    0.0000 </r>
       <r>   12.5419    0.0000 </r>
       <r>   12.6583    0.0000 </r>
       <r>   12.9559    0.0000 </r>
       <r>   13.0610    0.0000 </r>
       <r>   13.6414    0.0000 </r>
       <r>   14.6886    0.0000 </r>
      </set>
      <set comment="kpoint 13">
       <r>  -68.6456    1.0000 </r>
       <r>  -68.6450    1.0000 </r>
       <r>  -68.6334    1.0000 </r>
       <r>  -68.6327    1.0000 </r>
       <r>  -68.6139    1.0000 </r>
       <r>  -68.6138    1.0000 </r>
       <r>  -68.5971    1.0000 </r>
       <r>  -68.5964    1.0000 </r>
       <r>  -68.5776    1.0000 </r>
       <r>  -68.5768    1.0000 </r>
       <r>  -68.5606    1.0000 </r>
       <r>  -68.5600    1.0000 </r>
       <r>  -12.3581    1.0000 </r>
       <r>  -11.4140    1.0000 </r>
       <r>  -10.9527    1.0000 </r>
       <r>  -10.6849    1.0000 </r>
       <r>  -10.4786    1.0000 </r>
       <r>  -10.3326    1.0000 </r>
       <r>   -5.7522    1.0000 </r>
       <r>   -4.7232    1.0000 </r>
       <r>   -2.5239    1.0000 </r>
       <r>   -2.1867    1.0000 </r>
       <r>   -1.9517    1.0000 </r>
       <r>   -1.5348    1.0000 </r>
       <r>   -1.2990    1.0000 </r>
       <r>   -1.0975    1.0000 </r>
       <r>   -0.8707    1.0000 </r>
       <r>   -0.7560    1.0000 </r>
       <r>   -0.5505    1.0000 </r>
       <r>   -0.4452    1.0000 </r>
       <r>   -0.2890    1.0000 </r>
       <r>   -0.1807    1.0000 </r>
       <r>   -0.1441    1.0000 </r>
       <r>   -0.1082    1.0000 </r>
       <r>   -0.0440    1.0000 </r>
       <r>    0.0236    1.0000 </r>
       <r>    1.2731    1.0000 </r>
       <r>    1.2977    1.0000 </r>
       <r>    1.3505    1.0000 </r>
       <r>    1.4291    1.0000 </r>
       <r>    1.4530    1.0000 </r>
       <r>    1.4803    1.0000 </r>
       <r>    1.5016    1.0000 </r>
       <r>    1.5887    1.0000 </r>
       <r>    1.7208    1.0000 </r>
       <r>    1.9325    1.0000 </r>
       <r>    2.0766    1.0000 </r>
       <r>    2.1435    1.0000 </r>
       <r>    2.2664    1.0000 </r>
       <r>    2.4033    1.0000 </r>
       <r>    2.5669    1.0000 </r>
       <r>    2.5965    1.0000 </r>
       <r>    2.9006    1.0000 </r>
       <r>    3.0105    1.0000 </r>
       <r>    3.3590    1.0000 </r>
       <r>    3.8982    1.0000 </r>
       <r>    6.3649   -0.0000 </r>
       <r>    6.8975   -0.0000 </r>
       <r>    7.5748    0.0000 </r>
       <r>    8.0834    0.0000 </r>
       <r>    8.5491    0.0000 </r>
       <r>    8.7976    0.0000 </r>
       <r>    9.2779    0.0000 </r>
       <r>    9.6291    0.0000 </r>
       <r>    9.9298    0.0000 </r>
       <r>   10.2742    0.0000 </r>
       <r>   10.6590    0.0000 </r>
       <r>   10.9266    0.0000 </r>
       <r>   10.9709    0.0000 </r>
       <r>   11.2810    0.0000 </r>
       <r>   11.5190    0.0000 </r>
       <r>   11.7877    0.0000 </r>
       <r>   12.2462    0.0000 </r>
       <r>   12.5450    0.0000 </r>
       <r>   13.0906    0.0000 </r>
       <r>   13.5158    0.0000 </r>
       <r>   14.2901    0.0000 </r>
       <r>   14.5503    0.0000 </r>
       <r>   15.1262    0.0000 </r>
       <r>   16.2663    0.0000 </r>
      </set>
      <set comment="kpoint 14">
       <r>  -68.6459    1.0000 </r>
       <r>  -68.6451    1.0000 </r>
       <r>  -68.6336    1.0000 </r>
       <r>  -68.6327    1.0000 </r>
       <r>  -68.6141    1.0000 </r>
       <r>  -68.6138    1.0000 </r>
       <r>  -68.5973    1.0000 </r>
       <r>  -68.5965    1.0000 </r>
       <r>  -68.5778    1.0000 </r>
       <r>  -68.5768    1.0000 </r>
       <r>  -68.5609    1.0000 </r>
       <r>  -68.5600    1.0000 </r>
       <r>  -12.5426    1.0000 </r>
       <r>  -11.3386    1.0000 </r>
       <r>  -10.8733    1.0000 </r>
       <r>  -10.6067    1.0000 </r>
       <r>  -10.3990    1.0000 </r>
       <r>  -10.2806    1.0000 </r>
       <r>   -5.8251    1.0000 </r>
       <r>   -4.9753    1.0000 </r>
       <r>   -2.6673    1.0000 </r>
       <r>   -2.4530    1.0000 </r>
       <r>   -2.0394    1.0000 </r>
       <r>   -1.5773    1.0000 </r>
       <r>   -1.1688    1.0000 </r>
       <r>   -0.9821    1.0000 </r>
       <r>   -0.7952    1.0000 </r>
       <r>   -0.6586    1.0000 </r>
       <r>   -0.5138    1.0000 </r>
       <r>   -0.3887    1.0000 </r>
       <r>   -0.2695    1.0000 </r>
       <r>   -0.2532    1.0000 </r>
       <r>   -0.1912    1.0000 </r>
       <r>   -0.1450    1.0000 </r>
       <r>   -0.0455    1.0000 </r>
       <r>    0.0132    1.0000 </r>
       <r>    1.2907    1.0000 </r>
       <r>    1.3110    1.0000 </r>
       <r>    1.3893    1.0000 </r>
       <r>    1.4082    1.0000 </r>
       <r>    1.4340    1.0000 </r>
       <r>    1.4554    1.0000 </r>
       <r>    1.4921    1.0000 </r>
       <r>    1.5652    1.0000 </r>
       <r>    1.6876    1.0000 </r>
       <r>    1.9164    1.0000 </r>
       <r>    1.9862    1.0000 </r>
       <r>    2.1448    1.0000 </r>
       <r>    2.3327    1.0000 </r>
       <r>    2.5651    1.0000 </r>
       <r>    2.6175    1.0000 </r>
       <r>    2.8290    1.0000 </r>
       <r>    2.9716    1.0000 </r>
       <r>    3.2487    1.0000 </r>
       <r>    3.6841    1.0000 </r>
       <r>    3.9432    1.0003 </r>
       <r>    6.1786   -0.0000 </r>
       <r>    6.6385   -0.0000 </r>
       <r>    7.7666    0.0000 </r>
       <r>    7.9737    0.0000 </r>
       <r>    8.2145    0.0000 </r>
       <r>    8.5629    0.0000 </r>
       <r>    9.3791    0.0000 </r>
       <r>    9.5778    0.0000 </r>
       <r>    9.9069    0.0000 </r>
       <r>   10.2495    0.0000 </r>
       <r>   10.5435    0.0000 </r>
       <r>   10.7870    0.0000 </r>
       <r>   10.8418    0.0000 </r>
       <r>   11.0685    0.0000 </r>
       <r>   11.5627    0.0000 </r>
       <r>   12.0201    0.0000 </r>
       <r>   12.5286    0.0000 </r>
       <r>   12.7508    0.0000 </r>
       <r>   12.9546    0.0000 </r>
       <r>   13.3095    0.0000 </r>
       <r>   13.4132    0.0000 </r>
       <r>   13.7426    0.0000 </r>
       <r>   13.8484    0.0000 </r>
       <r>   14.7255    0.0000 </r>
      </set>
      <set comment="kpoint 15">
       <r>  -68.6459    1.0000 </r>
       <r>  -68.6451    1.0000 </r>
       <r>  -68.6336    1.0000 </r>
       <r>  -68.6327    1.0000 </r>
       <r>  -68.6141    1.0000 </r>
       <r>  -68.6139    1.0000 </r>
       <r>  -68.5972    1.0000 </r>
       <r>  -68.5965    1.0000 </r>
       <r>  -68.5778    1.0000 </r>
       <r>  -68.5768    1.0000 </r>
       <r>  -68.5609    1.0000 </r>
       <r>  -68.5599    1.0000 </r>
       <r>  -12.4600    1.0000 </r>
       <r>  -11.4678    1.0000 </r>
       <r>  -10.8644    1.0000 </r>
       <r>  -10.6889    1.0000 </r>
       <r>  -10.3720    1.0000 </r>
       <r>  -10.2457    1.0000 </r>
       <r>   -5.7669    1.0000 </r>
       <r>   -4.8045    1.0000 </r>
       <r>   -2.4465    1.0000 </r>
       <r>   -2.2335    1.0000 </r>
       <r>   -1.8514    1.0000 </r>
       <r>   -1.7139    1.0000 </r>
       <r>   -1.4320    1.0000 </r>
       <r>   -1.1874    1.0000 </r>
       <r>   -0.8873    1.0000 </r>
       <r>   -0.7464    1.0000 </r>
       <r>   -0.6062    1.0000 </r>
       <r>   -0.5279    1.0000 </r>
       <r>   -0.3085    1.0000 </r>
       <r>   -0.2455    1.0000 </r>
       <r>   -0.1717    1.0000 </r>
       <r>   -0.1218    1.0000 </r>
       <r>   -0.0537    1.0000 </r>
       <r>    0.0623    1.0000 </r>
       <r>    1.3022    1.0000 </r>
       <r>    1.3364    1.0000 </r>
       <r>    1.3691    1.0000 </r>
       <r>    1.4306    1.0000 </r>
       <r>    1.4462    1.0000 </r>
       <r>    1.4797    1.0000 </r>
       <r>    1.5209    1.0000 </r>
       <r>    1.5469    1.0000 </r>
       <r>    1.6434    1.0000 </r>
       <r>    1.8722    1.0000 </r>
       <r>    1.9799    1.0000 </r>
       <r>    2.0481    1.0000 </r>
       <r>    2.1942    1.0000 </r>
       <r>    2.4763    1.0000 </r>
       <r>    2.5932    1.0000 </r>
       <r>    2.8379    1.0000 </r>
       <r>    2.9636    1.0000 </r>
       <r>    3.1330    1.0000 </r>
       <r>    3.5676    1.0000 </r>
       <r>    3.7236    1.0000 </r>
       <r>    6.4402   -0.0000 </r>
       <r>    6.9570    0.0000 </r>
       <r>    8.1701    0.0000 </r>
       <r>    8.2463    0.0000 </r>
       <r>    8.8332    0.0000 </r>
       <r>    9.1274    0.0000 </r>
       <r>    9.4668    0.0000 </r>
       <r>    9.7958    0.0000 </r>
       <r>   10.0852    0.0000 </r>
       <r>   10.2994    0.0000 </r>
       <r>   10.7409    0.0000 </r>
       <r>   11.0783    0.0000 </r>
       <r>   11.2919    0.0000 </r>
       <r>   11.4247    0.0000 </r>
       <r>   11.6330    0.0000 </r>
       <r>   11.7246    0.0000 </r>
       <r>   12.0864    0.0000 </r>
       <r>   12.2652    0.0000 </r>
       <r>   12.5408    0.0000 </r>
       <r>   12.6593    0.0000 </r>
       <r>   12.9530    0.0000 </r>
       <r>   13.0567    0.0000 </r>
       <r>   13.6560    0.0000 </r>
       <r>   14.6927    0.0000 </r>
      </set>
      <set comment="kpoint 16">
       <r>  -68.6458    1.0000 </r>
       <r>  -68.6450    1.0000 </r>
       <r>  -68.6335    1.0000 </r>
       <r>  -68.6325    1.0000 </r>
       <r>  -68.6139    1.0000 </r>
       <r>  -68.6137    1.0000 </r>
       <r>  -68.5971    1.0000 </r>
       <r>  -68.5963    1.0000 </r>
       <r>  -68.5777    1.0000 </r>
       <r>  -68.5766    1.0000 </r>
       <r>  -68.5608    1.0000 </r>
       <r>  -68.5598    1.0000 </r>
       <r>  -12.3285    1.0000 </r>
       <r>  -11.4760    1.0000 </r>
       <r>  -10.8605    1.0000 </r>
       <r>  -10.8596    1.0000 </r>
       <r>  -10.4039    1.0000 </r>
       <r>  -10.2887    1.0000 </r>
       <r>   -5.7482    1.0000 </r>
       <r>   -4.6923    1.0000 </r>
       <r>   -2.2446    1.0000 </r>
       <r>   -2.1383    1.0000 </r>
       <r>   -1.9275    1.0000 </r>
       <r>   -1.8517    1.0000 </r>
       <r>   -1.4533    1.0000 </r>
       <r>   -1.3938    1.0000 </r>
       <r>   -1.0375    1.0000 </r>
       <r>   -0.5190    1.0000 </r>
       <r>   -0.4644    1.0000 </r>
       <r>   -0.3505    1.0000 </r>
       <r>   -0.2515    1.0000 </r>
       <r>   -0.2170    1.0000 </r>
       <r>   -0.1599    1.0000 </r>
       <r>   -0.1127    1.0000 </r>
       <r>   -0.0879    1.0000 </r>
       <r>    0.0811    1.0000 </r>
       <r>    1.2615    1.0000 </r>
       <r>    1.3468    1.0000 </r>
       <r>    1.3980    1.0000 </r>
       <r>    1.4350    1.0000 </r>
       <r>    1.4534    1.0000 </r>
       <r>    1.5104    1.0000 </r>
       <r>    1.5352    1.0000 </r>
       <r>    1.5441    1.0000 </r>
       <r>    1.7535    1.0000 </r>
       <r>    1.8189    1.0000 </r>
       <r>    2.0408    1.0000 </r>
       <r>    2.1348    1.0000 </r>
       <r>    2.2831    1.0000 </r>
       <r>    2.3108    1.0000 </r>
       <r>    2.5216    1.0000 </r>
       <r>    2.7683    1.0000 </r>
       <r>    2.8985    1.0000 </r>
       <r>    3.2630    1.0000 </r>
       <r>    3.4959    1.0000 </r>
       <r>    3.8003    1.0000 </r>
       <r>    6.1820   -0.0000 </r>
       <r>    6.8407   -0.0000 </r>
       <r>    7.8271    0.0000 </r>
       <r>    8.0453    0.0000 </r>
       <r>    8.1881    0.0000 </r>
       <r>    8.7266    0.0000 </r>
       <r>    9.1537    0.0000 </r>
       <r>    9.3061    0.0000 </r>
       <r>   10.2209    0.0000 </r>
       <r>   10.4417    0.0000 </r>
       <r>   10.5902    0.0000 </r>
       <r>   11.0067    0.0000 </r>
       <r>   11.2395    0.0000 </r>
       <r>   11.4885    0.0000 </r>
       <r>   11.8125    0.0000 </r>
       <r>   12.1737    0.0000 </r>
       <r>   12.2083    0.0000 </r>
       <r>   12.5732    0.0000 </r>
       <r>   12.6927    0.0000 </r>
       <r>   13.1099    0.0000 </r>
       <r>   13.4165    0.0000 </r>
       <r>   13.8814    0.0000 </r>
       <r>   14.0051    0.0000 </r>
       <r>   14.5235    0.0000 </r>
      </set>
      <set comment="kpoint 17">
       <r>  -68.6455    1.0000 </r>
       <r>  -68.6450    1.0000 </r>
       <r>  -68.6335    1.0000 </r>
       <r>  -68.6327    1.0000 </r>
       <r>  -68.6139    1.0000 </r>
       <r>  -68.6138    1.0000 </r>
       <r>  -68.5972    1.0000 </r>
       <r>  -68.5964    1.0000 </r>
       <r>  -68.5775    1.0000 </r>
       <r>  -68.5769    1.0000 </r>
       <r>  -68.5605    1.0000 </r>
       <r>  -68.5600    1.0000 </r>
       <r>  -12.3750    1.0000 </r>
       <r>  -11.4744    1.0000 </r>
       <r>  -10.9384    1.0000 </r>
       <r>  -10.6510    1.0000 </r>
       <r>  -10.4208    1.0000 </r>
       <r>  -10.3026    1.0000 </r>
       <r>   -5.8010    1.0000 </r>
       <r>   -4.8369    1.0000 </r>
       <r>   -2.5283    1.0000 </r>
       <r>   -2.2449    1.0000 </r>
       <r>   -1.8735    1.0000 </r>
       <r>   -1.6434    1.0000 </r>
       <r>   -1.5033    1.0000 </r>
       <r>   -1.3078    1.0000 </r>
       <r>   -0.8998    1.0000 </r>
       <r>   -0.5319    1.0000 </r>
       <r>   -0.3770    1.0000 </r>
       <r>   -0.3480    1.0000 </r>
       <r>   -0.2236    1.0000 </r>
       <r>   -0.1798    1.0000 </r>
       <r>   -0.1636    1.0000 </r>
       <r>   -0.0781    1.0000 </r>
       <r>   -0.0236    1.0000 </r>
       <r>    0.0797    1.0000 </r>
       <r>    1.1901    1.0000 </r>
       <r>    1.3638    1.0000 </r>
       <r>    1.3971    1.0000 </r>
       <r>    1.4424    1.0000 </r>
       <r>    1.4631    1.0000 </r>
       <r>    1.5063    1.0000 </r>
       <r>    1.5182    1.0000 </r>
       <r>    1.5859    1.0000 </r>
       <r>    1.7399    1.0000 </r>
       <r>    1.8182    1.0000 </r>
       <r>    2.0369    1.0000 </r>
       <r>    2.2343    1.0000 </r>
       <r>    2.2692    1.0000 </r>
       <r>    2.3636    1.0000 </r>
       <r>    2.4851    1.0000 </r>
       <r>    2.6714    1.0000 </r>
       <r>    3.0532    1.0000 </r>
       <r>    3.4114    1.0000 </r>
       <r>    3.7296    1.0000 </r>
       <r>    3.8650    1.0000 </r>
       <r>    5.9307   -0.0000 </r>
       <r>    6.6131   -0.0000 </r>
       <r>    7.3533    0.0000 </r>
       <r>    7.9430    0.0000 </r>
       <r>    8.0651    0.0000 </r>
       <r>    8.7237    0.0000 </r>
       <r>    8.9065    0.0000 </r>
       <r>    9.1386    0.0000 </r>
       <r>    9.8437    0.0000 </r>
       <r>   10.3280    0.0000 </r>
       <r>   10.5544    0.0000 </r>
       <r>   10.9256    0.0000 </r>
       <r>   11.2232    0.0000 </r>
       <r>   11.4170    0.0000 </r>
       <r>   11.7486    0.0000 </r>
       <r>   12.0032    0.0000 </r>
       <r>   12.4972    0.0000 </r>
       <r>   12.8302    0.0000 </r>
       <r>   13.2066    0.0000 </r>
       <r>   14.1834    0.0000 </r>
       <r>   14.7195    0.0000 </r>
       <r>   15.1455    0.0000 </r>
       <r>   15.9178    0.0000 </r>
       <r>   16.5624    0.0000 </r>
      </set>
      <set comment="kpoint 18">
       <r>  -68.6458    1.0000 </r>
       <r>  -68.6451    1.0000 </r>
       <r>  -68.6336    1.0000 </r>
       <r>  -68.6327    1.0000 </r>
       <r>  -68.6140    1.0000 </r>
       <r>  -68.6138    1.0000 </r>
       <r>  -68.5973    1.0000 </r>
       <r>  -68.5965    1.0000 </r>
       <r>  -68.5778    1.0000 </r>
       <r>  -68.5767    1.0000 </r>
       <r>  -68.5608    1.0000 </r>
       <r>  -68.5599    1.0000 </r>
       <r>  -12.5010    1.0000 </r>
       <r>  -11.4265    1.0000 </r>
       <r>  -10.9491    1.0000 </r>
       <r>  -10.5799    1.0000 </r>
       <r>  -10.3762    1.0000 </r>
       <r>  -10.2058    1.0000 </r>
       <r>   -5.8288    1.0000 </r>
       <r>   -4.9406    1.0000 </r>
       <r>   -2.5739    1.0000 </r>
       <r>   -2.3660    1.0000 </r>
       <r>   -1.9189    1.0000 </r>
       <r>   -1.5973    1.0000 </r>
       <r>   -1.4153    1.0000 </r>
       <r>   -1.1198    1.0000 </r>
       <r>   -0.8156    1.0000 </r>
       <r>   -0.6742    1.0000 </r>
       <r>   -0.5314    1.0000 </r>
       <r>   -0.4685    1.0000 </r>
       <r>   -0.2555    1.0000 </r>
       <r>   -0.1966    1.0000 </r>
       <r>   -0.1667    1.0000 </r>
       <r>   -0.1183    1.0000 </r>
       <r>   -0.0353    1.0000 </r>
       <r>    0.0583    1.0000 </r>
       <r>    1.2809    1.0000 </r>
       <r>    1.3237    1.0000 </r>
       <r>    1.3449    1.0000 </r>
       <r>    1.4346    1.0000 </r>
       <r>    1.4509    1.0000 </r>
       <r>    1.4679    1.0000 </r>
       <r>    1.4922    1.0000 </r>
       <r>    1.5580    1.0000 </r>
       <r>    1.7277    1.0000 </r>
       <r>    1.8420    1.0000 </r>
       <r>    1.9705    1.0000 </r>
       <r>    2.0985    1.0000 </r>
       <r>    2.3369    1.0000 </r>
       <r>    2.4483    1.0000 </r>
       <r>    2.5393    1.0000 </r>
       <r>    2.8496    1.0000 </r>
       <r>    3.0529    1.0000 </r>
       <r>    3.2646    1.0000 </r>
       <r>    3.6735    1.0000 </r>
       <r>    3.7826    1.0000 </r>
       <r>    6.2607   -0.0000 </r>
       <r>    6.7998   -0.0000 </r>
       <r>    7.8136    0.0000 </r>
       <r>    8.1360    0.0000 </r>
       <r>    8.3368    0.0000 </r>
       <r>    8.9300    0.0000 </r>
       <r>    9.3389    0.0000 </r>
[...]
       <r>   11.7064    0.0000 </r>
       <r>   11.8920    0.0000 </r>
       <r>   12.3014    0.0000 </r>
       <r>   12.6572    0.0000 </r>
       <r>   13.0114    0.0000 </r>
       <r>   13.2287    0.0000 </r>
       <r>   13.6658    0.0000 </r>
       <r>   14.0692    0.0000 </r>
       <r>   14.3922    0.0000 </r>
       <r>   16.5169    0.0000 </r>
      </set>
      <set comment="kpoint 42">
       <r>  -68.6458    1.0000 </r>
       <r>  -68.6450    1.0000 </r>
       <r>  -68.6330    1.0000 </r>
       <r>  -68.6328    1.0000 </r>
       <r>  -68.6139    1.0000 </r>
       <r>  -68.6138    1.0000 </r>
       <r>  -68.5970    1.0000 </r>
       <r>  -68.5963    1.0000 </r>
       <r>  -68.5774    1.0000 </r>
       <r>  -68.5769    1.0000 </r>
       <r>  -68.5608    1.0000 </r>
       <r>  -68.5600    1.0000 </r>
       <r>  -12.1802    1.0000 </r>
       <r>  -11.7073    1.0000 </r>
       <r>  -10.7166    1.0000 </r>
       <r>  -10.6950    1.0000 </r>
       <r>  -10.5838    1.0000 </r>
       <r>  -10.3913    1.0000 </r>
       <r>   -5.4461    1.0000 </r>
       <r>   -5.0725    1.0000 </r>
       <r>   -2.5076    1.0000 </r>
       <r>   -2.3804    1.0000 </r>
       <r>   -1.9654    1.0000 </r>
       <r>   -1.3673    1.0000 </r>
       <r>   -1.3321    1.0000 </r>
       <r>   -1.0535    1.0000 </r>
       <r>   -0.8350    1.0000 </r>
       <r>   -0.7653    1.0000 </r>
       <r>   -0.4224    1.0000 </r>
       <r>   -0.3391    1.0000 </r>
       <r>   -0.2712    1.0000 </r>
       <r>   -0.2085    1.0000 </r>
       <r>   -0.1430    1.0000 </r>
       <r>   -0.1374    1.0000 </r>
       <r>   -0.0124    1.0000 </r>
       <r>    0.0290    1.0000 </r>
       <r>    1.1733    1.0000 </r>
       <r>    1.3711    1.0000 </r>
       <r>    1.3975    1.0000 </r>
       <r>    1.4530    1.0000 </r>
       <r>    1.4539    1.0000 </r>
       <r>    1.4996    1.0000 </r>
       <r>    1.5169    1.0000 </r>
       <r>    1.5487    1.0000 </r>
       <r>    1.7447    1.0000 </r>
       <r>    1.8220    1.0000 </r>
       <r>    1.9727    1.0000 </r>
       <r>    2.2249    1.0000 </r>
       <r>    2.3975    1.0000 </r>
       <r>    2.6117    1.0000 </r>
       <r>    2.6547    1.0000 </r>
       <r>    2.9155    1.0000 </r>
       <r>    3.0695    1.0000 </r>
       <r>    3.1167    1.0000 </r>
       <r>    3.2881    1.0000 </r>
       <r>    3.5815    1.0000 </r>
       <r>    6.2908   -0.0000 </r>
       <r>    6.3795   -0.0000 </r>
       <r>    7.3573    0.0000 </r>
       <r>    7.5256    0.0000 </r>
       <r>    8.3081    0.0000 </r>
       <r>    8.3349    0.0000 </r>
       <r>    9.1046    0.0000 </r>
       <r>    9.3595    0.0000 </r>
       <r>    9.7167    0.0000 </r>
       <r>    9.9471    0.0000 </r>
       <r>   10.5241    0.0000 </r>
       <r>   10.9887    0.0000 </r>
       <r>   11.4252    0.0000 </r>
       <r>   11.5654    0.0000 </r>
       <r>   12.0187    0.0000 </r>
       <r>   12.2833    0.0000 </r>
       <r>   12.4286    0.0000 </r>
       <r>   12.4767    0.0000 </r>
       <r>   13.0338    0.0000 </r>
       <r>   13.1481    0.0000 </r>
       <r>   14.1423    0.0000 </r>
       <r>   14.4386    0.0000 </r>
       <r>   15.1658    0.0000 </r>
       <r>   15.8664    0.0000 </r>
      </set>
     </set>
    </set>
   </array>
  </eigenvalues>
  <separator name="orbital magnetization" >
   <v name="MAGDIPOLOUT">      0.00000000      0.00000000      0.00000000</v>
  </separator>
  <dos>
   <i name="efermi">      4.22043412 </i>
   <total>
    <array>
     <dimension dim="1">gridpoints</dimension>
     <dimension dim="2">spin</dimension>
     <field>energy</field>
     <field>total</field>
     <field>integrated</field>
     <set>
      <set comment="spin 1">
       <r>   -72.8301     0.0000     0.0000 </r>
       <r>   -72.5238     0.0000     0.0000 </r>
       <r>   -72.2174     0.0000     0.0000 </r>
       <r>   -71.9110     0.0000     0.0000 </r>
       <r>   -71.6046     0.0000     0.0000 </r>
       <r>   -71.2982     0.0000     0.0000 </r>
       <r>   -70.9918     0.0000     0.0000 </r>
       <r>   -70.6855     0.0000     0.0000 </r>
       <r>   -70.3791     0.0000     0.0000 </r>
       <r>   -70.0727     0.0000     0.0000 </r>
       <r>   -69.7663     0.0000     0.0000 </r>
       <r>   -69.4599    -0.0000    -0.0000 </r>
       <r>   -69.1536    -0.0000    -0.0000 </r>
       <r>   -68.8472    -0.2169    -0.0665 </r>
       <r>   -68.5408    70.2453    21.4554 </r>
       <r>   -68.2344     8.3059    24.0001 </r>
       <r>   -67.9280    -0.0004    24.0000 </r>
       <r>   -67.6217     0.0000    24.0000 </r>
       <r>   -67.3153     0.0000    24.0000 </r>
       <r>   -67.0089     0.0000    24.0000 </r>
       <r>   -66.7025     0.0000    24.0000 </r>
       <r>   -66.3961     0.0000    24.0000 </r>
       <r>   -66.0898     0.0000    24.0000 </r>
       <r>   -65.7834     0.0000    24.0000 </r>
       <r>   -65.4770     0.0000    24.0000 </r>
       <r>   -65.1706     0.0000    24.0000 </r>
       <r>   -64.8642     0.0000    24.0000 </r>
       <r>   -64.5578     0.0000    24.0000 </r>
       <r>   -64.2515     0.0000    24.0000 </r>
       <r>   -63.9451     0.0000    24.0000 </r>
       <r>   -63.6387     0.0000    24.0000 </r>
       <r>   -63.3323     0.0000    24.0000 </r>
       <r>   -63.0259     0.0000    24.0000 </r>
       <r>   -62.7196     0.0000    24.0000 </r>
       <r>   -62.4132     0.0000    24.0000 </r>
       <r>   -62.1068     0.0000    24.0000 </r>
       <r>   -61.8004     0.0000    24.0000 </r>
       <r>   -61.4940     0.0000    24.0000 </r>
       <r>   -61.1877     0.0000    24.0000 </r>
       <r>   -60.8813     0.0000    24.0000 </r>
       <r>   -60.5749     0.0000    24.0000 </r>
       <r>   -60.2685     0.0000    24.0000 </r>
       <r>   -59.9621     0.0000    24.0000 </r>
       <r>   -59.6557     0.0000    24.0000 </r>
       <r>   -59.3494     0.0000    24.0000 </r>
       <r>   -59.0430     0.0000    24.0000 </r>
       <r>   -58.7366     0.0000    24.0000 </r>
       <r>   -58.4302     0.0000    24.0000 </r>
       <r>   -58.1238     0.0000    24.0000 </r>
       <r>   -57.8175     0.0000    24.0000 </r>
       <r>   -57.5111     0.0000    24.0000 </r>
       <r>   -57.2047     0.0000    24.0000 </r>
       <r>   -56.8983     0.0000    24.0000 </r>
       <r>   -56.5919     0.0000    24.0000 </r>
       <r>   -56.2856     0.0000    24.0000 </r>
       <r>   -55.9792     0.0000    24.0000 </r>
       <r>   -55.6728     0.0000    24.0000 </r>
       <r>   -55.3664     0.0000    24.0000 </r>
       <r>   -55.0600     0.0000    24.0000 </r>
       <r>   -54.7537     0.0000    24.0000 </r>
       <r>   -54.4473     0.0000    24.0000 </r>
       <r>   -54.1409     0.0000    24.0000 </r>
       <r>   -53.8345     0.0000    24.0000 </r>
       <r>   -53.5281     0.0000    24.0000 </r>
       <r>   -53.2217     0.0000    24.0000 </r>
       <r>   -52.9154     0.0000    24.0000 </r>
       <r>   -52.6090     0.0000    24.0000 </r>
       <r>   -52.3026     0.0000    24.0000 </r>
       <r>   -51.9962     0.0000    24.0000 </r>
       <r>   -51.6898     0.0000    24.0000 </r>
       <r>   -51.3835     0.0000    24.0000 </r>
       <r>   -51.0771     0.0000    24.0000 </r>
       <r>   -50.7707     0.0000    24.0000 </r>
       <r>   -50.4643     0.0000    24.0000 </r>
       <r>   -50.1579     0.0000    24.0000 </r>
       <r>   -49.8516     0.0000    24.0000 </r>
       <r>   -49.5452     0.0000    24.0000 </r>
       <r>   -49.2388     0.0000    24.0000 </r>
       <r>   -48.9324     0.0000    24.0000 </r>
       <r>   -48.6260     0.0000    24.0000 </r>
       <r>   -48.3197     0.0000    24.0000 </r>
       <r>   -48.0133     0.0000    24.0000 </r>
       <r>   -47.7069     0.0000    24.0000 </r>
       <r>   -47.4005     0.0000    24.0000 </r>
       <r>   -47.0941     0.0000    24.0000 </r>
       <r>   -46.7877     0.0000    24.0000 </r>
       <r>   -46.4814     0.0000    24.0000 </r>
       <r>   -46.1750     0.0000    24.0000 </r>
       <r>   -45.8686     0.0000    24.0000 </r>
       <r>   -45.5622     0.0000    24.0000 </r>
       <r>   -45.2558     0.0000    24.0000 </r>
       <r>   -44.9495     0.0000    24.0000 </r>
       <r>   -44.6431     0.0000    24.0000 </r>
       <r>   -44.3367     0.0000    24.0000 </r>
       <r>   -44.0303     0.0000    24.0000 </r>
       <r>   -43.7239     0.0000    24.0000 </r>
       <r>   -43.4176     0.0000    24.0000 </r>
       <r>   -43.1112     0.0000    24.0000 </r>
       <r>   -42.8048     0.0000    24.0000 </r>
       <r>   -42.4984     0.0000    24.0000 </r>
       <r>   -42.1920     0.0000    24.0000 </r>
       <r>   -41.8856     0.0000    24.0000 </r>
       <r>   -41.5793     0.0000    24.0000 </r>
       <r>   -41.2729     0.0000    24.0000 </r>
       <r>   -40.9665     0.0000    24.0000 </r>
       <r>   -40.6601     0.0000    24.0000 </r>
       <r>   -40.3537     0.0000    24.0000 </r>
       <r>   -40.0474     0.0000    24.0000 </r>
       <r>   -39.7410     0.0000    24.0000 </r>
       <r>   -39.4346     0.0000    24.0000 </r>
       <r>   -39.1282     0.0000    24.0000 </r>
       <r>   -38.8218     0.0000    24.0000 </r>
       <r>   -38.5155     0.0000    24.0000 </r>
       <r>   -38.2091     0.0000    24.0000 </r>
       <r>   -37.9027     0.0000    24.0000 </r>
       <r>   -37.5963     0.0000    24.0000 </r>
       <r>   -37.2899     0.0000    24.0000 </r>
       <r>   -36.9836     0.0000    24.0000 </r>
       <r>   -36.6772     0.0000    24.0000 </r>
       <r>   -36.3708     0.0000    24.0000 </r>
       <r>   -36.0644     0.0000    24.0000 </r>
       <r>   -35.7580     0.0000    24.0000 </r>
       <r>   -35.4516     0.0000    24.0000 </r>
       <r>   -35.1453     0.0000    24.0000 </r>
       <r>   -34.8389     0.0000    24.0000 </r>
       <r>   -34.5325     0.0000    24.0000 </r>
       <r>   -34.2261     0.0000    24.0000 </r>
       <r>   -33.9197     0.0000    24.0000 </r>
       <r>   -33.6134     0.0000    24.0000 </r>
       <r>   -33.3070     0.0000    24.0000 </r>
       <r>   -33.0006     0.0000    24.0000 </r>
       <r>   -32.6942     0.0000    24.0000 </r>
       <r>   -32.3878     0.0000    24.0000 </r>
       <r>   -32.0815     0.0000    24.0000 </r>
       <r>   -31.7751     0.0000    24.0000 </r>
       <r>   -31.4687     0.0000    24.0000 </r>
       <r>   -31.1623     0.0000    24.0000 </r>
       <r>   -30.8559     0.0000    24.0000 </r>
       <r>   -30.5496     0.0000    24.0000 </r>
       <r>   -30.2432     0.0000    24.0000 </r>
       <r>   -29.9368     0.0000    24.0000 </r>
       <r>   -29.6304     0.0000    24.0000 </r>
       <r>   -29.3240     0.0000    24.0000 </r>
       <r>   -29.0176     0.0000    24.0000 </r>
       <r>   -28.7113     0.0000    24.0000 </r>
       <r>   -28.4049     0.0000    24.0000 </r>
       <r>   -28.0985     0.0000    24.0000 </r>
       <r>   -27.7921     0.0000    24.0000 </r>
       <r>   -27.4857     0.0000    24.0000 </r>
       <r>   -27.1794     0.0000    24.0000 </r>
       <r>   -26.8730     0.0000    24.0000 </r>
       <r>   -26.5666     0.0000    24.0000 </r>
       <r>   -26.2602     0.0000    24.0000 </r>
       <r>   -25.9538     0.0000    24.0000 </r>
       <r>   -25.6475     0.0000    24.0000 </r>
       <r>   -25.3411     0.0000    24.0000 </r>
       <r>   -25.0347     0.0000    24.0000 </r>
       <r>   -24.7283     0.0000    24.0000 </r>
       <r>   -24.4219     0.0000    24.0000 </r>
       <r>   -24.1155     0.0000    24.0000 </r>
       <r>   -23.8092     0.0000    24.0000 </r>
       <r>   -23.5028     0.0000    24.0000 </r>
       <r>   -23.1964     0.0000    24.0000 </r>
       <r>   -22.8900     0.0000    24.0000 </r>
       <r>   -22.5836     0.0000    24.0000 </r>
       <r>   -22.2773     0.0000    24.0000 </r>
       <r>   -21.9709     0.0000    24.0000 </r>
       <r>   -21.6645     0.0000    24.0000 </r>
       <r>   -21.3581     0.0000    24.0000 </r>
       <r>   -21.0517     0.0000    24.0000 </r>
       <r>   -20.7454     0.0000    24.0000 </r>
       <r>   -20.4390     0.0000    24.0000 </r>
       <r>   -20.1326     0.0000    24.0000 </r>
       <r>   -19.8262     0.0000    24.0000 </r>
       <r>   -19.5198     0.0000    24.0000 </r>
       <r>   -19.2135     0.0000    24.0000 </r>
       <r>   -18.9071     0.0000    24.0000 </r>
       <r>   -18.6007     0.0000    24.0000 </r>
       <r>   -18.2943     0.0000    24.0000 </r>
       <r>   -17.9879     0.0000    24.0000 </r>
       <r>   -17.6815     0.0000    24.0000 </r>
       <r>   -17.3752     0.0000    24.0000 </r>
       <r>   -17.0688     0.0000    24.0000 </r>
       <r>   -16.7624     0.0000    24.0000 </r>
       <r>   -16.4560     0.0000    24.0000 </r>
       <r>   -16.1496     0.0000    24.0000 </r>
       <r>   -15.8433     0.0000    24.0000 </r>
       <r>   -15.5369     0.0000    24.0000 </r>
       <r>   -15.2305     0.0000    24.0000 </r>
       <r>   -14.9241     0.0000    24.0000 </r>
       <r>   -14.6177     0.0000    24.0000 </r>
       <r>   -14.3114     0.0000    24.0000 </r>
       <r>   -14.0050     0.0000    24.0000 </r>
       <r>   -13.6986    -0.0000    24.0000 </r>
       <r>   -13.3922    -0.0000    24.0000 </r>
       <r>   -13.0858    -0.0000    24.0000 </r>
       <r>   -12.7795    -0.0038    23.9988 </r>
       <r>   -12.4731     1.5641    24.4780 </r>
       <r>   -12.1667     3.5670    25.5709 </r>
       <r>   -11.8603     1.9015    26.1535 </r>
       <r>   -11.5539     2.1425    26.8099 </r>
       <r>   -11.2475     3.1917    27.7878 </r>
       <r>   -10.9412     2.5738    28.5764 </r>
       <r>   -10.6348     9.2451    31.4089 </r>
       <r>   -10.3284     9.3808    34.2830 </r>
       <r>   -10.0220     5.6229    36.0058 </r>
       <r>    -9.7156    -0.0188    36.0000 </r>
       <r>    -9.4093    -0.0000    36.0000 </r>
       <r>    -9.1029     0.0000    36.0000 </r>
       <r>    -8.7965     0.0000    36.0000 </r>
       <r>    -8.4901     0.0000    36.0000 </r>
       <r>    -8.1837     0.0000    36.0000 </r>
       <r>    -7.8774     0.0000    36.0000 </r>
       <r>    -7.5710     0.0000    36.0000 </r>
       <r>    -7.2646     0.0000    36.0000 </r>
       <r>    -6.9582    -0.0000    36.0000 </r>
       <r>    -6.6518    -0.0000    36.0000 </r>
       <r>    -6.3454    -0.0000    36.0000 </r>
       <r>    -6.0391     0.0575    36.0176 </r>
       <r>    -5.7327     3.4960    37.0887 </r>
       <r>    -5.4263     2.0539    37.7180 </r>
       <r>    -5.1199     1.8729    38.2918 </r>
       <r>    -4.8135     3.3005    39.3030 </r>
       <r>    -4.5072     2.2103    39.9802 </r>
       <r>    -4.2008     0.0646    40.0000 </r>
       <r>    -3.8944    -0.0000    40.0000 </r>
       <r>    -3.5880    -0.0000    40.0000 </r>
       <r>    -3.2816    -0.0000    40.0000 </r>
       <r>    -2.9753    -0.0005    39.9999 </r>
       <r>    -2.6689     0.3896    40.1192 </r>
       <r>    -2.3625     6.1496    42.0033 </r>
       <r>    -2.0561     6.6961    44.0549 </r>
       <r>    -1.7497     7.3414    46.3042 </r>
       <r>    -1.4434     6.4098    48.2680 </r>
       <r>    -1.1370     8.7520    50.9494 </r>
       <r>    -0.8306     9.0619    53.7258 </r>
       <r>    -0.5242    11.3823    57.2131 </r>
       <r>    -0.2178    18.1546    62.7753 </r>
       <r>     0.0886    28.9316    71.6394 </r>
       <r>     0.3949     1.1775    72.0002 </r>
       <r>     0.7013    -0.0006    72.0000 </r>
       <r>     1.0077    -0.0201    71.9938 </r>
       <r>     1.3141     7.4278    74.2696 </r>
       <r>     1.6205    44.8119    87.9991 </r>
       <r>     1.9268    13.8166    92.2322 </r>
       <r>     2.2332    13.1806    96.2705 </r>
       <r>     2.5396    12.8482   100.2069 </r>
       <r>     2.8460    11.1575   103.6254 </r>
       <r>     3.1524     9.0721   106.4049 </r>
       <r>     3.4587     7.9116   108.8289 </r>
       <r>     3.7651     6.9474   110.9574 </r>
       <r>     4.0715     3.1592   111.9254 </r>
       <r>     4.3779     0.2442   112.0002 </r>
       <r>     4.6843    -0.0005   112.0000 </r>
       <r>     4.9907    -0.0000   112.0000 </r>
       <r>     5.2970    -0.0001   112.0000 </r>
       <r>     5.6034     0.0774   112.0237 </r>
       <r>     5.9098     0.1730   112.0767 </r>
       <r>     6.2162     2.6442   112.8868 </r>
       <r>     6.5226     4.3633   114.2236 </r>
       <r>     6.8289     3.4393   115.2774 </r>
       <r>     7.1353     2.4254   116.0205 </r>
       <r>     7.4417     1.4362   116.4605 </r>
       <r>     7.7481     3.1788   117.4344 </r>
       <r>     8.0545     5.5751   119.1425 </r>
       <r>     8.3608     5.5379   120.8393 </r>
       <r>     8.6672     4.5970   122.2477 </r>
       <r>     8.9736     4.4661   123.6160 </r>
       <r>     9.2800     5.6201   125.3379 </r>
       <r>     9.5864     5.6790   127.0778 </r>
       <r>     9.8927     4.7787   128.5419 </r>
       <r>    10.1991     4.4714   129.9119 </r>
       <r>    10.5055     6.4948   131.9018 </r>
       <r>    10.8119     8.2660   134.4343 </r>
       <r>    11.1183     8.2619   136.9656 </r>
       <r>    11.4247     7.9664   139.4064 </r>
       <r>    11.7310     7.9262   141.8348 </r>
       <r>    12.0374     6.5675   143.8470 </r>
       <r>    12.3438     5.8759   145.6472 </r>
       <r>    12.6502     6.6428   147.6825 </r>
       <r>    12.9566     5.7731   149.4512 </r>
       <r>    13.2629     6.2393   151.3629 </r>
       <r>    13.5693     5.3288   152.9955 </r>
       <r>    13.8757     4.0337   154.2314 </r>
       <r>    14.1821     3.1972   155.2109 </r>
       <r>    14.4885     4.5955   156.6189 </r>
       <r>    14.7948     3.4535   157.6770 </r>
       <r>    15.1012     1.4253   158.1137 </r>
       <r>    15.4076     1.5986   158.6035 </r>
       <r>    15.7140     1.2236   158.9784 </r>
       <r>    16.0204     1.6759   159.4918 </r>
       <r>    16.3267     0.3309   159.5932 </r>
       <r>    16.6331     0.6878   159.8039 </r>
       <r>    16.9395     0.5163   159.9621 </r>
       <r>    17.2459     0.1237   160.0000 </r>
       <r>    17.5523    -0.0000   160.0000 </r>
       <r>    17.8587     0.0000   160.0000 </r>
       <r>    18.1650     0.0000   160.0000 </r>
       <r>    18.4714     0.0000   160.0000 </r>
       <r>    18.7778     0.0000   160.0000 </r>
       <r>    19.0842     0.0000   160.0000 </r>
      </set>
     </set>
    </array>
   </total>
  </dos>
 </calculation>
 <structure name="finalpos" >
  <crystal>
   <varray name="basis" >
    <v>       3.22479600      -5.64383000       0.03157200 </v>
    <v>       3.22479600       5.64383000       0.03157200 </v>
    <v>      -2.10194600       0.00000000       6.07553700 </v>
   </varray>
   <i name="volume">    221.90106089 </i>
   <varray name="rec_basis" >
    <v>       0.15452516      -0.08859232       0.05346088 </v>
    <v>       0.15452516       0.08859232       0.05346088 </v>
    <v>      -0.00160600       0.00000000       0.16403888 </v>
   </varray>
  </crystal>
  <varray name="positions" >
   <v>       0.61690460       0.12117100       0.11953300 </v>
   <v>       0.12117100       0.61844300       0.61953300 </v>
   <v>       0.96295700       0.79032200       0.11881300 </v>
   <v>       0.79032200       0.96295700       0.61881300 </v>
   <v>       0.43973200       0.26728100       0.59904700 </v>
   <v>       0.26728100       0.43973200       0.09904700 </v>
   <v>       0.07949800       0.91167500       0.49736300 </v>
   <v>       0.57140300       0.41236400       0.98018400 </v>
   <v>       0.73711100       0.25006200       0.49504900 </v>
   <v>       0.41236400       0.57140300       0.48018400 </v>
   <v>       0.91167500       0.07949800       0.99736300 </v>
   <v>       0.25006200       0.73711100       0.99504900 </v>
  </varray>
 </structure>
</modeling>
