   12   12    1    1
  0.1849176E+02  0.6500240E-09  0.6500240E-09  0.6428867E-09  0.5000000E-15
  1.000000000000000E-004
  CAR 
 CGS                                     
  112   42   80
 
  0.0000000E+00  0.0000000E+00  0.0000000E+00  0.1250000E-01
   1      -68.648994
   2      -68.645042
   3      -68.633606
   4      -68.630340
   5      -68.617760
   6      -68.613705
   7      -68.599599
   8      -68.596583
   9      -68.578016
  10      -68.574339
  11      -68.561558
  12      -68.557955
  13      -12.718018
  14      -11.132215
  15      -10.914083
  16      -10.601617
  17      -10.256927
  18      -10.237586
  19       -5.981526
  20       -4.981678
  21       -2.759870
  22       -2.208804
  23       -2.073912
  24       -1.922553
  25       -1.576913
  26       -0.985424
  27       -0.949336
  28       -0.681854
  29       -0.399435
  30       -0.276793
  31       -0.262667
  32       -0.234332
  33       -0.189778
  34       -0.154479
  35       -0.043851
  36        0.031414
  37        1.349263
  38        1.361877
  39        1.413161
  40        1.457233
  41        1.472536
  42        1.473385
  43        1.519541
  44        1.532905
  45        1.573736
  46        1.711143
  47        1.891912
  48        1.925800
  49        2.060740
  50        2.650487
  51        2.728543
  52        3.090303
  53        3.217607
  54        4.004600
  55        4.035741
  56        4.171478
  57        5.538318
  58        6.359227
  59        7.635972
  60        7.988797
  61        8.619723
  62        8.786311
  63        9.587826
  64        9.737785
  65        9.810706
  66       10.414396
  67       10.579607
  68       10.699433
  69       10.711337
  70       11.281814
  71       11.712365
  72       12.388856
  73       12.450989
  74       12.727989
  75       13.321972
  76       13.383752
  77       13.836011
  78       13.883015
  79       14.142264
  80       14.180740
 
  0.2500000E+00  0.7372575E-17  0.1387779E-16  0.2500000E-01
   1      -68.648971
   2      -68.644996
   3      -68.633566
   4      -68.630315
   5      -68.617655
   6      -68.613595
   7      -68.599598
   8      -68.596612
   9      -68.577960
  10      -68.574272
  11      -68.561522
  12      -68.557921
  13      -12.592360
  14      -11.135549
  15      -10.978248
  16      -10.667022
  17      -10.372545
  18      -10.284083
  19       -5.929994
  20       -4.771350
  21       -2.644295
  22       -2.252091
  23       -2.087960
  24       -1.689565
  25       -1.349798
  26       -0.999189
  27       -0.765292
  28       -0.619063
  29       -0.553424
  30       -0.437995
  31       -0.362331
  32       -0.241778
  33       -0.191661
  34       -0.169631
  35       -0.050040
  36        0.038700
  37        1.278092
  38        1.335732
  39        1.354153
  40        1.391908
  41        1.425800
  42        1.471623
  43        1.497609
  44        1.530507
  45        1.725049
  46        1.858662
  47        2.058259
  48        2.094462
  49        2.229715
  50        2.413821
  51        2.555711
  52        2.824863
  53        2.948637
  54        3.240384
  55        3.660932
  56        4.039866
  57        6.170879
  58        6.907153
  59        8.134445
  60        8.274313
  61        8.599271
  62        9.004205
  63        9.250507
  64        9.532864
  65        9.866675
  66       10.374743
  67       10.635171
  68       10.815443
  69       10.936269
  70       11.188733
  71       11.656597
  72       11.769730
  73       12.116154
  74       12.442323
  75       12.617317
  76       13.006085
  77       13.506735
  78       13.871509
  79       14.218380
  80       14.706864
 
  0.5000000E+00  0.1474515E-16  0.2775558E-16  0.1250000E-01
   1      -68.648800
   2      -68.644883
   3      -68.633500
   4      -68.630224
   5      -68.617641
   6      -68.613540
   7      -68.599531
   8      -68.596529
   9      -68.577951
  10      -68.574214
  11      -68.561352
  12      -68.557806
  13      -12.431645
  14      -11.261533
  15      -10.950978
  16      -10.750352
  17      -10.433043
  18      -10.368290
  19       -5.867737
  20       -4.546358
  21       -2.491488
  22       -2.247134
  23       -1.945327
  24       -1.462814
  25       -1.231270
  26       -1.099901
  27       -0.902689
  28       -0.863965
  29       -0.599120
  30       -0.533576
  31       -0.277017
  32       -0.203706
  33       -0.201744
  34       -0.144567
  35       -0.032977
  36        0.080179
  37        1.252978
  38        1.327035
  39        1.346996
  40        1.395784
  41        1.471639
  42        1.479022
  43        1.499356
  44        1.553117
  45        1.752506
  46        1.791929
  47        1.968226
  48        2.147764
  49        2.321181
  50        2.363716
  51        2.552109
  52        2.668708
  53        2.937301
  54        3.078325
  55        3.249496
  56        3.862116
  57        6.385580
  58        7.096920
  59        7.982106
  60        8.197692
  61        8.515900
  62        8.826876
  63        9.330551
  64        9.889115
  65       10.011589
  66       10.520791
  67       10.696149
  68       10.794768
  69       11.142994
  70       11.410657
  71       11.609348
  72       11.775474
  73       11.944142
  74       12.498075
  75       12.782139
  76       13.003103
  77       13.394117
  78       13.535718
  79       13.937893
  80       14.267396
 
  0.7372575E-17  0.2500000E+00  0.1387779E-16  0.2500000E-01
   1      -68.648948
   2      -68.645018
   3      -68.633582
   4      -68.630300
   5      -68.617651
   6      -68.613600
   7      -68.599625
   8      -68.596586
   9      -68.577945
  10      -68.574287
  11      -68.561523
  12      -68.557920
  13      -12.592896
  14      -11.132684
  15      -10.974941
  16      -10.673927
  17      -10.379701
  18      -10.275544
  19       -5.930219
  20       -4.772768
  21       -2.645168
  22       -2.252158
  23       -2.089125
  24       -1.686484
  25       -1.343110
  26       -0.996905
  27       -0.768745
  28       -0.625413
  29       -0.549860
  30       -0.437317
  31       -0.359531
  32       -0.242257
  33       -0.196764
  34       -0.169272
  35       -0.049810
  36        0.040239
  37        1.278990
  38        1.335923
  39        1.354125
  40        1.391430
  41        1.426420
  42        1.471283
  43        1.498260
  44        1.529749
  45        1.725101
  46        1.856323
  47        2.058816
  48        2.094207
  49        2.230961
  50        2.414286
  51        2.556360
  52        2.823531
  53        2.945553
  54        3.239793
  55        3.660787
  56        4.038925
  57        6.170336
  58        6.907282
  59        8.137416
  60        8.272697
  61        8.599737
  62        9.014421
  63        9.255265
  64        9.518760
  65        9.866173
  66       10.377061
  67       10.638381
  68       10.810290
  69       10.934873
  70       11.186409
  71       11.658450
  72       11.769705
  73       12.118915
  74       12.442543
  75       12.616857
  76       13.009541
  77       13.516262
  78       13.900825
  79       14.272455
  80       14.827754
 
  0.2500000E+00  0.2500000E+00  0.0000000E+00  0.2500000E-01
   1      -68.648971
   2      -68.645019
   3      -68.633472
   4      -68.630196
   5      -68.617788
   6      -68.613730
   7      -68.599501
   8      -68.596488
   9      -68.578077
  10      -68.574403
  11      -68.561541
  12      -68.557938
  13      -12.436371
  14      -11.198979
  15      -10.937971
  16      -10.871266
  17      -10.393193
  18      -10.358928
  19       -5.873199
  20       -4.521271
  21       -2.416369
  22       -2.246915
  23       -1.790909
  24       -1.681918
  25       -1.358103
  26       -1.296327
  27       -1.075085
  28       -0.681790
  29       -0.528161
  30       -0.295149
  31       -0.281192
  32       -0.226060
  33       -0.190158
  34       -0.128325
  35       -0.093397
  36        0.080713
  37        1.292844
  38        1.310520
  39        1.414881
  40        1.424893
  41        1.462312
  42        1.482278
  43        1.495213
  44        1.570856
  45        1.671844
  46        1.880197
  47        1.941389
  48        2.135539
  49        2.280005
  50        2.319346
  51        2.557505
  52        2.647421
  53        2.900082
  54        2.943549
  55        3.698527
  56        3.832957
  57        6.171425
  58        6.989223
  59        8.006383
  60        8.323345
  61        8.442272
  62        8.577383
  63        9.143967
  64        9.248280
  65       10.361081
  66       10.499000
  67       10.917503
  68       11.186072
  69       11.330284
  70       11.556661
  71       11.813017
  72       11.962282
  73       12.317210
  74       12.504254
  75       12.710079
  76       12.916993
  77       13.340152
  78       13.443973
  79       14.254254
  80       14.363556
 
  0.5000000E+00  0.2500000E+00 -0.2775558E-16  0.2500000E-01
   1      -68.648732
   2      -68.644827
   3      -68.633545
   4      -68.630253
   5      -68.617564
   6      -68.613512
   7      -68.599552
   8      -68.596545
   9      -68.577877
  10      -68.574194
  11      -68.561379
  12      -68.557806
  13      -12.435333
  14      -11.364762
  15      -10.931754
  16      -10.728588
  17      -10.401323
  18      -10.273014
  19       -5.944548
  20       -4.640142
  21       -2.389376
  22       -2.226419
  23       -2.059551
  24       -1.640060
  25       -1.368674
  26       -1.281600
  27       -1.019442
  28       -0.515640
  29       -0.483583
  30       -0.326198
  31       -0.281611
  32       -0.214165
  33       -0.150992
  34       -0.133830
  35       -0.013620
  36        0.110522
  37        1.245804
  38        1.314273
  39        1.382221
  40        1.436776
  41        1.460564
  42        1.491493
  43        1.497215
  44        1.550699
  45        1.748581
  46        1.827547
  47        1.921440
  48        2.135005
  49        2.220777
  50        2.386126
  51        2.561775
  52        2.788981
  53        2.979690
  54        3.311877
  55        3.599063
  56        3.749091
  57        6.088495
  58        6.940149
  59        7.612578
  60        8.068249
  61        8.412613
  62        8.616500
  63        8.986760
  64        9.156431
  65       10.086172
  66       10.333864
  67       10.733113
  68       11.111184
  69       11.457658
  70       11.593884
  71       11.799475
  72       12.086204
  73       12.474759
  74       12.920898
  75       13.032584
  76       13.830363
  77       14.218906
  78       14.655816
  79       15.432519
  80       15.642976
 
 -0.2500000E+00  0.2500000E+00  0.0000000E+00  0.2500000E-01
   1      -68.648961
   2      -68.645008
   3      -68.633548
   4      -68.630279
   5      -68.617587
   6      -68.613530
   7      -68.599594
   8      -68.596585
   9      -68.577902
  10      -68.574227
  11      -68.561524
  12      -68.557922
  13      -12.594960
  14      -11.259428
  15      -10.984578
  16      -10.562361
  17      -10.380472
  18      -10.180347
  19       -6.006809
  20       -4.892383
  21       -2.645873
  22       -2.316684
  23       -1.974374
  24       -1.646935
  25       -1.491396
  26       -1.187707
  27       -0.788317
  28       -0.583996
  29       -0.444278
  30       -0.337010
  31       -0.292272
  32       -0.232611
  33       -0.172208
  34       -0.132075
  35       -0.009766
  36        0.067080
  37        1.258402
  38        1.320766
  39        1.363573
  40        1.423822
  41        1.431046
  42        1.475481
  43        1.503649
  44        1.541303
  45        1.723972
  46        1.812639
  47        1.995712
  48        2.072828
  49        2.417388
  50        2.461308
  51        2.526820
  52        2.874353
  53        3.141083
  54        3.229197
  55        3.783323
  56        4.066914
  57        5.980147
  58        6.692607
  59        7.536446
  60        8.222528
  61        8.621315
  62        8.906785
  63        9.314268
  64        9.433489
  65        9.807223
  66       10.272757
  67       10.542762
  68       10.827207
  69       10.970541
  70       11.378328
  71       11.468092
  72       11.733798
  73       12.099609
  74       12.664131
  75       12.944747
  76       13.100703
  77       13.351120
  78       13.519025
  79       14.476463
  80       14.755403
 
  0.1474515E-16  0.5000000E+00  0.2775558E-16  0.1250000E-01
   1      -68.648828
   2      -68.644846
   3      -68.633504
   4      -68.630219
   5      -68.617598
   6      -68.613589
   7      -68.599536
   8      -68.596524
   9      -68.577890
  10      -68.574274
  11      -68.561411
  12      -68.557753
  13      -12.433277
  14      -11.251709
  15      -10.949574
  16      -10.762875
  17      -10.446719
  18      -10.351430
  19       -5.868355
  20       -4.549965
  21       -2.493192
  22       -2.247088
  23       -1.940190
  24       -1.461675
  25       -1.223847
  26       -1.098847
  27       -0.895358
  28       -0.861874
  29       -0.602610
  30       -0.544488
  31       -0.273375
  32       -0.205416
  33       -0.203372
  34       -0.147065
  35       -0.029839
  36        0.080991
  37        1.254518
  38        1.327457
  39        1.345263
  40        1.396794
  41        1.470089
  42        1.479529
  43        1.500008
  44        1.552607
  45        1.751786
  46        1.792285
  47        1.969958
  48        2.145907
  49        2.321813
  50        2.361422
  51        2.547878
  52        2.666915
  53        2.934810
  54        3.074762
  55        3.251490
  56        3.861417
  57        6.384552
  58        7.098833
  59        7.982719
  60        8.207400
  61        8.531611
  62        8.829001
  63        9.317980
  64        9.888021
  65       10.009580
  66       10.518887
  67       10.688751
  68       10.792742
  69       11.140520
  70       11.407090
  71       11.609179
  72       11.772535
  73       11.945563
  74       12.496953
  75       12.827775
  76       13.031210
  77       13.552009
  78       13.689006
  79       14.550922
  80       15.249537
 
  0.2500000E+00  0.5000000E+00 -0.2775558E-16  0.2500000E-01
   1      -68.648761
   2      -68.644802
   3      -68.633505
   4      -68.630252
   5      -68.617536
   6      -68.613565
   7      -68.599548
   8      -68.596566
   9      -68.577840
  10      -68.574227
  11      -68.561414
  12      -68.557771
  13      -12.436191
  14      -11.361009
  15      -10.930860
  16      -10.733795
  17      -10.403701
  18      -10.269104
  19       -5.944857
  20       -4.641356
  21       -2.391446
  22       -2.228437
  23       -2.058897
  24       -1.637125
  25       -1.360464
  26       -1.282163
  27       -1.019058
  28       -0.512702
  29       -0.485051
  30       -0.329015
  31       -0.283262
  32       -0.212273
  33       -0.152765
  34       -0.138436
  35       -0.009503
  36        0.110726
  37        1.246077
  38        1.315268
  39        1.381891
  40        1.436526
  41        1.461166
  42        1.490951
  43        1.496983
  44        1.549699
  45        1.747782
  46        1.828831
  47        1.922255
  48        2.133764
  49        2.221129
  50        2.384081
  51        2.559621
  52        2.789837
  53        2.977344
  54        3.310512
  55        3.600512
  56        3.749473
  57        6.088158
  58        6.940059
  59        7.612475
  60        8.071403
  61        8.414370
  62        8.621984
  63        8.977606
  64        9.158155
  65       10.086571
  66       10.335438
  67       10.729766
  68       11.108196
  69       11.459094
  70       11.574802
  71       11.780746
  72       12.035736
  73       12.519336
  74       12.684162
  75       12.917677
  76       13.210546
  77       14.226275
  78       14.769168
  79       15.254102
  80       15.910441
 
  0.5000000E+00  0.5000000E+00  0.0000000E+00  0.1250000E-01
   1      -68.648589
   2      -68.644630
   3      -68.633341
   4      -68.630076
   5      -68.617431
   6      -68.613435
   7      -68.599348
   8      -68.596367
   9      -68.577782
  10      -68.574104
  11      -68.561190
  12      -68.557590
  13      -12.426450
  14      -11.510947
  15      -10.906053
  16      -10.609896
  17      -10.413673
  18      -10.198382
  19       -6.023058
  20       -4.807598
  21       -2.307555
  22       -2.268252
  23       -2.097761
  24       -1.703033
  25       -1.252401
  26       -1.105111
  27       -0.838475
  28       -0.787573
  29       -0.723952
  30       -0.240884
  31       -0.201196
  32       -0.182583
  33       -0.149024
  34       -0.040887
  35       -0.001938
  36        0.181000
  37        1.266402
  38        1.316926
  39        1.374389
  40        1.413373
  41        1.434322
  42        1.490990
  43        1.507678
  44        1.548709
  45        1.787395
  46        1.847114
  47        1.994358
  48        2.150070
  49        2.252530
  50        2.336476
  51        2.560626
  52        2.761245
  53        2.777777
  54        3.368860
  55        3.766903
  56        4.001998
  57        5.855143
  58        6.771539
  59        7.081478
  60        8.408809
  61        8.562363
  62        8.766705
  63        9.147334
  64        9.250610
  65        9.955070
  66       10.285769
  67       10.723378
  68       10.827602
  69       10.874833
  70       11.275015
  71       11.751998
  72       11.917569
  73       11.973792
  74       12.366923
  75       12.540067
  76       13.455357
  77       14.279307
  78       14.669204
  79       16.743270
  80       16.755113
 
 -0.2168404E-18 -0.2168404E-18  0.2000000E+00  0.2500000E-01
   1      -68.648997
   2      -68.645043
   3      -68.633576
   4      -68.630308
   5      -68.617682
   6      -68.613624
   7      -68.599619
   8      -68.596608
   9      -68.577987
  10      -68.574313
  11      -68.561560
  12      -68.557957
  13      -12.614902
  14      -11.424800
  15      -10.778316
  16      -10.606982
  17      -10.255824
  18      -10.239423
  19       -5.828395
  20       -5.045530
  21       -2.599483
  22       -2.370417
  23       -1.961143
  24       -1.779452
  25       -1.445007
  26       -1.124582
  27       -1.063836
  28       -0.771463
  29       -0.468812
  30       -0.292735
  31       -0.239268
  32       -0.235060
  33       -0.191336
  34       -0.148282
  35       -0.020007
  36        0.025038
  37        1.332605
  38        1.380923
  39        1.414864
  40        1.438684
  41        1.464135
  42        1.467863
  43        1.514462
  44        1.546312
  45        1.632202
  46        1.758167
  47        1.785736
  48        1.950039
  49        2.089580
  50        2.658997
  51        2.717549
  52        3.195052
  53        3.253322
  54        3.518430
  55        3.893250
  56        3.976167
  57        6.046039
  58        6.417149
  59        7.826939
  60        7.909362
  61        8.370587
  62        8.816214
  63        9.773951
  64        9.794485
  65       10.070071
  66       10.583628
  67       10.641561
  68       10.813928
  69       10.858823
  70       11.492510
  71       11.558347
  72       12.023732
  73       12.579339
  74       12.775681
  75       12.911520
  76       13.204056
  77       13.538374
  78       13.822140
  79       14.196701
  80       14.704712
 
  0.2500000E+00  0.1517883E-17  0.2000000E+00  0.2500000E-01
   1      -68.648935
   2      -68.644979
   3      -68.633561
   4      -68.630294
   5      -68.617718
   6      -68.613673
   7      -68.599583
   8      -68.596556
   9      -68.577992
  10      -68.574329
  11      -68.561502
  12      -68.557888
  13      -12.455151
  14      -11.466245
  15      -10.868605
  16      -10.683535
  17      -10.375675
  18      -10.251767
  19       -5.763394
  20       -4.803336
  21       -2.443179
  22       -2.232437
  23       -1.851339
  24       -1.712234
  25       -1.440762
  26       -1.187590
  27       -0.884343
  28       -0.743883
  29       -0.607433
  30       -0.524405
  31       -0.310642
  32       -0.244285
  33       -0.171535
  34       -0.125034
  35       -0.055196
  36        0.061530
  37        1.301403
  38        1.335364
  39        1.368849
  40        1.431127
  41        1.444989
  42        1.478833
  43        1.520905
  44        1.546812
  45        1.644566
  46        1.871657
  47        1.979663
  48        2.048256
  49        2.193928
  50        2.474703
  51        2.594209
  52        2.835812
  53        2.962872
  54        3.133549
  55        3.567258
  56        3.723980
  57        6.441594
  58        6.957397
  59        8.169007
  60        8.251140
  61        8.833466
  62        9.130618
  63        9.459923
  64        9.798278
  65       10.084497
  66       10.303076
  67       10.741303
  68       11.075890
  69       11.292827
  70       11.426660
  71       11.633938
  72       11.723942
  73       12.086418
  74       12.268780
  75       12.539350
  76       12.655435
  77       12.956997
  78       13.060171
  79       13.638916
  80       14.692991
 
  0.5000000E+00  0.9107298E-17  0.2000000E+00  0.2500000E-01
   1      -68.648740
   2      -68.644850
   3      -68.633472
   4      -68.630197
   5      -68.617591
   6      -68.613521
   7      -68.599502
   8      -68.596474
   9      -68.577894
  10      -68.574224
  11      -68.561416
  12      -68.557831
  13      -12.351464
  14      -11.416844
  15      -10.953071
  16      -10.677738
  17      -10.482774
  18      -10.341407
  19       -5.748811
  20       -4.720271
  21       -2.522936
  22       -2.181609
  23       -1.953319
  24       -1.537845
  25       -1.301260
  26       -1.103835
  27       -0.871165
  28       -0.753648
  29       -0.547684
  30       -0.440983
  31       -0.290257
  32       -0.182348
  33       -0.142585
  34       -0.106590
  35       -0.047909
  36        0.021412
  37        1.271404
  38        1.297360
  39        1.350981
  40        1.429225
  41        1.452034
  42        1.480011
  43        1.500548
  44        1.588105
  45        1.719283
  46        1.932274
  47        2.076942
  48        2.146206
  49        2.268329
  50        2.403831
  51        2.567160
  52        2.598081
  53        2.899787
  54        3.006088
  55        3.357689
  56        3.899109
  57        6.365975
  58        6.897079
  59        7.575754
  60        8.077195
  61        8.545172
  62        8.807943
  63        9.279149
  64        9.628597
  65        9.929125
  66       10.280167
  67       10.662973
  68       10.929684
  69       10.969663
  70       11.279457
  71       11.522445
  72       11.786218
  73       12.251784
  74       12.548262
  75       13.098018
  76       13.528986
  77       14.302686
  78       14.611238
  79       15.120663
  80       16.264410
 
 -0.2500000E+00 -0.4098284E-16  0.2000000E+00  0.2500000E-01
   1      -68.648986
   2      -68.645041
   3      -68.633551
   4      -68.630284
   5      -68.617694
   6      -68.613625
   7      -68.599606
   8      -68.596593
   9      -68.578010
  10      -68.574325
  11      -68.561547
  12      -68.557955
  13      -12.537848
  14      -11.339005
  15      -10.872147
  16      -10.601707
  17      -10.405208
  18      -10.287307
  19       -5.822245
  20       -4.972550
  21       -2.664972
  22       -2.451058
  23       -2.038875
  24       -1.580329
  25       -1.173327
  26       -0.981845
  27       -0.792464
  28       -0.656832
  29       -0.517562
  30       -0.388262
  31       -0.268565
  32       -0.252803
  33       -0.190610
  34       -0.142561
  35       -0.050381
  36        0.011830
  37        1.288910
  38        1.310775
  39        1.388599
  40        1.408929
  41        1.432844
  42        1.456138
  43        1.491603
  44        1.563940
  45        1.686411
  46        1.915254
  47        1.986712
  48        2.146635
  49        2.332309
  50        2.566370
  51        2.617106
  52        2.828436
  53        2.973126
  54        3.250493
  55        3.679535
  56        3.942915
  57        6.179977
  58        6.640470
  59        7.763561
  60        7.977405
  61        8.214368
  62        8.564607
  63        9.389868
  64        9.573769
  65        9.898433
  66       10.254615
  67       10.544387
  68       10.788491
  69       10.842893
  70       11.068552
  71       11.565513
  72       12.017898
  73       12.529178
  74       12.754986
  75       12.947907
  76       13.308388
  77       13.411229
  78       13.741209
  79       13.848348
  80       14.728030
 
  0.1517883E-17  0.2500000E+00  0.2000000E+00  0.2500000E-01
   1      -68.648933
   2      -68.644982
   3      -68.633560
   4      -68.630294
   5      -68.617726
   6      -68.613666
   7      -68.599576
   8      -68.596563
   9      -68.578003
  10      -68.574319
  11      -68.561490
  12      -68.557900
  13      -12.455563
  14      -11.466834
  15      -10.860324
  16      -10.689926
  17      -10.379027
  18      -10.249123
  19       -5.764825
  20       -4.803942
  21       -2.444738
  22       -2.233320
  23       -1.848607
  24       -1.708270
  25       -1.432850
  26       -1.184693
  27       -0.887492
  28       -0.752619
  29       -0.605626
  30       -0.523251
  31       -0.313182
  32       -0.246551
  33       -0.174770
  34       -0.121815
  35       -0.054468
  36        0.063095
  37        1.301271
  38        1.335481
  39        1.368459
  40        1.432183
  41        1.445092
  42        1.478509
  43        1.520643
  44        1.547394
  45        1.643513
  46        1.869194
  47        1.980305
  48        2.048243
  49        2.194711
  50        2.475225
  51        2.595226
  52        2.835929
  53        2.958940
  54        3.131758
  55        3.568625
  56        3.724021
  57        6.441695
  58        6.957468
  59        8.174716
  60        8.242974
  61        8.839253
  62        9.128953
  63        9.461899
  64        9.796030
  65       10.086706
  66       10.305369
  67       10.740042
  68       11.079948
  69       11.289600
  70       11.423280
  71       11.632542
  72       11.726062
  73       12.086690
  74       12.267114
  75       12.540276
  76       12.657875
  77       12.956080
  78       13.059188
  79       13.654282
  80       14.695395
 
  0.2500000E+00  0.2500000E+00  0.2000000E+00  0.2500000E-01
   1      -68.648843
   2      -68.644890
   3      -68.633415
   4      -68.630139
   5      -68.617564
   6      -68.613506
   7      -68.599453
   8      -68.596443
   9      -68.577870
  10      -68.574190
  11      -68.561410
  12      -68.557802
  13      -12.322486
  14      -11.476361
  15      -10.866749
  16      -10.853615
  17      -10.402680
  18      -10.297471
  19       -5.745409
  20       -4.691186
  21       -2.242021
  22       -2.136092
  23       -1.923416
  24       -1.853812
  25       -1.457542
  26       -1.394720
  27       -1.037346
  28       -0.515662
  29       -0.462473
  30       -0.346985
  31       -0.252226
  32       -0.219106
  33       -0.162024
  34       -0.113760
  35       -0.091480
  36        0.081458
  37        1.261036
  38        1.346403
  39        1.398322
  40        1.434539
  41        1.452535
  42        1.509859
  43        1.534740
  44        1.541840
  45        1.754068
  46        1.817263
  47        2.041350
  48        2.135843
  49        2.283666
  50        2.312265
  51        2.519179
  52        2.770205
  53        2.894887
  54        3.257803
  55        3.497235
  56        3.799963
  57        6.184143
  58        6.840930
  59        7.825633
  60        8.046760
  61        8.192203
  62        8.734124
  63        9.149235
  64        9.308428
  65       10.220528
  66       10.442618
  67       10.591198
  68       11.005426
  69       11.236091
  70       11.492373
  71       11.814479
  72       12.170437
  73       12.207149
  74       12.570748
  75       12.691267
  76       13.116440
  77       13.417796
  78       13.882826
  79       14.004579
  80       14.526885
 
  0.5000000E+00  0.2500000E+00  0.2000000E+00  0.2500000E-01
   1      -68.648717
   2      -68.644761
   3      -68.633519
   4      -68.630241
   5      -68.617532
   6      -68.613594
   7      -68.599533
   8      -68.596505
   9      -68.577858
  10      -68.574251
  11      -68.561360
  12      -68.557784
  13      -12.367924
  14      -11.479724
  15      -10.934611
  16      -10.645236
  17      -10.431125
  18      -10.305890
  19       -5.798151
  20       -4.833667
  21       -2.526394
  22       -2.242494
  23       -1.873247
  24       -1.644592
  25       -1.506705
  26       -1.311417
  27       -0.900635
  28       -0.530252
  29       -0.378058
  30       -0.349916
  31       -0.221871
  32       -0.178326
  33       -0.160525
  34       -0.075244
  35       -0.029111
  36        0.077219
  37        1.189416
  38        1.362848
  39        1.396741
  40        1.442111
  41        1.463495
  42        1.506498
  43        1.518049
  44        1.585251
  45        1.738981
  46        1.817703
  47        2.035763
  48        2.236607
  49        2.271161
  50        2.363564
  51        2.487061
  52        2.669201
  53        3.054766
  54        3.412728
  55        3.725906
  56        3.859635
  57        5.933715
  58        6.616121
  59        7.353529
  60        7.938754
  61        8.068101
  62        8.729618
  63        8.909232
  64        9.138230
  65        9.845492
  66       10.327879
  67       10.553138
  68       10.925362
  69       11.224690
  70       11.417245
  71       11.745625
  72       12.002849
  73       12.494498
  74       12.828791
  75       13.206387
  76       14.181895
  77       14.713132
  78       15.170731
  79       15.921041
  80       16.564623
 
 -0.2500000E+00  0.2500000E+00  0.2000000E+00  0.2500000E-01
   1      -68.648935
   2      -68.644945
   3      -68.633602
   4      -68.630342
   5      -68.617637