       N       E                     dE             d eps       ncg     rms          ort
SDA:   1     0.755240114426E+02    0.75524E+02   -0.21319E+03  3360   0.533E+03 0.000E+00
DMP:   2    -0.838213286937E+01   -0.83906E+02   -0.14689E+03  3360   0.395E+03-0.737E+02
DMP:   3    -0.151912872093E+02   -0.68092E+01   -0.20368E+03  3360   0.693E+03-0.482E+03
DMP:   4    -0.226699952788E+02   -0.74787E+01   -0.10735E+03  3360   0.390E+03-0.319E+03
DMP:   5    -0.608160325403E+02   -0.38146E+02   -0.15062E+02  3360   0.706E+02-0.863E+02
DMP:   6    -0.659409417939E+02   -0.51249E+01   -0.81479E+01  3360   0.246E+02-0.110E+02
DMP:   7    -0.674771495414E+02   -0.15362E+01   -0.41272E+01  3360   0.147E+02-0.114E+02
DMP:   8    -0.690845647738E+02   -0.16074E+01   -0.77099E+00  3360   0.283E+01-0.238E+01
DMP:   9    -0.693949676657E+02   -0.31040E+00   -0.38510E+00  3360   0.110E+01-0.365E+00
DMP:  10    -0.694984084558E+02   -0.10344E+00   -0.15211E+00  3360   0.547E+00-0.435E+00
DMP:  11    -0.695679140650E+02   -0.69506E-01   -0.36841E-01  3360   0.105E+00-0.340E-01
DMP:  12    -0.695802671586E+02   -0.12353E-01   -0.22794E-01  3360   0.688E-01-0.308E-01
DMP:  13    -0.695899041524E+02   -0.96370E-02   -0.51162E-02  3360   0.161E-01-0.874E-02
DMP:  14    -0.695923587387E+02   -0.24546E-02   -0.37710E-02  3360   0.962E-02-0.509E-03
DMP:  15    -0.695938622614E+02   -0.15035E-02   -0.10362E-02  3360   0.332E-02-0.192E-02
DMP:  16    -0.695944324049E+02   -0.57014E-03   -0.40868E-03  3360   0.915E-03 0.279E-03
DMP:  17    -0.695946053869E+02   -0.17298E-03   -0.20845E-03  3360   0.578E-03-0.150E-03
DMP:  18    -0.695947222986E+02   -0.11691E-03   -0.56168E-04  3360   0.119E-03 0.553E-04
DMP:  19    -0.695947512039E+02   -0.28905E-04   -0.35228E-04  3360   0.881E-04-0.974E-07
DMP:  20    -0.695947709466E+02   -0.19743E-04   -0.11575E-04  3360   0.241E-04 0.126E-04
DMP:  21    -0.695947783349E+02   -0.73882E-05   -0.70174E-05  3360   0.141E-04 0.914E-05
   1 F= -.69594778E+02 E0= -.69594960E+02  d E =0.544733E-03
