<?xml version="1.0" encoding="ISO-8859-1"?>
<modeling>
 <generator>
  <i name="program" type="string">vasp </i>
  <i name="version" type="string">5.3.3  </i>
  <i name="subversion" type="string">18Dez12 (build Nov 13 2015 09:58:40) complex                          parallel </i>
  <i name="platform" type="string">LinuxIFC </i>
  <i name="date" type="string">2017 10 18 </i>
  <i name="time" type="string">13:03:59 </i>
 </generator>
 <incar>
  <i type="string" name="SYSTEM"> CGS</i>
  <i type="string" name="PREC">normal</i>
  <i type="string" name="ALGO"> D</i>
  <i type="logical" name="LDIAG"> T  </i>
  <i name="EDIFF">      0.00001000</i>
  <i name="ENCUT">    400.00000000</i>
  <i name="TIME">      0.40000000</i>
  <i type="int" name="ISMEAR">     1</i>
  <i name="SIGMA">      0.10000000</i>
  <i type="logical" name="LHFCALC"> T  </i>
  <i type="string" name="GGA"> PE</i>
  <i name="HFSCREEN">      0.20000000</i>
  <i name="AEXX">      0.25000000</i>
  <i type="string" name="PRECFOCK">fast</i>
 </incar>
 <kpoints>
  <generation param="Gamma">
   <v type="int" name="divisions">       4        4        5 </v>
   <v name="usershift">      0.00000000       0.00000000       0.00000000 </v>
   <v name="genvec1">      0.25000000       0.00000000       0.00000000 </v>
   <v name="genvec2">      0.00000000       0.25000000       0.00000000 </v>
   <v name="genvec3">      0.00000000       0.00000000       0.20000000 </v>
   <v name="shift">      0.00000000       0.00000000       0.00000000 </v>
  </generation>
  <varray name="kpointlist" >
   <v>       0.00000000       0.00000000       0.00000000 </v>
   <v>       0.25000000       0.00000000       0.00000000 </v>
   <v>       0.50000000       0.00000000       0.00000000 </v>
   <v>       0.00000000       0.25000000       0.00000000 </v>
   <v>       0.25000000       0.25000000       0.00000000 </v>
   <v>       0.50000000       0.25000000      -0.00000000 </v>
   <v>      -0.25000000       0.25000000       0.00000000 </v>
   <v>       0.00000000       0.50000000       0.00000000 </v>
   <v>       0.25000000       0.50000000      -0.00000000 </v>
   <v>       0.50000000       0.50000000       0.00000000 </v>
   <v>      -0.00000000      -0.00000000       0.20000000 </v>
   <v>       0.25000000       0.00000000       0.20000000 </v>
   <v>       0.50000000       0.00000000       0.20000000 </v>
   <v>      -0.25000000      -0.00000000       0.20000000 </v>
   <v>       0.00000000       0.25000000       0.20000000 </v>
   <v>       0.25000000       0.25000000       0.20000000 </v>
   <v>       0.50000000       0.25000000       0.20000000 </v>
   <v>      -0.25000000       0.25000000       0.20000000 </v>
   <v>       0.00000000       0.50000000       0.20000000 </v>
   <v>       0.25000000       0.50000000       0.20000000 </v>
   <v>       0.50000000       0.50000000       0.20000000 </v>
   <v>      -0.25000000       0.50000000       0.20000000 </v>
   <v>      -0.00000000      -0.25000000       0.20000000 </v>
   <v>       0.25000000      -0.25000000       0.20000000 </v>
   <v>       0.50000000      -0.25000000       0.20000000 </v>
   <v>      -0.25000000      -0.25000000       0.20000000 </v>
   <v>      -0.00000000      -0.00000000       0.40000000 </v>
   <v>       0.25000000       0.00000000       0.40000000 </v>
   <v>       0.50000000       0.00000000       0.40000000 </v>
   <v>      -0.25000000       0.00000000       0.40000000 </v>
   <v>       0.00000000       0.25000000       0.40000000 </v>
   <v>       0.25000000       0.25000000       0.40000000 </v>
   <v>       0.50000000       0.25000000       0.40000000 </v>
   <v>      -0.25000000       0.25000000       0.40000000 </v>
   <v>       0.00000000       0.50000000       0.40000000 </v>
   <v>       0.25000000       0.50000000       0.40000000 </v>
   <v>       0.50000000       0.50000000       0.40000000 </v>
   <v>      -0.25000000       0.50000000       0.40000000 </v>
   <v>       0.00000000      -0.25000000       0.40000000 </v>
   <v>       0.25000000      -0.25000000       0.40000000 </v>
   <v>       0.50000000      -0.25000000       0.40000000 </v>
   <v>      -0.25000000      -0.25000000       0.40000000 </v>
  </varray>
  <varray name="weights" >
   <v>       0.01250000 </v>
   <v>       0.02500000 </v>
   <v>       0.01250000 </v>
   <v>       0.02500000 </v>
   <v>       0.02500000 </v>
   <v>       0.02500000 </v>
   <v>       0.02500000 </v>
   <v>       0.01250000 </v>
   <v>       0.02500000 </v>
   <v>       0.01250000 </v>
   <v>       0.02500000 </v>
   <v>       0.02500000 </v>
   <v>       0.02500000 </v>
   <v>       0.02500000 </v>
   <v>       0.02500000 </v>
   <v>       0.02500000 </v>
   <v>       0.02500000 </v>
   <v>       0.02500000 </v>
   <v>       0.02500000 </v>
   <v>       0.02500000 </v>
   <v>       0.02500000 </v>
   <v>       0.02500000 </v>
   <v>       0.02500000 </v>
   <v>       0.02500000 </v>
   <v>       0.02500000 </v>
   <v>       0.02500000 </v>
   <v>       0.02500000 </v>
   <v>       0.02500000 </v>
   <v>       0.02500000 </v>
   <v>       0.02500000 </v>
   <v>       0.02500000 </v>
   <v>       0.02500000 </v>
   <v>       0.02500000 </v>
   <v>       0.02500000 </v>
   <v>       0.02500000 </v>
   <v>       0.02500000 </v>
   <v>       0.02500000 </v>
   <v>       0.02500000 </v>
   <v>       0.02500000 </v>
   <v>       0.02500000 </v>
   <v>       0.02500000 </v>
   <v>       0.02500000 </v>
  </varray>
 </kpoints>
 <parameters>
  <separator name="general" >
   <i type="string" name="SYSTEM">CGS</i>
   <i type="logical" name="LCOMPAT"> F  </i>
  </separator>
  <separator name="electronic" >
   <i type="string" name="PREC">normal</i>
   <i name="ENMAX">    400.00000000</i>
   <i name="ENAUG">    758.23300000</i>
   <i name="EDIFF">      0.00001000</i>
   <i type="int" name="IALGO">    53</i>
   <i type="int" name="IWAVPR">    10</i>
   <i type="int" name="NBANDS">    80</i>
   <i name="NELECT">    112.00000000</i>
   <i type="int" name="TURBO">     0</i>
   <i type="int" name="IRESTART">     0</i>
   <i type="int" name="NREBOOT">     0</i>
   <i type="int" name="NMIN">     0</i>
   <i name="EREF">      0.00000000</i>
   <separator name="electronic smearing" >
    <i type="int" name="ISMEAR">     1</i>
    <i name="SIGMA">      0.10000000</i>
    <i name="KSPACING">      0.50000000</i>
    <i type="logical" name="KGAMMA"> T  </i>
   </separator>
   <separator name="electronic projectors" >
    <i type="logical" name="LREAL"> F  </i>
    <v name="ROPT">      0.00000000      0.00000000      0.00000000</v>
    <i type="int" name="LMAXPAW">  -100</i>
    <i type="int" name="LMAXMIX">     2</i>
    <i type="logical" name="NLSPLINE"> F  </i>
   </separator>
   <separator name="electronic startup" >
    <i type="int" name="ISTART">     1</i>
    <i type="int" name="ICHARG">     0</i>
    <i type="int" name="INIWAV">     1</i>
   </separator>
   <separator name="electronic spin" >
    <i type="int" name="ISPIN">     1</i>
    <i type="logical" name="LNONCOLLINEAR"> F  </i>
    <v name="MAGMOM">      1.00000000      1.00000000      1.00000000      1.00000000      1.00000000      1.00000000      1.00000000      1.00000000      1.00000000      1.00000000      1.00000000      1.00000000</v>
    <i name="NUPDOWN">     -1.00000000</i>
    <i type="logical" name="LSORBIT"> F  </i>
    <v name="SAXIS">      0.00000000      0.00000000      1.00000000</v>
    <i type="logical" name="LSPIRAL"> F  </i>
    <v name="QSPIRAL">      0.00000000      0.00000000      0.00000000</v>
    <i type="logical" name="LZEROZ"> F  </i>
   </separator>
   <separator name="electronic exchange-correlation" >
    <i type="logical" name="LASPH"> F  </i>
    <i type="logical" name="LMETAGGA"> F  </i>
   </separator>
   <separator name="electronic convergence" >
    <i type="int" name="NELM">    60</i>
    <i type="int" name="NELMDL">     0</i>
    <i type="int" name="NELMIN">     2</i>
    <i name="ENINI">    400.00000000</i>
    <separator name="electronic convergence detail" >
     <i type="logical" name="LDIAG"> T  </i>
     <i type="logical" name="LSUBROT"> T  </i>
     <i name="WEIMIN">      0.00000000</i>
     <i name="EBREAK">      0.00000003</i>
     <i name="DEPER">      0.30000000</i>
     <i type="int" name="NRMM">     4</i>
     <i name="TIME">      0.40000000</i>
    </separator>
   </separator>
   <separator name="electronic mixer" >
    <i name="AMIX">      0.40000000</i>
    <i name="BMIX">      1.00000000</i>
    <i name="AMIN">      0.10000000</i>
    <i name="AMIX_MAG">      1.60000000</i>
    <i name="BMIX_MAG">      1.00000000</i>
    <separator name="electronic mixer details" >
     <i type="int" name="IMIX">     4</i>
     <i type="int" name="MAXMIX">   -45</i>
     <i name="WC">    100.00000000</i>
     <i type="int" name="INIMIX">     1</i>
     <i type="int" name="MIXPRE">     1</i>
     <i type="int" name="MREMOVE">     5</i>
    </separator>
   </separator>
   <separator name="electronic dipolcorrection" >
    <i type="logical" name="LDIPOL"> F  </i>
    <i type="logical" name="LMONO"> F  </i>
    <i type="int" name="IDIPOL">     0</i>
    <i name="EPSILON">      1.00000000</i>
    <v name="DIPOL">   -100.00000000   -100.00000000   -100.00000000</v>
    <i name="EFIELD">      0.00000000</i>
   </separator>
  </separator>
  <separator name="grids" >
   <i type="int" name="NGX">    32</i>
   <i type="int" name="NGY">    32</i>
   <i type="int" name="NGZ">    32</i>
   <i type="int" name="NGXF">    64</i>
   <i type="int" name="NGYF">    64</i>
   <i type="int" name="NGZF">    64</i>
   <i type="logical" name="ADDGRID"> F  </i>
  </separator>
  <separator name="ionic" >
   <i type="int" name="NSW">     0</i>
   <i type="int" name="IBRION">    -1</i>
   <i type="int" name="ISIF">     0</i>
   <i name="PSTRESS">      0.00000000</i>
   <i name="EDIFFG">      0.00010000</i>
   <i type="int" name="NFREE">     0</i>
   <i name="POTIM">      0.50000000</i>
   <i name="SMASS">     -3.00000000</i>
   <i name="SCALEE">      1.00000000</i>
  </separator>
  <separator name="ionic md" >
   <i name="TEBEG">      0.00010000</i>
   <i name="TEEND">      0.00010000</i>
   <i type="int" name="NBLOCK">     1</i>
   <i type="int" name="KBLOCK">     1</i>
   <i type="int" name="NPACO">   256</i>
   <i name="APACO">     16.00000000</i>
  </separator>
  <separator name="symmetry" >
   <i type="int" name="ISYM">     3</i>
   <i name="SYMPREC">      0.00001000</i>
  </separator>
  <separator name="dos" >
   <i type="logical" name="LORBIT"> F  </i>
   <v name="RWIGS">     -1.00000000     -1.00000000     -1.00000000</v>
   <i type="int" name="NEDOS">   301</i>
   <i name="EMIN">     10.00000000</i>
   <i name="EMAX">    -10.00000000</i>
   <i name="EFERMI">      0.00000000</i>
  </separator>
  <separator name="writing" >
   <i type="int" name="NWRITE">     2</i>
   <i type="logical" name="LWAVE"> T  </i>
   <i type="logical" name="LCHARG"> T  </i>
   <i type="logical" name="LPARD"> F  </i>
   <i type="logical" name="LVTOT"> F  </i>
   <i type="logical" name="LVHAR"> F  </i>
   <i type="logical" name="LELF"> F  </i>
   <i type="logical" name="LOPTICS"> F  </i>
   <v name="STM">      0.00000000      0.00000000      0.00000000      0.00000000      0.00000000      0.00000000      0.00000000</v>
  </separator>
  <separator name="performance" >
   <i type="int" name="NPAR">    16</i>
   <i type="int" name="NSIM">     4</i>
   <i type="int" name="NBLK">    -1</i>
   <i type="logical" name="LPLANE"> T  </i>
   <i type="logical" name="LSCALAPACK"> T  </i>
   <i type="logical" name="LSCAAWARE"> F  </i>
   <i type="logical" name="LSCALU"> F  </i>
   <i type="logical" name="LASYNC"> F  </i>
   <i type="logical" name="LORBITALREAL"> F  </i>
  </separator>
  <separator name="miscellaneous" >
   <i type="int" name="IDIOT">     3</i>
   <i type="logical" name="LMUSIC"> F  </i>
   <v name="POMASS">     63.54600000     72.61000000     32.06600000</v>
   <v name="DARWINR">      0.00000000      0.00000000      0.00000000</v>
   <v name="DARWINV">      1.00000000      1.00000000      1.00000000</v>
   <i type="logical" name="LCORR"> T  </i>
  </separator>
  <i type="logical" name="GGA_COMPAT"> T  </i>
  <i type="logical" name="LBERRY"> F  </i>
  <i type="int" name="ICORELEVEL">     0</i>
  <i type="logical" name="LDAU"> F  </i>
  <i type="int" name="I_CONSTRAINED_M">     0</i>
  <separator name="electronic exchange-correlation" >
   <i type="string" name="GGA">PE</i>
   <i type="int" name="VOSKOWN">     0</i>
   <i type="logical" name="LHFCALC"> T  </i>
   <i type="string" name="PRECFOCK">fast</i>
   <i type="logical" name="LSYMGRAD"> F  </i>
   <i type="logical" name="LHFONE"> F  </i>
   <i type="logical" name="LRHFCALC"> F  </i>
   <i type="logical" name="LTHOMAS"> F  </i>
   <i type="logical" name="LMODELHF"> F  </i>
   <i name="ENCUT4O">     -1.00000000</i>
   <i type="int" name="EXXOEP">     0</i>
   <i type="int" name="FOURORBIT">     0</i>
   <i name="AEXX">      0.25000000</i>
   <i name="HFALPHA">     -1.00000000</i>
   <i name="MCALPHA">      0.00000000</i>
   <i name="ALDAX">      0.75000000</i>
   <i name="AGGAX">      0.75000000</i>
   <i name="ALDAC">      1.00000000</i>
   <i name="AGGAC">      1.00000000</i>
   <i type="int" name="NKREDX">     1</i>
   <i type="int" name="NKREDY">     1</i>
   <i type="int" name="NKREDZ">     1</i>
   <i type="logical" name="SHIFTRED"> F  </i>
   <i type="logical" name="ODDONLY"> F  </i>
   <i type="logical" name="EVENONLY"> F  </i>
   <i type="int" name="LMAXFOCK">     4</i>
   <i type="int" name="NMAXFOCKAE">     1</i>
   <i type="logical" name="LFOCKAEDFT"> F  </i>
   <i name="HFSCREEN">      0.20000000</i>
   <i name="HFSCREENC">      0.20000000</i>
   <i type="int" name="NBANDSGWLOW">     1</i>
  </separator>
  <separator name="vdW DFT" >
   <i type="logical" name="LUSE_VDW"> F  </i>
   <i name="Zab_VDW">     -0.84910000</i>
   <i name="PARAM1">      0.12340000</i>
   <i name="PARAM2">      1.00000000</i>
   <i name="PARAM3">      0.00000000</i>
  </separator>
  <separator name="model GW" >
   <i type="int" name="MODEL_GW">     0</i>
   <i name="MODEL_EPS0">     11.09505304</i>
   <i name="MODEL_ALPHA">      1.00000000</i>
  </separator>
  <separator name="linear response parameters" >
   <i type="logical" name="LEPSILON"> F  </i>
   <i type="logical" name="LRPA"> F  </i>
   <i type="logical" name="LNABLA"> F  </i>
   <i type="logical" name="LVEL"> F  </i>
   <i type="int" name="KINTER">     0</i>
   <i name="CSHIFT">      0.10000000</i>
   <i name="OMEGAMAX">     -1.00000000</i>
   <i name="DEG_THRESHOLD">      0.00200000</i>
  </separator>
  <separator name="orbital magnetization" >
   <i type="logical" name="NUCIND"> F  </i>
   <v name="MAGPOS">      0.00000000      0.00000000      0.00000000</v>
   <i type="logical" name="LNICSALL"> T  </i>
   <i type="logical" name="ORBITALMAG"> F  </i>
   <i type="logical" name="LMAGBLOCH"> F  </i>
   <i type="logical" name="LCHIMAG"> F  </i>
   <i type="logical" name="LGAUGE"> T  </i>
   <i type="int" name="MAGATOM">     0</i>
   <v name="MAGDIPOL">      0.00000000      0.00000000      0.00000000</v>
   <v name="AVECCONST">      0.00000000      0.00000000      0.00000000</v>
  </separator>
  <separator name="response functions" >
   <i type="logical" name="LADDER"> F  </i>
   <i type="logical" name="LFXC"> F  </i>
   <i type="logical" name="LHARTREE"> T  </i>
   <i type="int" name="IBSE">     0</i>
   <i type="logical" name="LTCTE"> F  </i>
   <i type="logical" name="LTETE"> F  </i>
   <i type="logical" name="LTRIPLET"> F  </i>
   <i type="logical" name="LFXCEPS"> F  </i>
   <i type="logical" name="L2ORDER"> F  </i>
   <i type="logical" name="LUSEW"> F  </i>
   <i name="ENCUTGW">     -2.00000000</i>
   <i name="ENCUTGWSOFT">     -2.00000000</i>
   <i name="ENCUTLF">     -1.00000000</i>
   <i type="int" name="LMAXMP2">    -1</i>
   <i name="SCISSOR">      0.00000000</i>
   <i type="int" name="NOMEGA">     0</i>
   <i type="int" name="NOMEGAR">     0</i>
   <i type="int" name="NBANDSGW">    -1</i>
   <i type="int" name="NBANDSO">    -1</i>
   <i type="int" name="NBANDSV">    -1</i>
   <i type="int" name="NELM">     1</i>
   <i type="int" name="DIM">     3</i>
   <i type="int" name="ANTIRES">     0</i>
   <i name="OMEGAMAX">    -30.00000000</i>
   <i name="OMEGATL">   -200.00000000</i>
   <i type="int" name="OMEGAGRID">     0</i>
   <i name="CSHIFT">     -0.10000000</i>
   <i type="logical" name="SELFENERGY"> F  </i>
   <i type="logical" name="LSPECTRAL"> F  </i>
   <i type="logical" name="ODDONLYGW"> F  </i>
   <i type="logical" name="EVENONLYGW"> F  </i>
   <i type="int" name="NKREDLFX">     1</i>
   <i type="int" name="NKREDLFY">     1</i>
   <i type="int" name="NKREDLFZ">     1</i>
   <i type="int" name="MAXMEM">  1800</i>
   <i type="int" name="TELESCOPE">     0</i>
  </separator>
 </parameters>
 <atominfo>
  <atoms>      12 </atoms>
  <types>       3 </types>
  <array name="atoms" >
   <dimension dim="1">ion</dimension>
   <field type="string">element</field>
   <field type="int">atomtype</field>
   <set>
    <rc><c>Cu</c><c>   1</c></rc>
    <rc><c>Cu</c><c>   1</c></rc>
    <rc><c>Cu</c><c>   1</c></rc>
    <rc><c>Cu</c><c>   1</c></rc>
    <rc><c>Ge</c><c>   2</c></rc>
    <rc><c>Ge</c><c>   2</c></rc>
    <rc><c>S </c><c>   3</c></rc>
    <rc><c>S </c><c>   3</c></rc>
    <rc><c>S </c><c>   3</c></rc>
    <rc><c>S </c><c>   3</c></rc>
    <rc><c>S </c><c>   3</c></rc>
    <rc><c>S </c><c>   3</c></rc>
   </set>
  </array>
  <array name="atomtypes" >
   <dimension dim="1">type</dimension>
   <field type="int">atomspertype</field>
   <field type="string">element</field>
   <field>mass</field>
   <field>valence</field>
   <field type="string">pseudopotential</field>
   <set>
    <rc><c>   4</c><c>Cu</c><c>     63.54600000</c><c>     17.00000000</c><c>  PAW_PBE Cu_pv 06Sep2000               </c></rc>
    <rc><c>   2</c><c>Ge</c><c>     72.61000000</c><c>      4.00000000</c><c>  PAW_PBE Ge 05Jan2001                  </c></rc>
    <rc><c>   6</c><c>S </c><c>     32.06600000</c><c>      6.00000000</c><c>  PAW_PBE S 17Jan2003                   </c></rc>
   </set>
  </array>
 </atominfo>
 <structure name="initialpos" >
  <crystal>
   <varray name="basis" >
    <v>       3.22479600      -5.64383000       0.03157200 </v>
    <v>       3.22479600       5.64383000       0.03157200 </v>
    <v>      -2.10194600       0.00000000       6.07553700 </v>
   </varray>
   <i name="volume">    221.90106089 </i>
   <varray name="rec_basis" >
    <v>       0.15452516      -0.08859232       0.05346088 </v>
    <v>       0.15452516       0.08859232       0.05346088 </v>
    <v>      -0.00160600       0.00000000       0.16403888 </v>
   </varray>
  </crystal>
  <varray name="positions" >
   <v>       0.61844300       0.12117100       0.11953300 </v>
   <v>       0.12117100       0.61844300       0.61953300 </v>
   <v>       0.96295700       0.79032200       0.11881300 </v>
   <v>       0.79032200       0.96295700       0.61881300 </v>
   <v>       0.44127040       0.26728100       0.59904700 </v>
   <v>       0.26728100       0.43973200       0.09904700 </v>
   <v>       0.07949800       0.91167500       0.49736300 </v>
   <v>       0.57140300       0.41236400       0.98018400 </v>
   <v>       0.73711100       0.25006200       0.49504900 </v>
   <v>       0.41236400       0.57140300       0.48018400 </v>
   <v>       0.91167500       0.07949800       0.99736300 </v>
   <v>       0.25006200       0.73711100       0.99504900 </v>
  </varray>
 </structure>
 <calculation>
  <scstep>
   <time name="total">  251.77  251.64</time>
   <energy>
    <i name="alphaZ">    339.31929130 </i>
    <i name="ewald">  -9064.43045464 </i>
    <i name="hartreedc">  -8067.44492583 </i>
    <i name="XCdc">    369.90380890 </i>
    <i name="pawpsdc">  16900.03207244 </i>
    <i name="pawaedc"> -17392.84742677 </i>
    <i name="eentropy">     -0.00145611 </i>
    <i name="bandstr">  -1657.44158078 </i>
    <i name="atom">  18320.98302006 </i>
    <i name="e_fr_energy">     75.52401144 </i>
    <i name="e_wo_entrp">     75.52546756 </i>
    <i name="e_0_energy">     75.52449681 </i>
   </energy>
  </scstep>
  <scstep>
   <time name="total">  256.16  255.97</time>
   <energy>
    <i name="e_fr_energy">     -8.38213287 </i>
    <i name="e_wo_entrp">     -8.38132637 </i>
    <i name="e_0_energy">     -8.38186404 </i>
   </energy>
  </scstep>
  <scstep>
   <time name="total">  253.62  253.43</time>
   <energy>
    <i name="e_fr_energy">    -15.19128721 </i>
    <i name="e_wo_entrp">    -15.19151564 </i>
    <i name="e_0_energy">    -15.19136335 </i>
   </energy>
  </scstep>
  <scstep>
   <time name="total">  255.46  255.26</time>
   <energy>
    <i name="e_fr_energy">    -22.66999528 </i>
    <i name="e_wo_entrp">    -22.67034572 </i>
    <i name="e_0_energy">    -22.67011209 </i>
   </energy>
  </scstep>
  <scstep>
   <time name="total">  264.58  264.36</time>
   <energy>
    <i name="e_fr_energy">    -60.81603254 </i>
    <i name="e_wo_entrp">    -60.81664634 </i>
    <i name="e_0_energy">    -60.81623714 </i>
   </energy>
  </scstep>
  <scstep>
   <time name="total">  259.74  259.52</time>
   <energy>
    <i name="e_fr_energy">    -65.94094179 </i>
    <i name="e_wo_entrp">    -65.94158560 </i>
    <i name="e_0_energy">    -65.94115640 </i>
   </energy>
  </scstep>
  <scstep>
   <time name="total">  254.58  254.38</time>
   <energy>
    <i name="e_fr_energy">    -67.47714954 </i>
    <i name="e_wo_entrp">    -67.47757273 </i>
    <i name="e_0_energy">    -67.47729060 </i>
   </energy>
  </scstep>
  <scstep>
   <time name="total">  254.04  253.82</time>
   <energy>
    <i name="e_fr_energy">    -69.08456477 </i>
    <i name="e_wo_entrp">    -69.08529052 </i>
    <i name="e_0_energy">    -69.08480669 </i>
   </energy>
  </scstep>
  <scstep>
   <time name="total">  256.37  256.16</time>
   <energy>
    <i name="e_fr_energy">    -69.39496767 </i>
    <i name="e_wo_entrp">    -69.39582595 </i>
    <i name="e_0_energy">    -69.39525376 </i>
   </energy>
  </scstep>
  <scstep>
   <time name="total">  259.29  259.08</time>
   <energy>
    <i name="e_fr_energy">    -69.49840846 </i>
    <i name="e_wo_entrp">    -69.49909375 </i>
    <i name="e_0_energy">    -69.49863689 </i>
   </energy>
  </scstep>
  <scstep>
   <time name="total">  260.24  260.04</time>
   <energy>
    <i name="e_fr_energy">    -69.56791407 </i>
    <i name="e_wo_entrp">    -69.56849693 </i>
    <i name="e_0_energy">    -69.56810835 </i>
   </energy>
  </scstep>
  <scstep>
   <time name="total">  256.35  256.15</time>
   <energy>
    <i name="e_fr_energy">    -69.58026716 </i>
    <i name="e_wo_entrp">    -69.58080142 </i>
    <i name="e_0_energy">    -69.58044525 </i>
   </energy>
  </scstep>
  <scstep>
   <time name="total">  259.16  258.94</time>
   <energy>
    <i name="e_fr_energy">    -69.58990415 </i>
    <i name="e_wo_entrp">    -69.59042595 </i>
    <i name="e_0_energy">    -69.59007808 </i>
   </energy>
  </scstep>
  <scstep>
   <time name="total">  260.39  260.18</time>
   <energy>
    <i name="e_fr_energy">    -69.59235874 </i>
    <i name="e_wo_entrp">    -69.59289613 </i>
    <i name="e_0_energy">    -69.59253787 </i>
   </energy>
  </scstep>
  <scstep>
   <time name="total">  251.66  251.47</time>
   <energy>
    <i name="e_fr_energy">    -69.59386226 </i>
    <i name="e_wo_entrp">    -69.59441161 </i>
    <i name="e_0_energy">    -69.59404538 </i>
   </energy>
  </scstep>
  <scstep>
   <time name="total">  253.17  252.97</time>
   <energy>
    <i name="e_fr_energy">    -69.59443240 </i>
    <i name="e_wo_entrp">    -69.59498295 </i>
    <i name="e_0_energy">    -69.59461592 </i>
   </energy>
  </scstep>
  <scstep>
   <time name="total">  254.62  254.42</time>
   <energy>
    <i name="e_fr_energy">    -69.59460539 </i>
    <i name="e_wo_entrp">    -69.59515347 </i>
    <i name="e_0_energy">    -69.59478808 </i>
   </energy>
  </scstep>
  <scstep>
   <time name="total">  256.74  256.53</time>
   <energy>
    <i name="e_fr_energy">    -69.59472230 </i>
    <i name="e_wo_entrp">    -69.59526763 </i>
    <i name="e_0_energy">    -69.59490408 </i>
   </energy>
  </scstep>
  <scstep>
   <time name="total">  252.84  252.64</time>
   <energy>
    <i name="e_fr_energy">    -69.59475120 </i>
    <i name="e_wo_entrp">    -69.59529512 </i>
    <i name="e_0_energy">    -69.59493251 </i>
   </energy>
  </scstep>
  <scstep>
   <time name="total">  252.70  252.49</time>
   <energy>
    <i name="e_fr_energy">    -69.59477095 </i>
    <i name="e_wo_entrp">    -69.59531514 </i>
    <i name="e_0_energy">    -69.59495234 </i>
   </energy>
  </scstep>
  <scstep>
   <time name="total">  251.30  251.16</time>
   <energy>
    <i name="alphaZ">    339.31929130 </i>
    <i name="ewald">  -9064.43045464 </i>
    <i name="hartreedc">  -8149.65480690 </i>
    <i name="XCdc">    372.06916034 </i>
    <i name="pawpsdc">  15922.05101928 </i>
    <i name="pawaedc"> -16407.24062019 </i>
    <i name="eentropy">      0.00054473 </i>
    <i name="bandstr">  -1742.75924449 </i>
    <i name="atom">  18320.98302006 </i>
    <i name="e_fr_energy">    -69.59477833 </i>
    <i name="e_wo_entrp">    -69.59532307 </i>
    <i name="e_0_energy">    -69.59495991 </i>
   </energy>
  </scstep>
  <structure>
   <crystal>
    <varray name="basis" >
     <v>       3.22479600      -5.64383000       0.03157200 </v>
     <v>       3.22479600       5.64383000       0.03157200 </v>
     <v>      -2.10194600       0.00000000       6.07553700 </v>
    </varray>
    <i name="volume">    221.90106089 </i>
    <varray name="rec_basis" >
     <v>       0.15452516      -0.08859232       0.05346088 </v>
     <v>       0.15452516       0.08859232       0.05346088 </v>
     <v>      -0.00160600       0.00000000       0.16403888 </v>
    </varray>
   </crystal>
   <varray name="positions" >
    <v>       0.61844300       0.12117100       0.11953300 </v>
    <v>       0.12117100       0.61844300       0.61953300 </v>
    <v>       0.96295700       0.79032200       0.11881300 </v>
    <v>       0.79032200       0.96295700       0.61881300 </v>
    <v>       0.44127040       0.26728100       0.59904700 </v>
    <v>       0.26728100       0.43973200       0.09904700 </v>
    <v>       0.07949800       0.91167500       0.49736300 </v>
    <v>       0.57140300       0.41236400       0.98018400 </v>
    <v>       0.73711100       0.25006200       0.49504900 </v>
    <v>       0.41236400       0.57140300       0.48018400 </v>
    <v>       0.91167500       0.07949800       0.99736300 </v>
    <v>       0.25006200       0.73711100       0.99504900 </v>
   </varray>
  </structure>
  <varray name="forces" >
   <v>      -0.00239823      -0.00149130      -0.00625504 </v>
   <v>       0.00469414       0.00165792       0.00036864 </v>
   <v>       0.00067804      -0.00142547       0.00465202 </v>
   <v>       0.00048698      -0.00787361       0.00165475 </v>
   <v>      -0.11285079       0.15028368       0.00786536 </v>
   <v>       0.00142440      -0.00535970       0.00744754 </v>
   <v>       0.05684388      -0.00601034       0.01191183 </v>
   <v>       0.00785266      -0.01717932       0.00355097 </v>
   <v>       0.05520498      -0.08845840      -0.02845372 </v>
   <v>      -0.01117893      -0.02311787       0.00323028 </v>
   <v>       0.00094916       0.00058714      -0.00239953 </v>
   <v>      -0.00170629      -0.00161273      -0.00357308 </v>
  </varray>
  <energy>
   <i name="e_fr_energy">    -69.59477833 </i>
   <i name="e_wo_entrp">    -69.59495991 </i>
   <i name="e_0_energy">      0.00054473 </i>
  </energy>
  <time name="totalsc"> 5897.40 5894.68</time>
  <eigenvalues>
   <array>
    <dimension dim="1">band</dimension>
    <dimension dim="2">kpoint</dimension>
    <dimension dim="3">spin</dimension>
    <field>eigene</field>
    <field>occ</field>
    <set>
     <set comment="spin 1">
      <set comment="kpoint 1">
       <r>  -68.6490    1.0000 </r>
       <r>  -68.6450    1.0000 </r>
       <r>  -68.6336    1.0000 </r>
       <r>  -68.6303    1.0000 </r>
       <r>  -68.6178    1.0000 </r>
       <r>  -68.6137    1.0000 </r>
       <r>  -68.5996    1.0000 </r>
       <r>  -68.5966    1.0000 </r>
       <r>  -68.5780    1.0000 </r>
       <r>  -68.5743    1.0000 </r>
       <r>  -68.5616    1.0000 </r>
       <r>  -68.5580    1.0000 </r>
       <r>  -12.7180    1.0000 </r>
       <r>  -11.1322    1.0000 </r>
       <r>  -10.9141    1.0000 </r>
       <r>  -10.6016    1.0000 </r>
       <r>  -10.2569    1.0000 </r>
       <r>  -10.2376    1.0000 </r>
       <r>   -5.9815    1.0000 </r>
       <r>   -4.9817    1.0000 </r>
       <r>   -2.7599    1.0000 </r>
       <r>   -2.2088    1.0000 </r>
       <r>   -2.0739    1.0000 </r>
       <r>   -1.9226    1.0000 </r>
       <r>   -1.5769    1.0000 </r>
       <r>   -0.9854    1.0000 </r>
       <r>   -0.9493    1.0000 </r>
       <r>   -0.6819    1.0000 </r>
       <r>   -0.3994    1.0000 </r>
       <r>   -0.2768    1.0000 </r>
       <r>   -0.2627    1.0000 </r>
       <r>   -0.2343    1.0000 </r>
       <r>   -0.1898    1.0000 </r>
       <r>   -0.1545    1.0000 </r>
       <r>   -0.0439    1.0000 </r>
       <r>    0.0314    1.0000 </r>
       <r>    1.3493    1.0000 </r>
       <r>    1.3619    1.0000 </r>
       <r>    1.4132    1.0000 </r>
       <r>    1.4572    1.0000 </r>
       <r>    1.4725    1.0000 </r>
       <r>    1.4734    1.0000 </r>
       <r>    1.5195    1.0000 </r>
       <r>    1.5329    1.0000 </r>
       <r>    1.5737    1.0000 </r>
       <r>    1.7111    1.0000 </r>
       <r>    1.8919    1.0000 </r>
       <r>    1.9258    1.0000 </r>
       <r>    2.0607    1.0000 </r>
       <r>    2.6505    1.0000 </r>
       <r>    2.7285    1.0000 </r>
       <r>    3.0903    1.0000 </r>
       <r>    3.2176    1.0000 </r>
       <r>    4.0046    1.0045 </r>
       <r>    4.0357    1.0124 </r>
       <r>    4.1715    0.8681 </r>
       <r>    5.5383   -0.0000 </r>
       <r>    6.3592   -0.0000 </r>
       <r>    7.6360    0.0000 </r>
       <r>    7.9888    0.0000 </r>
       <r>    8.6197    0.0000 </r>
       <r>    8.7863    0.0000 </r>
       <r>    9.5878    0.0000 </r>
       <r>    9.7378    0.0000 </r>
       <r>    9.8107    0.0000 </r>
       <r>   10.4144    0.0000 </r>
       <r>   10.5796    0.0000 </r>
       <r>   10.6994    0.0000 </r>
       <r>   10.7113    0.0000 </r>
       <r>   11.2818    0.0000 </r>
       <r>   11.7124    0.0000 </r>
       <r>   12.3889    0.0000 </r>
       <r>   12.4510    0.0000 </r>
       <r>   12.7280    0.0000 </r>
       <r>   13.3220    0.0000 </r>
       <r>   13.3838    0.0000 </r>
       <r>   13.8360    0.0000 </r>
       <r>   13.8830    0.0000 </r>
       <r>   14.1423    0.0000 </r>
       <r>   14.1807    0.0000 </r>
      </set>
      <set comment="kpoint 2">
       <r>  -68.6490    1.0000 </r>
       <r>  -68.6450    1.0000 </r>
       <r>  -68.6336    1.0000 </r>
       <r>  -68.6303    1.0000 </r>
       <r>  -68.6177    1.0000 </r>
       <r>  -68.6136    1.0000 </r>
       <r>  -68.5996    1.0000 </r>
       <r>  -68.5966    1.0000 </r>
       <r>  -68.5780    1.0000 </r>
       <r>  -68.5743    1.0000 </r>
       <r>  -68.5615    1.0000 </r>
       <r>  -68.5579    1.0000 </r>
       <r>  -12.5924    1.0000 </r>
       <r>  -11.1355    1.0000 </r>
       <r>  -10.9782    1.0000 </r>
       <r>  -10.6670    1.0000 </r>
       <r>  -10.3725    1.0000 </r>
       <r>  -10.2841    1.0000 </r>
       <r>   -5.9300    1.0000 </r>
       <r>   -4.7714    1.0000 </r>
       <r>   -2.6443    1.0000 </r>
       <r>   -2.2521    1.0000 </r>
       <r>   -2.0880    1.0000 </r>
       <r>   -1.6896    1.0000 </r>
       <r>   -1.3498    1.0000 </r>
       <r>   -0.9992    1.0000 </r>
       <r>   -0.7653    1.0000 </r>
       <r>   -0.6191    1.0000 </r>
       <r>   -0.5534    1.0000 </r>
       <r>   -0.4380    1.0000 </r>
       <r>   -0.3623    1.0000 </r>
       <r>   -0.2418    1.0000 </r>
       <r>   -0.1917    1.0000 </r>
       <r>   -0.1696    1.0000 </r>
       <r>   -0.0500    1.0000 </r>
       <r>    0.0387    1.0000 </r>
       <r>    1.2781    1.0000 </r>
       <r>    1.3357    1.0000 </r>
       <r>    1.3542    1.0000 </r>
       <r>    1.3919    1.0000 </r>
       <r>    1.4258    1.0000 </r>
       <r>    1.4716    1.0000 </r>
       <r>    1.4976    1.0000 </r>
       <r>    1.5305    1.0000 </r>
       <r>    1.7250    1.0000 </r>
       <r>    1.8587    1.0000 </r>
       <r>    2.0583    1.0000 </r>
       <r>    2.0945    1.0000 </r>
       <r>    2.2297    1.0000 </r>
       <r>    2.4138    1.0000 </r>
       <r>    2.5557    1.0000 </r>
       <r>    2.8249    1.0000 </r>
       <r>    2.9486    1.0000 </r>
       <r>    3.2404    1.0000 </r>
       <r>    3.6609    1.0000 </r>
       <r>    4.0399    1.0139 </r>
       <r>    6.1709   -0.0000 </r>
       <r>    6.9072   -0.0000 </r>
       <r>    8.1344    0.0000 </r>
       <r>    8.2743    0.0000 </r>
       <r>    8.5993    0.0000 </r>
       <r>    9.0042    0.0000 </r>
       <r>    9.2505    0.0000 </r>
       <r>    9.5329    0.0000 </r>
       <r>    9.8667    0.0000 </r>
       <r>   10.3747    0.0000 </r>
       <r>   10.6352    0.0000 </r>
       <r>   10.8154    0.0000 </r>
       <r>   10.9363    0.0000 </r>
       <r>   11.1887    0.0000 </r>
       <r>   11.6566    0.0000 </r>
       <r>   11.7697    0.0000 </r>
       <r>   12.1162    0.0000 </r>
       <r>   12.4423    0.0000 </r>
       <r>   12.6173    0.0000 </r>
       <r>   13.0061    0.0000 </r>
       <r>   13.5067    0.0000 </r>
       <r>   13.8715    0.0000 </r>
       <r>   14.2184    0.0000 </r>
       <r>   14.7069    0.0000 </r>
      </set>
      <set comment="kpoint 3">
       <r>  -68.6488    1.0000 </r>
       <r>  -68.6449    1.0000 </r>
       <r>  -68.6335    1.0000 </r>
       <r>  -68.6302    1.0000 </r>
       <r>  -68.6176    1.0000 </r>
       <r>  -68.6135    1.0000 </r>
       <r>  -68.5995    1.0000 </r>
       <r>  -68.5965    1.0000 </r>
       <r>  -68.5780    1.0000 </r>
       <r>  -68.5742    1.0000 </r>
       <r>  -68.5614    1.0000 </r>
       <r>  -68.5578    1.0000 </r>
       <r>  -12.4316    1.0000 </r>
       <r>  -11.2615    1.0000 </r>
       <r>  -10.9510    1.0000 </r>
       <r>  -10.7504    1.0000 </r>
       <r>  -10.4330    1.0000 </r>
       <r>  -10.3683    1.0000 </r>
       <r>   -5.8677    1.0000 </r>
       <r>   -4.5464    1.0000 </r>
       <r>   -2.4915    1.0000 </r>
       <r>   -2.2471    1.0000 </r>
       <r>   -1.9453    1.0000 </r>
       <r>   -1.4628    1.0000 </r>
       <r>   -1.2313    1.0000 </r>
       <r>   -1.0999    1.0000 </r>
       <r>   -0.9027    1.0000 </r>
       <r>   -0.8640    1.0000 </r>
       <r>   -0.5991    1.0000 </r>
       <r>   -0.5336    1.0000 </r>
       <r>   -0.2770    1.0000 </r>
       <r>   -0.2037    1.0000 </r>
       <r>   -0.2017    1.0000 </r>
       <r>   -0.1446    1.0000 </r>
       <r>   -0.0330    1.0000 </r>
       <r>    0.0802    1.0000 </r>
       <r>    1.2530    1.0000 </r>
       <r>    1.3270    1.0000 </r>
       <r>    1.3470    1.0000 </r>
       <r>    1.3958    1.0000 </r>
       <r>    1.4716    1.0000 </r>
       <r>    1.4790    1.0000 </r>
       <r>    1.4994    1.0000 </r>
       <r>    1.5531    1.0000 </r>
       <r>    1.7525    1.0000 </r>
       <r>    1.7919    1.0000 </r>
       <r>    1.9682    1.0000 </r>
       <r>    2.1478    1.0000 </r>
       <r>    2.3212    1.0000 </r>
       <r>    2.3637    1.0000 </r>
       <r>    2.5521    1.0000 </r>
       <r>    2.6687    1.0000 </r>
       <r>    2.9373    1.0000 </r>
       <r>    3.0783    1.0000 </r>
       <r>    3.2495    1.0000 </r>
       <r>    3.8621    1.0000 </r>
       <r>    6.3856   -0.0000 </r>
       <r>    7.0969    0.0000 </r>
       <r>    7.9821    0.0000 </r>
       <r>    8.1977    0.0000 </r>
       <r>    8.5159    0.0000 </r>
       <r>    8.8269    0.0000 </r>
       <r>    9.3306    0.0000 </r>
       <r>    9.8891    0.0000 </r>
       <r>   10.0116    0.0000 </r>
       <r>   10.5208    0.0000 </r>
       <r>   10.6961    0.0000 </r>
       <r>   10.7948    0.0000 </r>
       <r>   11.1430    0.0000 </r>
       <r>   11.4107    0.0000 </r>
       <r>   11.6093    0.0000 </r>
       <r>   11.7755    0.0000 </r>
       <r>   11.9441    0.0000 </r>
       <r>   12.4981    0.0000 </r>
       <r>   12.7821    0.0000 </r>
       <r>   13.0031    0.0000 </r>
       <r>   13.3941    0.0000 </r>
       <r>   13.5357    0.0000 </r>
       <r>   13.9379    0.0000 </r>
       <r>   14.2674    0.0000 </r>
      </set>
      <set comment="kpoint 4">
       <r>  -68.6489    1.0000 </r>
       <r>  -68.6450    1.0000 </r>
       <r>  -68.6336    1.0000 </r>
       <r>  -68.6303    1.0000 </r>
       <r>  -68.6177    1.0000 </r>
       <r>  -68.6136    1.0000 </r>
       <r>  -68.5996    1.0000 </r>
       <r>  -68.5966    1.0000 </r>
       <r>  -68.5779    1.0000 </r>
       <r>  -68.5743    1.0000 </r>
       <r>  -68.5615    1.0000 </r>
       <r>  -68.5579    1.0000 </r>
       <r>  -12.5929    1.0000 </r>
       <r>  -11.1327    1.0000 </r>
       <r>  -10.9749    1.0000 </r>
       <r>  -10.6739    1.0000 </r>
       <r>  -10.3797    1.0000 </r>
       <r>  -10.2755    1.0000 </r>
       <r>   -5.9302    1.0000 </r>
       <r>   -4.7728    1.0000 </r>
       <r>   -2.6452    1.0000 </r>
       <r>   -2.2522    1.0000 </r>
       <r>   -2.0891    1.0000 </r>
       <r>   -1.6865    1.0000 </r>
       <r>   -1.3431    1.0000 </r>
       <r>   -0.9969    1.0000 </r>
       <r>   -0.7687    1.0000 </r>
       <r>   -0.6254    1.0000 </r>
       <r>   -0.5499    1.0000 </r>
       <r>   -0.4373    1.0000 </r>
       <r>   -0.3595    1.0000 </r>
       <r>   -0.2423    1.0000 </r>
       <r>   -0.1968    1.0000 </r>
       <r>   -0.1693    1.0000 </r>
       <r>   -0.0498    1.0000 </r>
       <r>    0.0402    1.0000 </r>
       <r>    1.2790    1.0000 </r>
       <r>    1.3359    1.0000 </r>
       <r>    1.3541    1.0000 </r>
       <r>    1.3914    1.0000 </r>
       <r>    1.4264    1.0000 </r>
       <r>    1.4713    1.0000 </r>
       <r>    1.4983    1.0000 </r>
       <r>    1.5297    1.0000 </r>
       <r>    1.7251    1.0000 </r>
       <r>    1.8563    1.0000 </r>
       <r>    2.0588    1.0000 </r>
       <r>    2.0942    1.0000 </r>
       <r>    2.2310    1.0000 </r>
       <r>    2.4143    1.0000 </r>
       <r>    2.5564    1.0000 </r>
       <r>    2.8235    1.0000 </r>
       <r>    2.9456    1.0000 </r>
       <r>    3.2398    1.0000 </r>
       <r>    3.6608    1.0000 </r>
       <r>    4.0389    1.0136 </r>
       <r>    6.1703   -0.0000 </r>
       <r>    6.9073   -0.0000 </r>
       <r>    8.1374    0.0000 </r>
       <r>    8.2727    0.0000 </r>
       <r>    8.5997    0.0000 </r>
       <r>    9.0144    0.0000 </r>
       <r>    9.2553    0.0000 </r>
       <r>    9.5188    0.0000 </r>
       <r>    9.8662    0.0000 </r>
       <r>   10.3771    0.0000 </r>
       <r>   10.6384    0.0000 </r>
       <r>   10.8103    0.0000 </r>
       <r>   10.9349    0.0000 </r>
       <r>   11.1864    0.0000 </r>
       <r>   11.6585    0.0000 </r>
       <r>   11.7697    0.0000 </r>
       <r>   12.1189    0.0000 </r>
       <r>   12.4425    0.0000 </r>
       <r>   12.6169    0.0000 </r>
       <r>   13.0095    0.0000 </r>
       <r>   13.5163    0.0000 </r>
       <r>   13.9008    0.0000 </r>
       <r>   14.2725    0.0000 </r>
       <r>   14.8278    0.0000 </r>
      </set>
      <set comment="kpoint 5">
       <r>  -68.6490    1.0000 </r>
       <r>  -68.6450    1.0000 </r>
       <r>  -68.6335    1.0000 </r>
       <r>  -68.6302    1.0000 </r>
       <r>  -68.6178    1.0000 </r>
       <r>  -68.6137    1.0000 </r>
       <r>  -68.5995    1.0000 </r>
       <r>  -68.5965    1.0000 </r>
       <r>  -68.5781    1.0000 </r>
       <r>  -68.5744    1.0000 </r>
       <r>  -68.5615    1.0000 </r>
       <r>  -68.5579    1.0000 </r>
       <r>  -12.4364    1.0000 </r>
       <r>  -11.1990    1.0000 </r>
       <r>  -10.9380    1.0000 </r>
       <r>  -10.8713    1.0000 </r>
       <r>  -10.3932    1.0000 </r>
       <r>  -10.3589    1.0000 </r>
       <r>   -5.8732    1.0000 </r>
       <r>   -4.5213    1.0000 </r>
       <r>   -2.4164    1.0000 </r>
       <r>   -2.2469    1.0000 </r>
       <r>   -1.7909    1.0000 </r>
       <r>   -1.6819    1.0000 </r>
       <r>   -1.3581    1.0000 </r>
       <r>   -1.2963    1.0000 </r>
       <r>   -1.0751    1.0000 </r>
       <r>   -0.6818    1.0000 </r>
       <r>   -0.5282    1.0000 </r>
       <r>   -0.2951    1.0000 </r>
       <r>   -0.2812    1.0000 </r>
       <r>   -0.2261    1.0000 </r>
       <r>   -0.1902    1.0000 </r>
       <r>   -0.1283    1.0000 </r>
       <r>   -0.0934    1.0000 </r>
       <r>    0.0807    1.0000 </r>
       <r>    1.2928    1.0000 </r>
       <r>    1.3105    1.0000 </r>
       <r>    1.4149    1.0000 </r>
       <r>    1.4249    1.0000 </r>
       <r>    1.4623    1.0000 </r>
       <r>    1.4823    1.0000 </r>
       <r>    1.4952    1.0000 </r>
       <r>    1.5709    1.0000 </r>
       <r>    1.6718    1.0000 </r>
       <r>    1.8802    1.0000 </r>
       <r>    1.9414    1.0000 </r>
       <r>    2.1355    1.0000 </r>
       <r>    2.2800    1.0000 </r>
       <r>    2.3193    1.0000 </r>
       <r>    2.5575    1.0000 </r>
       <r>    2.6474    1.0000 </r>
       <r>    2.9001    1.0000 </r>
       <r>    2.9435    1.0000 </r>
       <r>    3.6985    1.0000 </r>
       <r>    3.8330    1.0000 </r>
       <r>    6.1714   -0.0000 </r>
       <r>    6.9892    0.0000 </r>
       <r>    8.0064    0.0000 </r>
       <r>    8.3233    0.0000 </r>
       <r>    8.4423    0.0000 </r>
       <r>    8.5774    0.0000 </r>
       <r>    9.1440    0.0000 </r>
       <r>    9.2483    0.0000 </r>
       <r>   10.3611    0.0000 </r>
       <r>   10.4990    0.0000 </r>
       <r>   10.9175    0.0000 </r>
       <r>   11.1861    0.0000 </r>
       <r>   11.3303    0.0000 </r>
       <r>   11.5567    0.0000 </r>
       <r>   11.8130    0.0000 </r>
       <r>   11.9623    0.0000 </r>
       <r>   12.3172    0.0000 </r>
       <r>   12.5043    0.0000 </r>
       <r>   12.7101    0.0000 </r>
       <r>   12.9170    0.0000 </r>
       <r>   13.3402    0.0000 </r>
       <r>   13.4440    0.0000 </r>
       <r>   14.2543    0.0000 </r>
       <r>   14.3636    0.0000 </r>
      </set>
      <set comment="kpoint 6">
       <r>  -68.6487    1.0000 </r>
       <r>  -68.6448    1.0000 </r>
       <r>  -68.6335    1.0000 </r>
       <r>  -68.6303    1.0000 </r>
       <r>  -68.6176    1.0000 </r>
       <r>  -68.6135    1.0000 </r>
       <r>  -68.5996    1.0000 </r>
       <r>  -68.5965    1.0000 </r>
       <r>  -68.5779    1.0000 </r>
       <r>  -68.5742    1.0000 </r>
       <r>  -68.5614    1.0000 </r>
       <r>  -68.5578    1.0000 </r>
       <r>  -12.4353    1.0000 </r>
       <r>  -11.3648    1.0000 </r>
       <r>  -10.9318    1.0000 </r>
       <r>  -10.7286    1.0000 </r>
       <r>  -10.4013    1.0000 </r>
       <r>  -10.2730    1.0000 </r>
       <r>   -5.9445    1.0000 </r>
       <r>   -4.6401    1.0000 </r>
       <r>   -2.3894    1.0000 </r>
       <r>   -2.2264    1.0000 </r>
       <r>   -2.0596    1.0000 </r>
       <r>   -1.6401    1.0000 </r>
       <r>   -1.3687    1.0000 </r>
       <r>   -1.2816    1.0000 </r>
       <r>   -1.0194    1.0000 </r>
       <r>   -0.5156    1.0000 </r>
       <r>   -0.4836    1.0000 </r>
       <r>   -0.3262    1.0000 </r>
       <r>   -0.2816    1.0000 </r>
       <r>   -0.2142    1.0000 </r>
       <r>   -0.1510    1.0000 </r>
       <r>   -0.1338    1.0000 </r>
       <r>   -0.0136    1.0000 </r>
       <r>    0.1105    1.0000 </r>
       <r>    1.2458    1.0000 </r>
       <r>    1.3143    1.0000 </r>
       <r>    1.3822    1.0000 </r>
       <r>    1.4368    1.0000 </r>
       <r>    1.4606    1.0000 </r>
       <r>    1.4915    1.0000 </r>
       <r>    1.4972    1.0000 </r>
       <r>    1.5507    1.0000 </r>
       <r>    1.7486    1.0000 </r>
       <r>    1.8275    1.0000 </r>
       <r>    1.9214    1.0000 </r>
       <r>    2.1350    1.0000 </r>
       <r>    2.2208    1.0000 </r>
       <r>    2.3861    1.0000 </r>
       <r>    2.5618    1.0000 </r>
       <r>    2.7890    1.0000 </r>
       <r>    2.9797    1.0000 </r>
       <r>    3.3119    1.0000 </r>
       <r>    3.5991    1.0000 </r>
       <r>    3.7491    1.0000 </r>
       <r>    6.0885   -0.0000 </r>
       <r>    6.9401   -0.0000 </r>
       <r>    7.6126    0.0000 </r>
       <r>    8.0682    0.0000 </r>
       <r>    8.4126    0.0000 </r>
       <r>    8.6165    0.0000 </r>
       <r>    8.9868    0.0000 </r>
       <r>    9.1564    0.0000 </r>
       <r>   10.0862    0.0000 </r>
       <r>   10.3339    0.0000 </r>
       <r>   10.7331    0.0000 </r>
       <r>   11.1112    0.0000 </r>
       <r>   11.4577    0.0000 </r>
       <r>   11.5939    0.0000 </r>
       <r>   11.7995    0.0000 </r>
       <r>   12.0862    0.0000 </r>
       <r>   12.4748    0.0000 </r>
       <r>   12.9209    0.0000 </r>
       <r>   13.0326    0.0000 </r>
       <r>   13.8304    0.0000 </r>
       <r>   14.2189    0.0000 </r>
       <r>   14.6558    0.0000 </r>
       <r>   15.4325    0.0000 </r>
       <r>   15.6430    0.0000 </r>
      </set>
      <set comment="kpoint 7">
       <r>  -68.6490    1.0000 </r>
       <r>  -68.6450    1.0000 </r>
       <r>  -68.6335    1.0000 </r>
       <r>  -68.6303    1.0000 </r>
       <r>  -68.6176    1.0000 </r>
       <r>  -68.6135    1.0000 </r>
       <r>  -68.5996    1.0000 </r>
       <r>  -68.5966    1.0000 </r>
       <r>  -68.5779    1.0000 </r>
       <r>  -68.5742    1.0000 </r>
       <r>  -68.5615    1.0000 </r>
       <r>  -68.5579    1.0000 </r>
       <r>  -12.5950    1.0000 </r>
       <r>  -11.2594    1.0000 </r>
       <r>  -10.9846    1.0000 </r>
       <r>  -10.5624    1.0000 </r>
       <r>  -10.3805    1.0000 </r>
       <r>  -10.1803    1.0000 </r>
       <r>   -6.0068    1.0000 </r>
       <r>   -4.8924    1.0000 </r>
       <r>   -2.6459    1.0000 </r>
       <r>   -2.3167    1.0000 </r>
       <r>   -1.9744    1.0000 </r>
       <r>   -1.6469    1.0000 </r>
       <r>   -1.4914    1.0000 </r>
       <r>   -1.1877    1.0000 </r>
       <r>   -0.7883    1.0000 </r>
       <r>   -0.5840    1.0000 </r>
       <r>   -0.4443    1.0000 </r>
       <r>   -0.3370    1.0000 </r>
       <r>   -0.2923    1.0000 </r>
       <r>   -0.2326    1.0000 </r>
       <r>   -0.1722    1.0000 </r>
       <r>   -0.1321    1.0000 </r>
       <r>   -0.0098    1.0000 </r>
       <r>    0.0671    1.0000 </r>
       <r>    1.2584    1.0000 </r>
       <r>    1.3208    1.0000 </r>
       <r>    1.3636    1.0000 </r>
       <r>    1.4238    1.0000 </r>
       <r>    1.4310    1.0000 </r>
       <r>    1.4755    1.0000 </r>
       <r>    1.5036    1.0000 </r>
       <r>    1.5413    1.0000 </r>
       <r>    1.7240    1.0000 </r>
       <r>    1.8126    1.0000 </r>
       <r>    1.9957    1.0000 </r>
       <r>    2.0728    1.0000 </r>
       <r>    2.4174    1.0000 </r>
       <r>    2.4613    1.0000 </r>
       <r>    2.5268    1.0000 </r>
       <r>    2.8744    1.0000 </r>
       <r>    3.1411    1.0000 </r>
       <r>    3.2292    1.0000 </r>
       <r>    3.7833    1.0000 </r>
       <r>    4.0669    1.0257 </r>
       <r>    5.9801   -0.0000 </r>
       <r>    6.6926   -0.0000 </r>
       <r>    7.5364    0.0000 </r>
       <r>    8.2225    0.0000 </r>
       <r>    8.6213    0.0000 </r>
       <r>    8.9068    0.0000 </r>
       <r>    9.3143    0.0000 </r>
       <r>    9.4335    0.0000 </r>
       <r>    9.8072    0.0000 </r>
       <r>   10.2728    0.0000 </r>
       <r>   10.5428    0.0000 </r>
       <r>   10.8272    0.0000 </r>
       <r>   10.9705    0.0000 </r>
       <r>   11.3783    0.0000 </r>
       <r>   11.4681    0.0000 </r>
       <r>   11.7338    0.0000 </r>
       <r>   12.0996    0.0000 </r>
       <r>   12.6641    0.0000 </r>
       <r>   12.9447    0.0000 </r>
       <r>   13.1007    0.0000 </r>
       <r>   13.3511    0.0000 </r>
       <r>   13.5190    0.0000 </r>
       <r>   14.4765    0.0000 </r>
       <r>   14.7554    0.0000 </r>
      </set>
      <set comment="kpoint 8">
       <r>  -68.6488    1.0000 </r>
       <r>  -68.6448    1.0000 </r>
       <r>  -68.6335    1.0000 </r>
       <r>  -68.6302    1.0000 </r>
       <r>  -68.6176    1.0000 </r>
       <r>  -68.6136    1.0000 </r>
       <r>  -68.5995    1.0000 </r>
       <r>  -68.5965    1.0000 </r>
       <r>  -68.5779    1.0000 </r>
       <r>  -68.5743    1.0000 </r>
       <r>  -68.5614    1.0000 </r>
       <r>  -68.5578    1.0000 </r>
       <r>  -12.4333    1.0000 </r>
       <r>  -11.2517    1.0000 </r>
       <r>  -10.9496    1.0000 </r>
       <r>  -10.7629    1.0000 </r>
       <r>  -10.4467    1.0000 </r>
       <r>  -10.3514    1.0000 </r>
       <r>   -5.8684    1.0000 </r>
       <r>   -4.5500    1.0000 </r>
       <r>   -2.4932    1.0000 </r>
       <r>   -2.2471    1.0000 </r>
       <r>   -1.9402    1.0000 </r>
       <r>   -1.4617    1.0000 </r>
       <r>   -1.2238    1.0000 </r>
       <r>   -1.0988    1.0000 </r>
       <r>   -0.8954    1.0000 </r>
       <r>   -0.8619    1.0000 </r>
       <r>   -0.6026    1.0000 </r>
       <r>   -0.5445    1.0000 </r>
       <r>   -0.2734    1.0000 </r>
       <r>   -0.2054    1.0000 </r>
       <r>   -0.2034    1.0000 </r>
       <r>   -0.1471    1.0000 </r>
       <r>   -0.0298    1.0000 </r>
       <r>    0.0810    1.0000 </r>
       <r>    1.2545    1.0000 </r>
       <r>    1.3275    1.0000 </r>
       <r>    1.3453    1.0000 </r>
       <r>    1.3968    1.0000 </r>
       <r>    1.4701    1.0000 </r>
       <r>    1.4795    1.0000 </r>
       <r>    1.5000    1.0000 </r>
       <r>    1.5526    1.0000 </r>
       <r>    1.7518    1.0000 </r>
       <r>    1.7923    1.0000 </r>
       <r>    1.9700    1.0000 </r>
       <r>    2.1459    1.0000 </r>
       <r>    2.3218    1.0000 </r>
       <r>    2.3614    1.0000 </r>
       <r>    2.5479    1.0000 </r>
       <r>    2.6669    1.0000 </r>
       <r>    2.9348    1.0000 </r>
       <r>    3.0748    1.0000 </r>
       <r>    3.2515    1.0000 </r>
       <r>    3.8614    1.0000 </r>
       <r>    6.3846   -0.0000 </r>
       <r>    7.0988    0.0000 </r>
       <r>    7.9827    0.0000 </r>
       <r>    8.2074    0.0000 </r>
       <r>    8.5316    0.0000 </r>
       <r>    8.8290    0.0000 </r>
       <r>    9.3180    0.0000 </r>
       <r>    9.8880    0.0000 </r>
       <r>   10.0096    0.0000 </r>
       <r>   10.5189    0.0000 </r>
       <r>   10.6888    0.0000 </r>
       <r>   10.7927    0.0000 </r>
       <r>   11.1405    0.0000 </r>
       <r>   11.4071    0.0000 </r>
       <r>   11.6092    0.0000 </r>
       <r>   11.7725    0.0000 </r>
       <r>   11.9456    0.0000 </r>
       <r>   12.4970    0.0000 </r>
       <r>   12.8278    0.0000 </r>
       <r>   13.0312    0.0000 </r>
       <r>   13.5520    0.0000 </r>
       <r>   13.6890    0.0000 </r>
       <r>   14.5509    0.0000 </r>
       <r>   15.2495    0.0000 </r>
      </set>
      <set comment="kpoint 9">
       <r>  -68.6488    1.0000 </r>
       <r>  -68.6448    1.0000 </r>
       <r>  -68.6335    1.0000 </r>
       <r>  -68.6303    1.0000 </r>
       <r>  -68.6175    1.0000 </r>
       <r>  -68.6136    1.0000 </r>
       <r>  -68.5995    1.0000 </r>
       <r>  -68.5966    1.0000 </r>
       <r>  -68.5778    1.0000 </r>
       <r>  -68.5742    1.0000 </r>
       <r>  -68.5614    1.0000 </r>
       <r>  -68.5578    1.0000 </r>
       <r>  -12.4362    1.0000 </r>
       <r>  -11.3610    1.0000 </r>
       <r>  -10.9309    1.0000 </r>
       <r>  -10.7338    1.0000 </r>
       <r>  -10.4037    1.0000 </r>
       <r>  -10.2691    1.0000 </r>
       <r>   -5.9449    1.0000 </r>
       <r>   -4.6414    1.0000 </r>
       <r>   -2.3914    1.0000 </r>
       <r>   -2.2284    1.0000 </r>
       <r>   -2.0589    1.0000 </r>
       <r>   -1.6371    1.0000 </r>
       <r>   -1.3605    1.0000 </r>
       <r>   -1.2822    1.0000 </r>
       <r>   -1.0191    1.0000 </r>
       <r>   -0.5127    1.0000 </r>
       <r>   -0.4851    1.0000 </r>
       <r>   -0.3290    1.0000 </r>
       <r>   -0.2833    1.0000 </r>
       <r>   -0.2123    1.0000 </r>
       <r>   -0.1528    1.0000 </r>
       <r>   -0.1384    1.0000 </r>
       <r>   -0.0095    1.0000 </r>
       <r>    0.1107    1.0000 </r>
       <r>    1.2461    1.0000 </r>
       <r>    1.3153    1.0000 </r>
       <r>    1.3819    1.0000 </r>
       <r>    1.4365    1.0000 </r>
       <r>    1.4612    1.0000 </r>
       <r>    1.4910    1.0000 </r>
       <r>    1.4970    1.0000 </r>
       <r>    1.5497    1.0000 </r>
       <r>    1.7478    1.0000 </r>
       <r>    1.8288    1.0000 </r>
       <r>    1.9223    1.0000 </r>
       <r>    2.1338    1.0000 </r>
       <r>    2.2211    1.0000 </r>
       <r>    2.3841    1.0000 </r>
       <r>    2.5596    1.0000 </r>
       <r>    2.7898    1.0000 </r>
       <r>    2.9773    1.0000 </r>
       <r>    3.3105    1.0000 </r>
       <r>    3.6005    1.0000 </r>
       <r>    3.7495    1.0000 </r>
       <r>    6.0882   -0.0000 </r>
       <r>    6.9401   -0.0000 </r>
       <r>    7.6125    0.0000 </r>
       <r>    8.0714    0.0000 </r>
       <r>    8.4144    0.0000 </r>
       <r>    8.6220    0.0000 </r>
       <r>    8.9776    0.0000 </r>
       <r>    9.1582    0.0000 </r>
       <r>   10.0866    0.0000 </r>
       <r>   10.3354    0.0000 </r>
       <r>   10.7298    0.0000 </r>
       <r>   11.1082    0.0000 </r>
       <r>   11.4591    0.0000 </r>
       <r>   11.5748    0.0000 </r>
       <r>   11.7807    0.0000 </r>
       <r>   12.0357    0.0000 </r>
       <r>   12.5193    0.0000 </r>
       <r>   12.6842    0.0000 </r>
       <r>   12.9177    0.0000 </r>
       <r>   13.2105    0.0000 </r>
       <r>   14.2263    0.0000 </r>
       <r>   14.7692    0.0000 </r>
       <r>   15.2541    0.0000 </r>
       <r>   15.9104    0.0000 </r>
      </set>
      <set comment="kpoint 10">
       <r>  -68.6486    1.0000 </r>
       <r>  -68.6446    1.0000 </r>
       <r>  -68.6333    1.0000 </r>
       <r>  -68.6301    1.0000 </r>
       <r>  -68.6174    1.0000 </r>
       <r>  -68.6134    1.0000 </r>
       <r>  -68.5993    1.0000 </r>
       <r>  -68.5964    1.0000 </r>
       <r>  -68.5778    1.0000 </r>
       <r>  -68.5741    1.0000 </r>
       <r>  -68.5612    1.0000 </r>
       <r>  -68.5576    1.0000 </r>
       <r>  -12.4265    1.0000 </r>
       <r>  -11.5109    1.0000 </r>
       <r>  -10.9061    1.0000 </r>
       <r>  -10.6099    1.0000 </r>
       <r>  -10.4137    1.0000 </r>
       <r>  -10.1984    1.0000 </r>
       <r>   -6.0231    1.0000 </r>
       <r>   -4.8076    1.0000 </r>
       <r>   -2.3076    1.0000 </r>
       <r>   -2.2683    1.0000 </r>
       <r>   -2.0978    1.0000 </r>
       <r>   -1.7030    1.0000 </r>
       <r>   -1.2524    1.0000 </r>
       <r>   -1.1051    1.0000 </r>
       <r>   -0.8385    1.0000 </r>
       <r>   -0.7876    1.0000 </r>
       <r>   -0.7240    1.0000 </r>
       <r>   -0.2409    1.0000 </r>
       <r>   -0.2012    1.0000 </r>
       <r>   -0.1826    1.0000 </r>
       <r>   -0.1490    1.0000 </r>
       <r>   -0.0409    1.0000 </r>
       <r>   -0.0019    1.0000 </r>
       <r>    0.1810    1.0000 </r>
       <r>    1.2664    1.0000 </r>
       <r>    1.3169    1.0000 </r>
       <r>    1.3744    1.0000 </r>
       <r>    1.4134    1.0000 </r>
       <r>    1.4343    1.0000 </r>
       <r>    1.4910    1.0000 </r>
       <r>    1.5077    1.0000 </r>
       <r>    1.5487    1.0000 </r>
       <r>    1.7874    1.0000 </r>
       <r>    1.8471    1.0000 </r>
       <r>    1.9944    1.0000 </r>
       <r>    2.1501    1.0000 </r>
       <r>    2.2525    1.0000 </r>
       <r>    2.3365    1.0000 </r>
       <r>    2.5606    1.0000 </r>
       <r>    2.7612    1.0000 </r>
       <r>    2.7778    1.0000 </r>
       <r>    3.3689    1.0000 </r>
       <r>    3.7669    1.0000 </r>
       <r>    4.0020    1.0041 </r>
       <r>    5.8551   -0.0000 </r>
       <r>    6.7715   -0.0000 </r>
       <r>    7.0815    0.0000 </r>
       <r>    8.4088    0.0000 </r>
       <r>    8.5624    0.0000 </r>
       <r>    8.7667    0.0000 </r>
       <r>    9.1473    0.0000 </r>
       <r>    9.2506    0.0000 </r>
       <r>    9.9551    0.0000 </r>
       <r>   10.2858    0.0000 </r>
       <r>   10.7234    0.0000 </r>
       <r>   10.8276    0.0000 </r>
       <r>   10.8748    0.0000 </r>
       <r>   11.2750    0.0000 </r>
       <r>   11.7520    0.0000 </r>
       <r>   11.9176    0.0000 </r>
       <r>   11.9738    0.0000 </r>
       <r>   12.3669    0.0000 </r>
       <r>   12.5401    0.0000 </r>
       <r>   13.4554    0.0000 </r>
       <r>   14.2793    0.0000 </r>
       <r>   14.6692    0.0000 </r>
       <r>   16.7433    0.0000 </r>
       <r>   16.7551    0.0000 </r>
      </set>
      <set comment="kpoint 11">
       <r>  -68.6490    1.0000 </r>
       <r>  -68.6450    1.0000 </r>
       <r>  -68.6336    1.0000 </r>
       <r>  -68.6303    1.0000 </r>
       <r>  -68.6177    1.0000 </r>
       <r>  -68.6136    1.0000 </r>
       <r>  -68.5996    1.0000 </r>
       <r>  -68.5966    1.0000 </r>
       <r>  -68.5780    1.0000 </r>
       <r>  -68.5743    1.0000 </r>
       <r>  -68.5616    1.0000 </r>
       <r>  -68.5580    1.0000 </r>
       <r>  -12.6149    1.0000 </r>
       <r>  -11.4248    1.0000 </r>
       <r>  -10.7783    1.0000 </r>
       <r>  -10.6070    1.0000 </r>
       <r>  -10.2558    1.0000 </r>
       <r>  -10.2394    1.0000 </r>
       <r>   -5.8284    1.0000 </r>
       <r>   -5.0455    1.0000 </r>
       <r>   -2.5995    1.0000 </r>
       <r>   -2.3704    1.0000 </r>
       <r>   -1.9611    1.0000 </r>
       <r>   -1.7795    1.0000 </r>
       <r>   -1.4450    1.0000 </r>
       <r>   -1.1246    1.0000 </r>
       <r>   -1.0638    1.0000 </r>
       <r>   -0.7715    1.0000 </r>
       <r>   -0.4688    1.0000 </r>
       <r>   -0.2927    1.0000 </r>
       <r>   -0.2393    1.0000 </r>
       <r>   -0.2351    1.0000 </r>
       <r>   -0.1913    1.0000 </r>
       <r>   -0.1483    1.0000 </r>
       <r>   -0.0200    1.0000 </r>
       <r>    0.0250    1.0000 </r>
       <r>    1.3326    1.0000 </r>
       <r>    1.3809    1.0000 </r>
       <r>    1.4149    1.0000 </r>
       <r>    1.4387    1.0000 </r>
       <r>    1.4641    1.0000 </r>
       <r>    1.4679    1.0000 </r>
       <r>    1.5145    1.0000 </r>
       <r>    1.5463    1.0000 </r>
       <r>    1.6322    1.0000 </r>
       <r>    1.7582    1.0000 </r>
       <r>    1.7857    1.0000 </r>
       <r>    1.9500    1.0000 </r>
       <r>    2.0896    1.0000 </r>
       <r>    2.6590    1.0000 </r>
       <r>    2.7175    1.0000 </r>
       <r>    3.1951    1.0000 </r>
       <r>    3.2533    1.0000 </r>
       <r>    3.5184    1.0000 </r>
       <r>    3.8933    1.0000 </r>
       <r>    3.9762    1.0014 </r>
       <r>    6.0460   -0.0000 </r>
       <r>    6.4171   -0.0000 </r>
       <r>    7.8269    0.0000 </r>
       <r>    7.9094    0.0000 </r>
       <r>    8.3706    0.0000 </r>
       <r>    8.8162    0.0000 </r>
       <r>    9.7740    0.0000 </r>
       <r>    9.7945    0.0000 </r>
       <r>   10.0701    0.0000 </r>
       <r>   10.5836    0.0000 </r>
       <r>   10.6416    0.0000 </r>
       <r>   10.8139    0.0000 </r>
       <r>   10.8588    0.0000 </r>
       <r>   11.4925    0.0000 </r>
       <r>   11.5583    0.0000 </r>
       <r>   12.0237    0.0000 </r>
       <r>   12.5793    0.0000 </r>
       <r>   12.7757    0.0000 </r>
       <r>   12.9115    0.0000 </r>
       <r>   13.2041    0.0000 </r>
       <r>   13.5384    0.0000 </r>
       <r>   13.8221    0.0000 </r>
       <r>   14.1967    0.0000 </r>
       <r>   14.7047    0.0000 </r>
      </set>
      <set comment="kpoint 12">
       <r>  -68.6489    1.0000 </r>
       <r>  -68.6450    1.0000 </r>
       <r>  -68.6336    1.0000 </r>
       <r>  -68.6303    1.0000 </r>
       <r>  -68.6177    1.0000 </r>
       <r>  -68.6137    1.0000 </r>
       <r>  -68.5996    1.0000 </r>
       <r>  -68.5966    1.0000 </r>
       <r>  -68.5780    1.0000 </r>
       <r>  -68.5743    1.0000 </r>
       <r>  -68.5615    1.0000 </r>
       <r>  -68.5579    1.0000 </r>
       <r>  -12.4552    1.0000 </r>
       <r>  -11.4662    1.0000 </r>
       <r>  -10.8686    1.0000 </r>
       <r>  -10.6835    1.0000 </r>
       <r>  -10.3757    1.0000 </r>
       <r>  -10.2518    1.0000 </r>
       <r>   -5.7634    1.0000 </r>
       <r>   -4.8033    1.0000 </r>
       <r>   -2.4432    1.0000 </r>
       <r>   -2.2324    1.0000 </r>
       <r>   -1.8513    1.0000 </r>
       <r>   -1.7122    1.0000 </r>
       <r>   -1.4408    1.0000 </r>
       <r>   -1.1876    1.0000 </r>
       <r>   -0.8843    1.0000 </r>
       <r>   -0.7439    1.0000 </r>
       <r>   -0.6074    1.0000 </r>
       <r>   -0.5244    1.0000 </r>
       <r>   -0.3106    1.0000 </r>
       <r>   -0.2443    1.0000 </r>
       <r>   -0.1715    1.0000 </r>
       <r>   -0.1250    1.0000 </r>
       <r>   -0.0552    1.0000 </r>
       <r>    0.0615    1.0000 </r>
       <r>    1.3014    1.0000 </r>
       <r>    1.3354    1.0000 </r>
       <r>    1.3688    1.0000 </r>
       <r>    1.4311    1.0000 </r>
       <r>    1.4450    1.0000 </r>
       <r>    1.4788    1.0000 </r>
       <r>    1.5209    1.0000 </r>
       <r>    1.5468    1.0000 </r>
       <r>    1.6446    1.0000 </r>
       <r>    1.8717    1.0000 </r>
       <r>    1.9797    1.0000 </r>
       <r>    2.0483    1.0000 </r>
       <r>    2.1939    1.0000 </r>
       <r>    2.4747    1.0000 </r>
       <r>    2.5942    1.0000 </r>
       <r>    2.8358    1.0000 </r>
       <r>    2.9629    1.0000 </r>
       <r>    3.1335    1.0000 </r>
       <r>    3.5673    1.0000 </r>
       <r>    3.7240    1.0000 </r>
       <r>    6.4416   -0.0000 </r>
       <r>    6.9574    0.0000 </r>
       <r>    8.1690    0.0000 </r>
       <r>    8.2511    0.0000 </r>
       <r>    8.8335    0.0000 </r>
       <r>    9.1306    0.0000 </r>
       <r>    9.4599    0.0000 </r>
       <r>    9.7983    0.0000 </r>
       <r>   10.0845    0.0000 </r>
       <r>   10.3031    0.0000 </r>
       <r>   10.7413    0.0000 </r>
       <r>   11.0759    0.0000 </r>
       <r>   11.2928    0.0000 </r>
       <r>   11.4267    0.0000 </r>
       <r>   11.6339    0.0000 </r>
       <r>   11.7239    0.0000 </r>
       <r>   12.0864    0.0000 </r>
       <r>   12.2688    0.0000 </r>
       <r>   12.5393    0.0000 </r>
       <r>   12.6554    0.0000 </r>
       <r>   12.9570    0.0000 </r>
       <r>   13.0602    0.0000 </r>
       <r>   13.6389    0.0000 </r>
       <r>   14.6930    0.0000 </r>
      </set>
      <set comment="kpoint 13">
       <r>  -68.6487    1.0000 </r>
       <r>  -68.6449    1.0000 </r>
       <r>  -68.6335    1.0000 </r>
       <r>  -68.6302    1.0000 </r>
       <r>  -68.6176    1.0000 </r>
       <r>  -68.6135    1.0000 </r>
       <r>  -68.5995    1.0000 </r>
       <r>  -68.5965    1.0000 </r>
       <r>  -68.5779    1.0000 </r>
       <r>  -68.5742    1.0000 </r>
       <r>  -68.5614    1.0000 </r>
       <r>  -68.5578    1.0000 </r>
       <r>  -12.3515    1.0000 </r>
       <r>  -11.4168    1.0000 </r>
       <r>  -10.9531    1.0000 </r>
       <r>  -10.6777    1.0000 </r>
       <r>  -10.4828    1.0000 </r>
       <r>  -10.3414    1.0000 </r>
       <r>   -5.7488    1.0000 </r>
       <r>   -4.7203    1.0000 </r>
       <r>   -2.5229    1.0000 </r>
       <r>   -2.1816    1.0000 </r>
       <r>   -1.9533    1.0000 </r>
       <r>   -1.5378    1.0000 </r>
       <r>   -1.3013    1.0000 </r>
       <r>   -1.1038    1.0000 </r>
       <r>   -0.8712    1.0000 </r>
       <r>   -0.7536    1.0000 </r>
       <r>   -0.5477    1.0000 </r>
       <r>   -0.4410    1.0000 </r>
       <r>   -0.2903    1.0000 </r>
       <r>   -0.1823    1.0000 </r>
       <r>   -0.1426    1.0000 </r>
       <r>   -0.1066    1.0000 </r>
       <r>   -0.0479    1.0000 </r>
       <r>    0.0214    1.0000 </r>
       <r>    1.2714    1.0000 </r>
       <r>    1.2974    1.0000 </r>
       <r>    1.3510    1.0000 </r>
       <r>    1.4292    1.0000 </r>
       <r>    1.4520    1.0000 </r>
       <r>    1.4800    1.0000 </r>
       <r>    1.5005    1.0000 </r>
       <r>    1.5881    1.0000 </r>
       <r>    1.7193    1.0000 </r>
       <r>    1.9323    1.0000 </r>
       <r>    2.0769    1.0000 </r>
       <r>    2.1462    1.0000 </r>
       <r>    2.2683    1.0000 </r>
       <r>    2.4038    1.0000 </r>
       <r>    2.5672    1.0000 </r>
       <r>    2.5981    1.0000 </r>
       <r>    2.8998    1.0000 </r>
       <r>    3.0061    1.0000 </r>
       <r>    3.3577    1.0000 </r>
       <r>    3.8991    1.0000 </r>
       <r>    6.3660   -0.0000 </r>
       <r>    6.8971   -0.0000 </r>
       <r>    7.5758    0.0000 </r>
       <r>    8.0772    0.0000 </r>
       <r>    8.5452    0.0000 </r>
       <r>    8.8079    0.0000 </r>
       <r>    9.2791    0.0000 </r>
       <r>    9.6286    0.0000 </r>
       <r>    9.9291    0.0000 </r>
       <r>   10.2802    0.0000 </r>
       <r>   10.6630    0.0000 </r>
       <r>   10.9297    0.0000 </r>
       <r>   10.9697    0.0000 </r>
       <r>   11.2795    0.0000 </r>
       <r>   11.5224    0.0000 </r>
       <r>   11.7862    0.0000 </r>
       <r>   12.2518    0.0000 </r>
       <r>   12.5483    0.0000 </r>
       <r>   13.0980    0.0000 </r>
       <r>   13.5290    0.0000 </r>
       <r>   14.3027    0.0000 </r>
       <r>   14.6112    0.0000 </r>
       <r>   15.1207    0.0000 </r>
       <r>   16.2644    0.0000 </r>
      </set>
      <set comment="kpoint 14">
       <r>  -68.6490    1.0000 </r>
       <r>  -68.6450    1.0000 </r>
       <r>  -68.6336    1.0000 </r>
       <r>  -68.6303    1.0000 </r>
       <r>  -68.6177    1.0000 </r>
       <r>  -68.6136    1.0000 </r>
       <r>  -68.5996    1.0000 </r>
       <r>  -68.5966    1.0000 </r>
       <r>  -68.5780    1.0000 </r>
       <r>  -68.5743    1.0000 </r>
       <r>  -68.5615    1.0000 </r>
       <r>  -68.5580    1.0000 </r>
       <r>  -12.5378    1.0000 </r>
       <r>  -11.3390    1.0000 </r>
       <r>  -10.8721    1.0000 </r>
       <r>  -10.6017    1.0000 </r>
       <r>  -10.4052    1.0000 </r>
       <r>  -10.2873    1.0000 </r>
       <r>   -5.8222    1.0000 </r>
       <r>   -4.9725    1.0000 </r>
       <r>   -2.6650    1.0000 </r>
       <r>   -2.4511    1.0000 </r>
       <r>   -2.0389    1.0000 </r>
       <r>   -1.5803    1.0000 </r>
       <r>   -1.1733    1.0000 </r>
       <r>   -0.9818    1.0000 </r>
       <r>   -0.7925    1.0000 </r>
       <r>   -0.6568    1.0000 </r>
       <r>   -0.5176    1.0000 </r>
       <r>   -0.3883    1.0000 </r>
       <r>   -0.2686    1.0000 </r>
       <r>   -0.2528    1.0000 </r>
       <r>   -0.1906    1.0000 </r>
       <r>   -0.1426    1.0000 </r>
       <r>   -0.0504    1.0000 </r>
       <r>    0.0118    1.0000 </r>
       <r>    1.2889    1.0000 </r>
       <r>    1.3108    1.0000 </r>
       <r>    1.3886    1.0000 </r>
       <r>    1.4089    1.0000 </r>
       <r>    1.4328    1.0000 </r>
       <r>    1.4561    1.0000 </r>
       <r>    1.4916    1.0000 </r>
       <r>    1.5639    1.0000 </r>
       <r>    1.6864    1.0000 </r>
       <r>    1.9153    1.0000 </r>
       <r>    1.9867    1.0000 </r>
       <r>    2.1466    1.0000 </r>
       <r>    2.3323    1.0000 </r>
       <r>    2.5664    1.0000 </r>
       <r>    2.6171    1.0000 </r>
       <r>    2.8284    1.0000 </r>
       <r>    2.9731    1.0000 </r>
       <r>    3.2505    1.0000 </r>
       <r>    3.6795    1.0000 </r>
       <r>    3.9429    1.0003 </r>
       <r>    6.1800   -0.0000 </r>
       <r>    6.6405   -0.0000 </r>
       <r>    7.7636    0.0000 </r>
       <r>    7.9774    0.0000 </r>
       <r>    8.2144    0.0000 </r>
       <r>    8.5646    0.0000 </r>
       <r>    9.3899    0.0000 </r>
       <r>    9.5738    0.0000 </r>
       <r>    9.8984    0.0000 </r>
       <r>   10.2546    0.0000 </r>
       <r>   10.5444    0.0000 </r>
       <r>   10.7885    0.0000 </r>
       <r>   10.8429    0.0000 </r>
       <r>   11.0686    0.0000 </r>
       <r>   11.5655    0.0000 </r>
       <r>   12.0179    0.0000 </r>
       <r>   12.5292    0.0000 </r>
       <r>   12.7550    0.0000 </r>
       <r>   12.9479    0.0000 </r>
       <r>   13.3084    0.0000 </r>
       <r>   13.4112    0.0000 </r>
       <r>   13.7412    0.0000 </r>
       <r>   13.8483    0.0000 </r>
       <r>   14.7280    0.0000 </r>
      </set>
      <set comment="kpoint 15">
       <r>  -68.6489    1.0000 </r>
       <r>  -68.6450    1.0000 </r>
       <r>  -68.6336    1.0000 </r>
       <r>  -68.6303    1.0000 </r>
       <r>  -68.6177    1.0000 </r>
       <r>  -68.6137    1.0000 </r>
       <r>  -68.5996    1.0000 </r>
       <r>  -68.5966    1.0000 </r>
       <r>  -68.5780    1.0000 </r>
       <r>  -68.5743    1.0000 </r>
       <r>  -68.5615    1.0000 </r>
       <r>  -68.5579    1.0000 </r>
       <r>  -12.4556    1.0000 </r>
       <r>  -11.4668    1.0000 </r>
       <r>  -10.8603    1.0000 </r>
       <r>  -10.6899    1.0000 </r>
       <r>  -10.3790    1.0000 </r>
       <r>  -10.2491    1.0000 </r>
       <r>   -5.7648    1.0000 </r>
       <r>   -4.8039    1.0000 </r>
       <r>   -2.4447    1.0000 </r>
       <r>   -2.2333    1.0000 </r>
       <r>   -1.8486    1.0000 </r>
       <r>   -1.7083    1.0000 </r>
       <r>   -1.4328    1.0000 </r>
       <r>   -1.1847    1.0000 </r>
       <r>   -0.8875    1.0000 </r>
       <r>   -0.7526    1.0000 </r>
       <r>   -0.6056    1.0000 </r>
       <r>   -0.5233    1.0000 </r>
       <r>   -0.3132    1.0000 </r>
       <r>   -0.2466    1.0000 </r>
       <r>   -0.1748    1.0000 </r>
       <r>   -0.1218    1.0000 </r>
       <r>   -0.0545    1.0000 </r>
       <r>    0.0631    1.0000 </r>
       <r>    1.3013    1.0000 </r>
       <r>    1.3355    1.0000 </r>
       <r>    1.3685    1.0000 </r>
       <r>    1.4322    1.0000 </r>
       <r>    1.4451    1.0000 </r>
       <r>    1.4785    1.0000 </r>
       <r>    1.5206    1.0000 </r>
       <r>    1.5474    1.0000 </r>
       <r>    1.6435    1.0000 </r>
       <r>    1.8692    1.0000 </r>
       <r>    1.9803    1.0000 </r>
       <r>    2.0482    1.0000 </r>
       <r>    2.1947    1.0000 </r>
       <r>    2.4752    1.0000 </r>
       <r>    2.5952    1.0000 </r>
       <r>    2.8359    1.0000 </r>
       <r>    2.9589    1.0000 </r>
       <r>    3.1318    1.0000 </r>
       <r>    3.5686    1.0000 </r>
       <r>    3.7240    1.0000 </r>
       <r>    6.4417   -0.0000 </r>
       <r>    6.9575    0.0000 </r>
       <r>    8.1747    0.0000 </r>
       <r>    8.2430    0.0000 </r>
       <r>    8.8393    0.0000 </r>
       <r>    9.1290    0.0000 </r>
       <r>    9.4619    0.0000 </r>
       <r>    9.7960    0.0000 </r>
       <r>   10.0867    0.0000 </r>
       <r>   10.3054    0.0000 </r>
       <r>   10.7400    0.0000 </r>
       <r>   11.0799    0.0000 </r>
       <r>   11.2896    0.0000 </r>
       <r>   11.4233    0.0000 </r>
       <r>   11.6325    0.0000 </r>
       <r>   11.7261    0.0000 </r>
       <r>   12.0867    0.0000 </r>
       <r>   12.2671    0.0000 </r>
       <r>   12.5403    0.0000 </r>
       <r>   12.6579    0.0000 </r>
       <r>   12.9561    0.0000 </r>
       <r>   13.0592    0.0000 </r>
       <r>   13.6543    0.0000 </r>
       <r>   14.6954    0.0000 </r>
      </set>
      <set comment="kpoint 16">
       <r>  -68.6488    1.0000 </r>
       <r>  -68.6449    1.0000 </r>
       <r>  -68.6334    1.0000 </r>
       <r>  -68.6301    1.0000 </r>
       <r>  -68.6176    1.0000 </r>
       <r>  -68.6135    1.0000 </r>
       <r>  -68.5995    1.0000 </r>
       <r>  -68.5964    1.0000 </r>
       <r>  -68.5779    1.0000 </r>
       <r>  -68.5742    1.0000 </r>
       <r>  -68.5614    1.0000 </r>
       <r>  -68.5578    1.0000 </r>
       <r>  -12.3225    1.0000 </r>
       <r>  -11.4764    1.0000 </r>
       <r>  -10.8667    1.0000 </r>
       <r>  -10.8536    1.0000 </r>
       <r>  -10.4027    1.0000 </r>
       <r>  -10.2975    1.0000 </r>
       <r>   -5.7454    1.0000 </r>
       <r>   -4.6912    1.0000 </r>
       <r>   -2.2420    1.0000 </r>
       <r>   -2.1361    1.0000 </r>
       <r>   -1.9234    1.0000 </r>
       <r>   -1.8538    1.0000 </r>
       <r>   -1.4575    1.0000 </r>
       <r>   -1.3947    1.0000 </r>
       <r>   -1.0373    1.0000 </r>
       <r>   -0.5157    1.0000 </r>
       <r>   -0.4625    1.0000 </r>
       <r>   -0.3470    1.0000 </r>
       <r>   -0.2522    1.0000 </r>
       <r>   -0.2191    1.0000 </r>
       <r>   -0.1620    1.0000 </r>
       <r>   -0.1138    1.0000 </r>
       <r>   -0.0915    1.0000 </r>
       <r>    0.0815    1.0000 </r>
       <r>    1.2610    1.0000 </r>
       <r>    1.3464    1.0000 </r>
       <r>    1.3983    1.0000 </r>
       <r>    1.4345    1.0000 </r>
       <r>    1.4525    1.0000 </r>
       <r>    1.5099    1.0000 </r>
       <r>    1.5347    1.0000 </r>
       <r>    1.5418    1.0000 </r>
       <r>    1.7541    1.0000 </r>
       <r>    1.8173    1.0000 </r>
       <r>    2.0413    1.0000 </r>
       <r>    2.1358    1.0000 </r>
       <r>    2.2837    1.0000 </r>
       <r>    2.3123    1.0000 </r>
       <r>    2.5192    1.0000 </r>
       <r>    2.7702    1.0000 </r>
       <r>    2.8949    1.0000 </r>
       <r>    3.2578    1.0000 </r>
       <r>    3.4972    1.0000 </r>
       <r>    3.8000    1.0000 </r>
       <r>    6.1841   -0.0000 </r>
       <r>    6.8409   -0.0000 </r>
       <r>    7.8256    0.0000 </r>
       <r>    8.0468    0.0000 </r>
       <r>    8.1922    0.0000 </r>
       <r>    8.7341    0.0000 </r>
       <r>    9.1492    0.0000 </r>
       <r>    9.3084    0.0000 </r>
       <r>   10.2205    0.0000 </r>
       <r>   10.4426    0.0000 </r>
       <r>   10.5912    0.0000 </r>
       <r>   11.0054    0.0000 </r>
       <r>   11.2361    0.0000 </r>
       <r>   11.4924    0.0000 </r>
       <r>   11.8145    0.0000 </r>
       <r>   12.1704    0.0000 </r>
       <r>   12.2071    0.0000 </r>
       <r>   12.5707    0.0000 </r>
       <r>   12.6913    0.0000 </r>
       <r>   13.1164    0.0000 </r>
       <r>   13.4178    0.0000 </r>
       <r>   13.8828    0.0000 </r>
       <r>   14.0046    0.0000 </r>
       <r>   14.5269    0.0000 </r>
      </set>
      <set comment="kpoint 17">
       <r>  -68.6487    1.0000 </r>
       <r>  -68.6448    1.0000 </r>
       <r>  -68.6335    1.0000 </r>
       <r>  -68.6302    1.0000 </r>
       <r>  -68.6175    1.0000 </r>
       <r>  -68.6136    1.0000 </r>
       <r>  -68.5995    1.0000 </r>
       <r>  -68.5965    1.0000 </r>
       <r>  -68.5779    1.0000 </r>
       <r>  -68.5743    1.0000 </r>
       <r>  -68.5614    1.0000 </r>
       <r>  -68.5578    1.0000 </r>
       <r>  -12.3679    1.0000 </r>
       <r>  -11.4797    1.0000 </r>
       <r>  -10.9346    1.0000 </r>
       <r>  -10.6452    1.0000 </r>
       <r>  -10.4311    1.0000 </r>
       <r>  -10.3059    1.0000 </r>
       <r>   -5.7982    1.0000 </r>
       <r>   -4.8337    1.0000 </r>
       <r>   -2.5264    1.0000 </r>
       <r>   -2.2425    1.0000 </r>
       <r>   -1.8732    1.0000 </r>
       <r>   -1.6446    1.0000 </r>
       <r>   -1.5067    1.0000 </r>
       <r>   -1.3114    1.0000 </r>
       <r>   -0.9006    1.0000 </r>
       <r>   -0.5303    1.0000 </r>
       <r>   -0.3781    1.0000 </r>
       <r>   -0.3499    1.0000 </r>
       <r>   -0.2219    1.0000 </r>
       <r>   -0.1783    1.0000 </r>
       <r>   -0.1605    1.0000 </r>
       <r>   -0.0752    1.0000 </r>
       <r>   -0.0291    1.0000 </r>
       <r>    0.0772    1.0000 </r>
       <r>    1.1894    1.0000 </r>
       <r>    1.3628    1.0000 </r>
       <r>    1.3967    1.0000 </r>
       <r>    1.4421    1.0000 </r>
       <r>    1.4635    1.0000 </r>
       <r>    1.5065    1.0000 </r>
       <r>    1.5180    1.0000 </r>
       <r>    1.5853    1.0000 </r>
       <r>    1.7390    1.0000 </r>
       <r>    1.8177    1.0000 </r>
       <r>    2.0358    1.0000 </r>
       <r>    2.2366    1.0000 </r>
       <r>    2.2712    1.0000 </r>
       <r>    2.3636    1.0000 </r>
       <r>    2.4871    1.0000 </r>
       <r>    2.6692    1.0000 </r>
       <r>    3.0548    1.0000 </r>
       <r>    3.4127    1.0000 </r>
       <r>    3.7259    1.0000 </r>
       <r>    3.8596    1.0000 </r>
       <r>    5.9337   -0.0000 </r>
       <r>    6.6161   -0.0000 </r>
       <r>    7.3535    0.0000 </r>
       <r>    7.9388    0.0000 </r>
       <r>    8.0681    0.0000 </r>
       <r>    8.7296    0.0000 </r>
       <r>    8.9092    0.0000 </r>
       <r>    9.1382    0.0000 </r>
       <r>    9.8455    0.0000 </r>
       <r>   10.3279    0.0000 </r>
       <r>   10.5531    0.0000 </r>
       <r>   10.9254    0.0000 </r>
       <r>   11.2247    0.0000 </r>
       <r>   11.4172    0.0000 </r>
       <r>   11.7456    0.0000 </r>
       <r>   12.0028    0.0000 </r>
       <r>   12.4945    0.0000 </r>
       <r>   12.8288    0.0000 </r>
       <r>   13.2064    0.0000 </r>
       <r>   14.1819    0.0000 </r>
       <r>   14.7131    0.0000 </r>
       <r>   15.1707    0.0000 </r>
       <r>   15.9210    0.0000 </r>
       <r>   16.5646    0.0000 </r>
      </set>
      <set comment="kpoint 18">
       <r>  -68.6489    1.0000 </r>
       <r>  -68.6449    1.0000 </r>
       <r>  -68.6336    1.0000 </r>
       <r>  -68.6303    1.0000 </r>
       <r>  -68.6176    1.0000 </r>
       <r>  -68.6136    1.0000 </r>
       <r>  -68.5996    1.0000 </r>
       <r>  -68.5966    1.0000 </r>
       <r>  -68.5779    1.0000 </r>
       <r>  -68.5743    1.0000 </r>
       <r>  -68.5615    1.0000 </r>
       <r>  -68.5579    1.0000 </r>
       <r>  -12.4959    1.0000 </r>
       <r>  -11.4292    1.0000 </r>
       <r>  -10.9437    1.0000 </r>
       <r>  -10.5768    1.0000 </r>
       <r>  -10.3873    1.0000 </r>
       <r>  -10.2077    1.0000 </r>
       <r>   -5.8267    1.0000 </r>
       <r>   -4.9377    1.0000 </r>
       <r>   -2.5720    1.0000 </r>
       <r>   -2.3668    1.0000 </r>
       <r>   -1.9172    1.0000 </r>
       <r>   -1.5953    1.0000 </r>
       <r>   -1.4123    1.0000 </r>
       <r>   -1.1266    1.0000 </r>
       <r>   -0.8134    1.0000 </r>
       <r>   -0.6758    1.0000 </r>
       <r>   -0.5328    1.0000 </r>
       <r>   -0.4682    1.0000 </r>
       <r>   -0.2532    1.0000 </r>
       <r>   -0.1987    1.0000 </r>
       <r>   -0.1681    1.0000 </r>
       <r>   -0.1194    1.0000 </r>
       <r>   -0.0344    1.0000 </r>
       <r>    0.0563    1.0000 </r>
       <r>    1.2801    1.0000 </r>
       <r>    1.3229    1.0000 </r>
       <r>    1.3446    1.0000 </r>
       <r>    1.4338    1.0000 </r>
       <r>    1.4521    1.0000 </r>
       <r>    1.4681    1.0000 </r>
       <r>    1.4934    1.0000 </r>
       <r>    1.5568    1.0000 </r>
       <r>    1.7256    1.0000 </r>
       <r>    1.8421    1.0000 </r>
       <r>    1.9695    1.0000 </r>
       <r>    2.0995    1.0000 </r>
       <r>    2.3369    1.0000 </r>
       <r>    2.4476    1.0000 </r>
       <r>    2.5388    1.0000 </r>
       <r>    2.8510    1.0000 </r>
       <r>    3.0526    1.0000 </r>
       <r>    3.2664    1.0000 </r>
       <r>    3.6695    1.0000 </r>
       <r>    3.7818    1.0000 </r>
       <r>    6.2628   -0.0000 </r>
       <r>    6.8012   -0.0000 </r>
       <r>    7.8141    0.0000 </r>
       <r>    8.1386    0.0000 </r>
       <r>    8.3344    0.0000 </r>
       <r>    8.9280    0.0000 </r>
       <r>    9.3486    0.0000 </r>
[...]
       <r>   11.7069    0.0000 </r>
       <r>   11.8925    0.0000 </r>
       <r>   12.2944    0.0000 </r>
       <r>   12.6552    0.0000 </r>
       <r>   13.0072    0.0000 </r>
       <r>   13.2335    0.0000 </r>
       <r>   13.6689    0.0000 </r>
       <r>   14.0677    0.0000 </r>
       <r>   14.3933    0.0000 </r>
       <r>   16.5173    0.0000 </r>
      </set>
      <set comment="kpoint 42">
       <r>  -68.6489    1.0000 </r>
       <r>  -68.6449    1.0000 </r>
       <r>  -68.6333    1.0000 </r>
       <r>  -68.6301    1.0000 </r>
       <r>  -68.6175    1.0000 </r>
       <r>  -68.6136    1.0000 </r>
       <r>  -68.5994    1.0000 </r>
       <r>  -68.5964    1.0000 </r>
       <r>  -68.5779    1.0000 </r>
       <r>  -68.5742    1.0000 </r>
       <r>  -68.5615    1.0000 </r>
       <r>  -68.5579    1.0000 </r>
       <r>  -12.1758    1.0000 </r>
       <r>  -11.7024    1.0000 </r>
       <r>  -10.7193    1.0000 </r>
       <r>  -10.6977    1.0000 </r>
       <r>  -10.5836    1.0000 </r>
       <r>  -10.3978    1.0000 </r>
       <r>   -5.4439    1.0000 </r>
       <r>   -5.0709    1.0000 </r>
       <r>   -2.5063    1.0000 </r>
       <r>   -2.3778    1.0000 </r>
       <r>   -1.9660    1.0000 </r>
       <r>   -1.3618    1.0000 </r>
       <r>   -1.3311    1.0000 </r>
       <r>   -1.0551    1.0000 </r>
       <r>   -0.8326    1.0000 </r>
       <r>   -0.7749    1.0000 </r>
       <r>   -0.4196    1.0000 </r>
       <r>   -0.3372    1.0000 </r>
       <r>   -0.2698    1.0000 </r>
       <r>   -0.2083    1.0000 </r>
       <r>   -0.1437    1.0000 </r>
       <r>   -0.1409    1.0000 </r>
       <r>   -0.0139    1.0000 </r>
       <r>    0.0271    1.0000 </r>
       <r>    1.1729    1.0000 </r>
       <r>    1.3712    1.0000 </r>
       <r>    1.3968    1.0000 </r>
       <r>    1.4520    1.0000 </r>
       <r>    1.4539    1.0000 </r>
       <r>    1.4993    1.0000 </r>
       <r>    1.5172    1.0000 </r>
       <r>    1.5482    1.0000 </r>
       <r>    1.7434    1.0000 </r>
       <r>    1.8208    1.0000 </r>
       <r>    1.9725    1.0000 </r>
       <r>    2.2250    1.0000 </r>
       <r>    2.3992    1.0000 </r>
       <r>    2.6146    1.0000 </r>
       <r>    2.6531    1.0000 </r>
       <r>    2.9153    1.0000 </r>
       <r>    3.0699    1.0000 </r>
       <r>    3.1188    1.0000 </r>
       <r>    3.2836    1.0000 </r>
       <r>    3.5786    1.0000 </r>
       <r>    6.2904   -0.0000 </r>
       <r>    6.3818   -0.0000 </r>
       <r>    7.3569    0.0000 </r>
       <r>    7.5245    0.0000 </r>
       <r>    8.3103    0.0000 </r>
       <r>    8.3392    0.0000 </r>
       <r>    9.1060    0.0000 </r>
       <r>    9.3593    0.0000 </r>
       <r>    9.7171    0.0000 </r>
       <r>    9.9492    0.0000 </r>
       <r>   10.5235    0.0000 </r>
       <r>   10.9888    0.0000 </r>
       <r>   11.4235    0.0000 </r>
       <r>   11.5656    0.0000 </r>
       <r>   12.0189    0.0000 </r>
       <r>   12.2858    0.0000 </r>
       <r>   12.4268    0.0000 </r>
       <r>   12.4755    0.0000 </r>
       <r>   13.0337    0.0000 </r>
       <r>   13.1489    0.0000 </r>
       <r>   14.1405    0.0000 </r>
       <r>   14.4365    0.0000 </r>
       <r>   15.1633    0.0000 </r>
       <r>   15.8697    0.0000 </r>
      </set>
     </set>
    </set>
   </array>
  </eigenvalues>
  <separator name="orbital magnetization" >
   <v name="MAGDIPOLOUT">      0.00000000      0.00000000      0.00000000</v>
  </separator>
  <dos>
   <i name="efermi">      4.22109187 </i>
   <total>
    <array>
     <dimension dim="1">gridpoints</dimension>
     <dimension dim="2">spin</dimension>
     <field>energy</field>
     <field>total</field>
     <field>integrated</field>
     <set>
      <set comment="spin 1">
       <r>   -72.8301     0.0000     0.0000 </r>
       <r>   -72.5238     0.0000     0.0000 </r>
       <r>   -72.2174     0.0000     0.0000 </r>
       <r>   -71.9110     0.0000     0.0000 </r>
       <r>   -71.6046     0.0000     0.0000 </r>
       <r>   -71.2982     0.0000     0.0000 </r>
       <r>   -70.9918     0.0000     0.0000 </r>
       <r>   -70.6855     0.0000     0.0000 </r>
       <r>   -70.3791     0.0000     0.0000 </r>
       <r>   -70.0727     0.0000     0.0000 </r>
       <r>   -69.7663     0.0000     0.0000 </r>
       <r>   -69.4599    -0.0000    -0.0000 </r>
       <r>   -69.1536    -0.0000    -0.0000 </r>
       <r>   -68.8472    -0.2221    -0.0681 </r>
       <r>   -68.5408    70.2058    21.4417 </r>
       <r>   -68.2344     8.3506    24.0001 </r>
       <r>   -67.9280    -0.0004    24.0000 </r>
       <r>   -67.6217     0.0000    24.0000 </r>
       <r>   -67.3153     0.0000    24.0000 </r>
       <r>   -67.0089     0.0000    24.0000 </r>
       <r>   -66.7025     0.0000    24.0000 </r>
       <r>   -66.3961     0.0000    24.0000 </r>
       <r>   -66.0898     0.0000    24.0000 </r>
       <r>   -65.7834     0.0000    24.0000 </r>
       <r>   -65.4770     0.0000    24.0000 </r>
       <r>   -65.1706     0.0000    24.0000 </r>
       <r>   -64.8642     0.0000    24.0000 </r>
       <r>   -64.5578     0.0000    24.0000 </r>
       <r>   -64.2515     0.0000    24.0000 </r>
       <r>   -63.9451     0.0000    24.0000 </r>
       <r>   -63.6387     0.0000    24.0000 </r>
       <r>   -63.3323     0.0000    24.0000 </r>
       <r>   -63.0259     0.0000    24.0000 </r>
       <r>   -62.7196     0.0000    24.0000 </r>
       <r>   -62.4132     0.0000    24.0000 </r>
       <r>   -62.1068     0.0000    24.0000 </r>
       <r>   -61.8004     0.0000    24.0000 </r>
       <r>   -61.4940     0.0000    24.0000 </r>
       <r>   -61.1877     0.0000    24.0000 </r>
       <r>   -60.8813     0.0000    24.0000 </r>
       <r>   -60.5749     0.0000    24.0000 </r>
       <r>   -60.2685     0.0000    24.0000 </r>
       <r>   -59.9621     0.0000    24.0000 </r>
       <r>   -59.6557     0.0000    24.0000 </r>
       <r>   -59.3494     0.0000    24.0000 </r>
       <r>   -59.0430     0.0000    24.0000 </r>
       <r>   -58.7366     0.0000    24.0000 </r>
       <r>   -58.4302     0.0000    24.0000 </r>
       <r>   -58.1238     0.0000    24.0000 </r>
       <r>   -57.8175     0.0000    24.0000 </r>
       <r>   -57.5111     0.0000    24.0000 </r>
       <r>   -57.2047     0.0000    24.0000 </r>
       <r>   -56.8983     0.0000    24.0000 </r>
       <r>   -56.5919     0.0000    24.0000 </r>
       <r>   -56.2856     0.0000    24.0000 </r>
       <r>   -55.9792     0.0000    24.0000 </r>
       <r>   -55.6728     0.0000    24.0000 </r>
       <r>   -55.3664     0.0000    24.0000 </r>
       <r>   -55.0600     0.0000    24.0000 </r>
       <r>   -54.7537     0.0000    24.0000 </r>
       <r>   -54.4473     0.0000    24.0000 </r>
       <r>   -54.1409     0.0000    24.0000 </r>
       <r>   -53.8345     0.0000    24.0000 </r>
       <r>   -53.5281     0.0000    24.0000 </r>
       <r>   -53.2217     0.0000    24.0000 </r>
       <r>   -52.9154     0.0000    24.0000 </r>
       <r>   -52.6090     0.0000    24.0000 </r>
       <r>   -52.3026     0.0000    24.0000 </r>
       <r>   -51.9962     0.0000    24.0000 </r>
       <r>   -51.6898     0.0000    24.0000 </r>
       <r>   -51.3835     0.0000    24.0000 </r>
       <r>   -51.0771     0.0000    24.0000 </r>
       <r>   -50.7707     0.0000    24.0000 </r>
       <r>   -50.4643     0.0000    24.0000 </r>
       <r>   -50.1579     0.0000    24.0000 </r>
       <r>   -49.8516     0.0000    24.0000 </r>
       <r>   -49.5452     0.0000    24.0000 </r>
       <r>   -49.2388     0.0000    24.0000 </r>
       <r>   -48.9324     0.0000    24.0000 </r>
       <r>   -48.6260     0.0000    24.0000 </r>
       <r>   -48.3197     0.0000    24.0000 </r>
       <r>   -48.0133     0.0000    24.0000 </r>
       <r>   -47.7069     0.0000    24.0000 </r>
       <r>   -47.4005     0.0000    24.0000 </r>
       <r>   -47.0941     0.0000    24.0000 </r>
       <r>   -46.7877     0.0000    24.0000 </r>
       <r>   -46.4814     0.0000    24.0000 </r>
       <r>   -46.1750     0.0000    24.0000 </r>
       <r>   -45.8686     0.0000    24.0000 </r>
       <r>   -45.5622     0.0000    24.0000 </r>
       <r>   -45.2558     0.0000    24.0000 </r>
       <r>   -44.9495     0.0000    24.0000 </r>
       <r>   -44.6431     0.0000    24.0000 </r>
       <r>   -44.3367     0.0000    24.0000 </r>
       <r>   -44.0303     0.0000    24.0000 </r>
       <r>   -43.7239     0.0000    24.0000 </r>
       <r>   -43.4176     0.0000    24.0000 </r>
       <r>   -43.1112     0.0000    24.0000 </r>
       <r>   -42.8048     0.0000    24.0000 </r>
       <r>   -42.4984     0.0000    24.0000 </r>
       <r>   -42.1920     0.0000    24.0000 </r>
       <r>   -41.8856     0.0000    24.0000 </r>
       <r>   -41.5793     0.0000    24.0000 </r>
       <r>   -41.2729     0.0000    24.0000 </r>
       <r>   -40.9665     0.0000    24.0000 </r>
       <r>   -40.6601     0.0000    24.0000 </r>
       <r>   -40.3537     0.0000    24.0000 </r>
       <r>   -40.0474     0.0000    24.0000 </r>
       <r>   -39.7410     0.0000    24.0000 </r>
       <r>   -39.4346     0.0000    24.0000 </r>
       <r>   -39.1282     0.0000    24.0000 </r>
       <r>   -38.8218     0.0000    24.0000 </r>
       <r>   -38.5155     0.0000    24.0000 </r>
       <r>   -38.2091     0.0000    24.0000 </r>
       <r>   -37.9027     0.0000    24.0000 </r>
       <r>   -37.5963     0.0000    24.0000 </r>
       <r>   -37.2899     0.0000    24.0000 </r>
       <r>   -36.9836     0.0000    24.0000 </r>
       <r>   -36.6772     0.0000    24.0000 </r>
       <r>   -36.3708     0.0000    24.0000 </r>
       <r>   -36.0644     0.0000    24.0000 </r>
       <r>   -35.7580     0.0000    24.0000 </r>
       <r>   -35.4516     0.0000    24.0000 </r>
       <r>   -35.1453     0.0000    24.0000 </r>
       <r>   -34.8389     0.0000    24.0000 </r>
       <r>   -34.5325     0.0000    24.0000 </r>
       <r>   -34.2261     0.0000    24.0000 </r>
       <r>   -33.9197     0.0000    24.0000 </r>
       <r>   -33.6134     0.0000    24.0000 </r>
       <r>   -33.3070     0.0000    24.0000 </r>
       <r>   -33.0006     0.0000    24.0000 </r>
       <r>   -32.6942     0.0000    24.0000 </r>
       <r>   -32.3878     0.0000    24.0000 </r>
       <r>   -32.0815     0.0000    24.0000 </r>
       <r>   -31.7751     0.0000    24.0000 </r>
       <r>   -31.4687     0.0000    24.0000 </r>
       <r>   -31.1623     0.0000    24.0000 </r>
       <r>   -30.8559     0.0000    24.0000 </r>
       <r>   -30.5496     0.0000    24.0000 </r>
       <r>   -30.2432     0.0000    24.0000 </r>
       <r>   -29.9368     0.0000    24.0000 </r>
       <r>   -29.6304     0.0000    24.0000 </r>
       <r>   -29.3240     0.0000    24.0000 </r>
       <r>   -29.0176     0.0000    24.0000 </r>
       <r>   -28.7113     0.0000    24.0000 </r>
       <r>   -28.4049     0.0000    24.0000 </r>
       <r>   -28.0985     0.0000    24.0000 </r>
       <r>   -27.7921     0.0000    24.0000 </r>
       <r>   -27.4857     0.0000    24.0000 </r>
       <r>   -27.1794     0.0000    24.0000 </r>
       <r>   -26.8730     0.0000    24.0000 </r>
       <r>   -26.5666     0.0000    24.0000 </r>
       <r>   -26.2602     0.0000    24.0000 </r>
       <r>   -25.9538     0.0000    24.0000 </r>
       <r>   -25.6475     0.0000    24.0000 </r>
       <r>   -25.3411     0.0000    24.0000 </r>
       <r>   -25.0347     0.0000    24.0000 </r>
       <r>   -24.7283     0.0000    24.0000 </r>
       <r>   -24.4219     0.0000    24.0000 </r>
       <r>   -24.1155     0.0000    24.0000 </r>
       <r>   -23.8092     0.0000    24.0000 </r>
       <r>   -23.5028     0.0000    24.0000 </r>
       <r>   -23.1964     0.0000    24.0000 </r>
       <r>   -22.8900     0.0000    24.0000 </r>
       <r>   -22.5836     0.0000    24.0000 </r>
       <r>   -22.2773     0.0000    24.0000 </r>
       <r>   -21.9709     0.0000    24.0000 </r>
       <r>   -21.6645     0.0000    24.0000 </r>
       <r>   -21.3581     0.0000    24.0000 </r>
       <r>   -21.0517     0.0000    24.0000 </r>
       <r>   -20.7454     0.0000    24.0000 </r>
       <r>   -20.4390     0.0000    24.0000 </r>
       <r>   -20.1326     0.0000    24.0000 </r>
       <r>   -19.8262     0.0000    24.0000 </r>
       <r>   -19.5198     0.0000    24.0000 </r>
       <r>   -19.2135     0.0000    24.0000 </r>
       <r>   -18.9071     0.0000    24.0000 </r>
       <r>   -18.6007     0.0000    24.0000 </r>
       <r>   -18.2943     0.0000    24.0000 </r>
       <r>   -17.9879     0.0000    24.0000 </r>
       <r>   -17.6815     0.0000    24.0000 </r>
       <r>   -17.3752     0.0000    24.0000 </r>
       <r>   -17.0688     0.0000    24.0000 </r>
       <r>   -16.7624     0.0000    24.0000 </r>
       <r>   -16.4560     0.0000    24.0000 </r>
       <r>   -16.1496     0.0000    24.0000 </r>
       <r>   -15.8433     0.0000    24.0000 </r>
       <r>   -15.5369     0.0000    24.0000 </r>
       <r>   -15.2305     0.0000    24.0000 </r>
       <r>   -14.9241     0.0000    24.0000 </r>
       <r>   -14.6177     0.0000    24.0000 </r>
       <r>   -14.3114     0.0000    24.0000 </r>
       <r>   -14.0050     0.0000    24.0000 </r>
       <r>   -13.6986    -0.0000    24.0000 </r>
       <r>   -13.3922    -0.0000    24.0000 </r>
       <r>   -13.0858    -0.0000    24.0000 </r>
       <r>   -12.7795    -0.0040    23.9988 </r>
       <r>   -12.4731     1.5015    24.4588 </r>
       <r>   -12.1667     3.5778    25.5550 </r>
       <r>   -11.8603     1.9294    26.1461 </r>
       <r>   -11.5539     2.1812    26.8144 </r>
       <r>   -11.2475     3.2040    27.7960 </r>
       <r>   -10.9412     2.4368    28.5426 </r>
       <r>   -10.6348     9.3313    31.4015 </r>
       <r>   -10.3284     9.6634    34.3622 </r>
       <r>   -10.0220     5.3624    36.0052 </r>
       <r>    -9.7156    -0.0169    36.0000 </r>
       <r>    -9.4093    -0.0000    36.0000 </r>
       <r>    -9.1029     0.0000    36.0000 </r>
       <r>    -8.7965     0.0000    36.0000 </r>
       <r>    -8.4901     0.0000    36.0000 </r>
       <r>    -8.1837     0.0000    36.0000 </r>
       <r>    -7.8774     0.0000    36.0000 </r>
       <r>    -7.5710     0.0000    36.0000 </r>
       <r>    -7.2646     0.0000    36.0000 </r>
       <r>    -6.9582    -0.0000    36.0000 </r>
       <r>    -6.6518    -0.0000    36.0000 </r>
       <r>    -6.3454    -0.0000    36.0000 </r>
       <r>    -6.0391     0.0487    36.0149 </r>
       <r>    -5.7327     3.4700    37.0781 </r>
       <r>    -5.4263     2.0536    37.7072 </r>
       <r>    -5.1199     1.8875    38.2855 </r>
       <r>    -4.8135     3.3040    39.2978 </r>
       <r>    -4.5072     2.2261    39.9799 </r>
       <r>    -4.2008     0.0657    40.0000 </r>
       <r>    -3.8944    -0.0000    40.0000 </r>
       <r>    -3.5880    -0.0000    40.0000 </r>
       <r>    -3.2816    -0.0000    40.0000 </r>
       <r>    -2.9753    -0.0004    39.9999 </r>
       <r>    -2.6689     0.3632    40.1112 </r>
       <r>    -2.3625     6.1261    41.9881 </r>
       <r>    -2.0561     6.7272    44.0491 </r>
       <r>    -1.7497     7.3501    46.3011 </r>
       <r>    -1.4434     6.4358    48.2729 </r>
       <r>    -1.1370     8.7643    50.9581 </r>
       <r>    -0.8306     9.0765    53.7390 </r>
       <r>    -0.5242    11.3020    57.2017 </r>
       <r>    -0.2178    18.2066    62.7798 </r>
       <r>     0.0886    28.9589    71.6523 </r>
       <r>     0.3949     1.1355    72.0002 </r>
       <r>     0.7013    -0.0006    72.0000 </r>
       <r>     1.0077    -0.0203    71.9938 </r>
       <r>     1.3141     7.4799    74.2855 </r>
       <r>     1.6205    44.7635    88.0001 </r>
       <r>     1.9268    13.8162    92.2331 </r>
       <r>     2.2332    13.1816    96.2718 </r>
       <r>     2.5396    12.8692   100.2146 </r>
       <r>     2.8460    11.1478   103.6301 </r>
       <r>     3.1524     9.0672   106.4081 </r>
       <r>     3.4587     7.9323   108.8384 </r>
       <r>     3.7651     6.9294   110.9615 </r>
       <r>     4.0715     3.1520   111.9272 </r>
       <r>     4.3779     0.2382   112.0002 </r>
       <r>     4.6843    -0.0005   112.0000 </r>
       <r>     4.9907    -0.0000   112.0000 </r>
       <r>     5.2970    -0.0001   112.0000 </r>
       <r>     5.6034     0.0769   112.0235 </r>
       <r>     5.9098     0.1663   112.0745 </r>
       <r>     6.2162     2.6346   112.8817 </r>
       <r>     6.5226     4.3695   114.2204 </r>
       <r>     6.8289     3.4469   115.2764 </r>
       <r>     7.1353     2.4286   116.0205 </r>
       <r>     7.4417     1.4327   116.4595 </r>
       <r>     7.7481     3.1839   117.4349 </r>
       <r>     8.0545     5.5445   119.1337 </r>
       <r>     8.3608     5.4986   120.8183 </r>
       <r>     8.6672     4.6305   122.2370 </r>
       <r>     8.9736     4.5207   123.6221 </r>
       <r>     9.2800     5.5542   125.3238 </r>
       <r>     9.5864     5.7167   127.0753 </r>
       <r>     9.8927     4.8125   128.5497 </r>
       <r>    10.1991     4.4039   129.8990 </r>
       <r>    10.5055     6.5241   131.8979 </r>
       <r>    10.8119     8.2714   134.4321 </r>
       <r>    11.1183     8.2698   136.9658 </r>
       <r>    11.4247     7.9831   139.4117 </r>
       <r>    11.7310     7.9233   141.8392 </r>
       <r>    12.0374     6.5544   143.8474 </r>
       <r>    12.3438     5.8437   145.6378 </r>
       <r>    12.6502     6.6787   147.6840 </r>
       <r>    12.9566     5.7669   149.4508 </r>
       <r>    13.2629     6.2033   151.3514 </r>
       <r>    13.5693     5.3294   152.9842 </r>
       <r>    13.8757     4.0751   154.2328 </r>
       <r>    14.1821     3.1609   155.2012 </r>
       <r>    14.4885     4.6176   156.6160 </r>
       <r>    14.7948     3.4901   157.6852 </r>
       <r>    15.1012     1.4017   158.1147 </r>
       <r>    15.4076     1.5893   158.6016 </r>
       <r>    15.7140     1.2161   158.9742 </r>
       <r>    16.0204     1.6918   159.4926 </r>
       <r>    16.3267     0.3302   159.5937 </r>
       <r>    16.6331     0.6854   159.8037 </r>
       <r>    16.9395     0.5214   159.9635 </r>
       <r>    17.2459     0.1192   160.0000 </r>
       <r>    17.5523    -0.0000   160.0000 </r>
       <r>    17.8587     0.0000   160.0000 </r>
       <r>    18.1650     0.0000   160.0000 </r>
       <r>    18.4714     0.0000   160.0000 </r>
       <r>    18.7778     0.0000   160.0000 </r>
       <r>    19.0842     0.0000   160.0000 </r>
      </set>
     </set>
    </array>
   </total>
  </dos>
 </calculation>
 <structure name="finalpos" >
  <crystal>
   <varray name="basis" >
    <v>       3.22479600      -5.64383000       0.03157200 </v>
    <v>       3.22479600       5.64383000       0.03157200 </v>
    <v>      -2.10194600       0.00000000       6.07553700 </v>
   </varray>
   <i name="volume">    221.90106089 </i>
   <varray name="rec_basis" >
    <v>       0.15452516      -0.08859232       0.05346088 </v>
    <v>       0.15452516       0.08859232       0.05346088 </v>
    <v>      -0.00160600       0.00000000       0.16403888 </v>
   </varray>
  </crystal>
  <varray name="positions" >
   <v>       0.61844300       0.12117100       0.11953300 </v>
   <v>       0.12117100       0.61844300       0.61953300 </v>
   <v>       0.96295700       0.79032200       0.11881300 </v>
   <v>       0.79032200       0.96295700       0.61881300 </v>
   <v>       0.44127040       0.26728100       0.59904700 </v>
   <v>       0.26728100       0.43973200       0.09904700 </v>
   <v>       0.07949800       0.91167500       0.49736300 </v>
   <v>       0.57140300       0.41236400       0.98018400 </v>
   <v>       0.73711100       0.25006200       0.49504900 </v>
   <v>       0.41236400       0.57140300       0.48018400 </v>
   <v>       0.91167500       0.07949800       0.99736300 </v>
   <v>       0.25006200       0.73711100       0.99504900 </v>
  </varray>
 </structure>
</modeling>
