   12   12    1    1
  0.1849176E+02  0.6500240E-09  0.6500240E-09  0.6428867E-09  0.5000000E-15
  1.000000000000000E-004
  CAR 
 CGS                                     
  112   42   80
 
  0.0000000E+00  0.0000000E+00  0.0000000E+00  0.1250000E-01
   1      -68.645405
   2      -68.644942
   3      -68.633135
   4      -68.632306
   5      -68.612920
   6      -68.612222
   7      -68.595438
   8      -68.595306
   9      -68.577014
  10      -68.576496
  11      -68.559574
  12      -68.559750
  13      -12.728119
  14      -11.129148
  15      -10.922661
  16      -10.604545
  17      -10.247246
  18      -10.223171
  19       -5.995567
  20       -4.982139
  21       -2.763420
  22       -2.217014
  23       -2.069207
  24       -1.920651
  25       -1.577439
  26       -0.981982
  27       -0.951301
  28       -0.681413
  29       -0.402283
  30       -0.277754
  31       -0.258567
  32       -0.235129
  33       -0.189732
  34       -0.155998
  35       -0.035545
  36        0.033197
  37        1.350612
  38        1.363002
  39        1.415186
  40        1.458609
  41        1.472091
  42        1.474439
  43        1.521539
  44        1.533259
  45        1.575188
  46        1.712363
  47        1.893783
  48        1.928706
  49        2.058107
  50        2.653838
  51        2.731870
  52        3.090837
  53        3.217787
  54        4.006352
  55        4.040186
  56        4.173818
  57        5.534845
  58        6.356406
  59        7.632832
  60        7.981329
  61        8.618842
  62        8.795749
  63        9.564675
  64        9.736019
  65        9.803682
  66       10.423156
  67       10.583246
  68       10.691490
  69       10.713129
  70       11.284444
  71       11.713264
  72       12.392556
  73       12.451122
  74       12.727049
  75       13.324516
  76       13.384387
  77       13.826908
  78       13.887995
  79       14.145398
  80       14.179035
 
  0.2500000E+00  0.7372575E-17  0.1387779E-16  0.2500000E-01
   1      -68.645362
   2      -68.644914
   3      -68.633093
   4      -68.632282
   5      -68.612803
   6      -68.612131
   7      -68.595476
   8      -68.595291
   9      -68.576955
  10      -68.576432
  11      -68.559515
  12      -68.559742
  13      -12.604429
  14      -11.123720
  15      -10.991907
  16      -10.672848
  17      -10.361453
  18      -10.269956
  19       -5.944089
  20       -4.772904
  21       -2.650545
  22       -2.257371
  23       -2.085643
  24       -1.688362
  25       -1.341708
  26       -0.994948
  27       -0.767785
  28       -0.621562
  29       -0.555489
  30       -0.439370
  31       -0.353742
  32       -0.243988
  33       -0.194846
  34       -0.167395
  35       -0.045094
  36        0.039723
  37        1.279990
  38        1.337109
  39        1.355689
  40        1.393219
  41        1.427915
  42        1.472647
  43        1.498886
  44        1.531840
  45        1.725080
  46        1.860470
  47        2.056421
  48        2.092741
  49        2.233227
  50        2.415544
  51        2.557991
  52        2.825735
  53        2.946752
  54        3.244473
  55        3.662875
  56        4.040887
  57        6.165476
  58        6.904905
  59        8.146458
  60        8.263542
  61        8.587157
  62        9.019775
  63        9.242151
  64        9.528254
  65        9.856402
  66       10.370957
  67       10.632400
  68       10.810923
  69       10.943122
  70       11.191048
  71       11.654255
  72       11.770496
  73       12.119905
  74       12.442416
  75       12.618481
  76       13.009708
  77       13.507624
  78       13.875887
  79       14.210098
  80       14.712269
 
  0.5000000E+00  0.1474515E-16  0.2775558E-16  0.1250000E-01
   1      -68.645243
   2      -68.644749
   3      -68.633044
   4      -68.632173
   5      -68.612752
   6      -68.612116
   7      -68.595371
   8      -68.595242
   9      -68.576952
  10      -68.576364
  11      -68.559350
  12      -68.559626
  13      -12.447407
  14      -11.244885
  15      -10.968712
  16      -10.752019
  17      -10.426973
  18      -10.350404
  19       -5.882165
  20       -4.549547
  21       -2.501434
  22       -2.247741
  23       -1.944978
  24       -1.455544
  25       -1.222930
  26       -1.097144
  27       -0.903402
  28       -0.859475
  29       -0.601710
  30       -0.537041
  31       -0.271569
  32       -0.209043
  33       -0.198536
  34       -0.144223
  35       -0.029021
  36        0.079363
  37        1.255333
  38        1.328927
  39        1.348477
  40        1.397884
  41        1.471699
  42        1.479665
  43        1.500582
  44        1.555571
  45        1.752822
  46        1.793022
  47        1.968095
  48        2.146605
  49        2.317916
  50        2.359844
  51        2.555332
  52        2.672675
  53        2.937748
  54        3.078134
  55        3.252041
  56        3.862818
  57        6.379208
  58        7.097257
  59        7.978033
  60        8.223997
  61        8.517787
  62        8.813633
  63        9.322151
  64        9.892601
  65       10.001948
  66       10.515574
  67       10.681561
  68       10.785549
  69       11.147122
  70       11.405135
  71       11.610803
  72       11.777005
  73       11.942042
  74       12.503607
  75       12.776407
  76       13.001540
  77       13.399439
  78       13.544662
  79       13.939282
  80       14.277737
 
  0.7372575E-17  0.2500000E+00  0.1387779E-16  0.2500000E-01
   1      -68.645383
   2      -68.644893
   3      -68.633108
   4      -68.632268
   5      -68.612806
   6      -68.612127
   7      -68.595455
   8      -68.595312
   9      -68.576942
  10      -68.576448
  11      -68.559512
  12      -68.559741
  13      -12.604357
  14      -11.116925
  15      -10.998368
  16      -10.676980
  17      -10.359271
  18      -10.268549
  19       -5.943833
  20       -4.771489
  21       -2.648795
  22       -2.256193
  23       -2.087392
  24       -1.691601
  25       -1.345879
  26       -0.996694
  27       -0.767364
  28       -0.619747
  29       -0.551173
  30       -0.440858
  31       -0.359430
  32       -0.241055
  33       -0.192710
  34       -0.166276
  35       -0.044675
  36        0.037885
  37        1.279911
  38        1.336432
  39        1.355663
  40        1.393018
  41        1.427794
  42        1.472954
  43        1.499320
  44        1.530803
  45        1.725104
  46        1.861335
  47        2.056776
  48        2.095228
  49        2.231298
  50        2.414954
  51        2.556531
  52        2.828350
  53        2.949153
  54        3.244090
  55        3.664002
  56        4.042513
  57        6.164882
  58        6.905273
  59        8.133873
  60        8.268810
  61        8.597451
  62        9.012442
  63        9.239053
  64        9.522011
  65        9.865732
  66       10.373162
  67       10.630223
  68       10.815133
  69       10.941433
  70       11.189001
  71       11.655978
  72       11.771675
  73       12.117322
  74       12.443325
  75       12.618936
  76       13.008392
  77       13.516465
  78       13.898791
  79       14.268161
  80       14.847493
 
  0.2500000E+00  0.2500000E+00  0.0000000E+00  0.2500000E-01
   1      -68.645380
   2      -68.644920
   3      -68.633010
   4      -68.632152
   5      -68.612943
   6      -68.612260
   7      -68.595371
   8      -68.595172
   9      -68.577074
  10      -68.576563
  11      -68.559567
  12      -68.559724
  13      -12.451055
  14      -11.183678
  15      -10.955984
  16      -10.872812
  17      -10.383511
  18      -10.344501
  19       -5.886785
  20       -4.521287
  21       -2.423691
  22       -2.249712
  23       -1.791534
  24       -1.684031
  25       -1.352400
  26       -1.294191
  27       -1.078537
  28       -0.678813
  29       -0.526458
  30       -0.295694
  31       -0.282945
  32       -0.223863
  33       -0.183069
  34       -0.129273
  35       -0.089408
  36        0.077360
  37        1.294288
  38        1.312398
  39        1.416636
  40        1.427116
  41        1.464198
  42        1.483322
  43        1.496031
  44        1.571279
  45        1.671845
  46        1.879970
  47        1.941178
  48        2.134979
  49        2.279663
  50        2.320905
  51        2.559960
  52        2.652125
  53        2.904467
  54        2.946480
  55        3.699894
  56        3.834477
  57        6.166191
  58        6.991196
  59        7.997698
  60        8.335266
  61        8.424159
  62        8.577947
  63        9.142645
  64        9.244395
  65       10.356748
  66       10.489065
  67       10.920602
  68       11.185160
  69       11.328599
  70       11.558955
  71       11.818359
  72       11.963960
  73       12.315596
  74       12.499805
  75       12.712425
  76       12.915293
  77       13.341037
  78       13.447964
  79       14.257726
  80       14.369017
 
  0.5000000E+00  0.2500000E+00 -0.2775558E-16  0.2500000E-01
   1      -68.645013
   2      -68.644845
   3      -68.633071
   4      -68.632237
   5      -68.612697
   6      -68.612053
   7      -68.595366
   8      -68.595286
   9      -68.576848
  10      -68.576380
  11      -68.559379
  12      -68.559622
  13      -12.451606
  14      -11.347454
  15      -10.951121
  16      -10.730279
  17      -10.384499
  18      -10.264537
  19       -5.958366
  20       -4.641599
  21       -2.397560
  22       -2.229527
  23       -2.063130
  24       -1.635140
  25       -1.358121
  26       -1.282083
  27       -1.017575
  28       -0.509818
  29       -0.484111
  30       -0.330022
  31       -0.281669
  32       -0.213290
  33       -0.152354
  34       -0.134631
  35       -0.009979
  36        0.112729
  37        1.247222
  38        1.316551
  39        1.383296
  40        1.437871
  41        1.462787
  42        1.492927
  43        1.497746
  44        1.550640
  45        1.749653
  46        1.829422
  47        1.922501
  48        2.134339
  49        2.219926
  50        2.385633
  51        2.561114
  52        2.791249
  53        2.980104
  54        3.313699
  55        3.605440
  56        3.750660
  57        6.082395
  58        6.938710
  59        7.613831
  60        8.062084
  61        8.413842
  62        8.621552
  63        8.978309
  64        9.146699
  65       10.086586
  66       10.334869
  67       10.728882
  68       11.103554
  69       11.459254
  70       11.596011
  71       11.800269
  72       12.080761
  73       12.479027
  74       12.913326
  75       13.046206
  76       13.835635
  77       14.218376
  78       14.655109
  79       15.431248
  80       15.640881
 
 -0.2500000E+00  0.2500000E+00  0.0000000E+00  0.2500000E-01
   1      -68.645373
   2      -68.644906
   3      -68.633076
   4      -68.632244
   5      -68.612739
   6      -68.612061
   7      -68.595439
   8      -68.595295
   9      -68.576905
  10      -68.576382
  11      -68.559509
  12      -68.559748
  13      -12.607331
  14      -11.243956
  15      -11.005065
  16      -10.567464
  17      -10.361319
  18      -10.171643
  19       -6.020511
  20       -4.892838
  21       -2.649301
  22       -2.317470
  23       -1.979991
  24       -1.642712
  25       -1.496436
  26       -1.181542
  27       -0.786457
  28       -0.581130
  29       -0.448275
  30       -0.335112
  31       -0.291740
  32       -0.232224
  33       -0.174810
  34       -0.133021
  35       -0.007530
  36        0.073759
  37        1.260150
  38        1.321294
  39        1.365455
  40        1.424097
  41        1.432006
  42        1.476851
  43        1.504684
  44        1.543873
  45        1.725405
  46        1.812844
  47        1.995973
  48        2.073443
  49        2.417579
  50        2.463325
  51        2.529437
  52        2.874303
  53        3.142579
  54        3.230176
  55        3.787870
  56        4.071481
  57        5.974520
  58        6.686894
  59        7.537293
  60        8.218472
  61        8.617149
  62        8.922859
  63        9.298763
  64        9.426007
  65        9.801026
  66       10.267729
  67       10.543437
  68       10.830056
  69       10.967948
  70       11.381760
  71       11.472925
  72       11.732767
  73       12.101810
  74       12.663325
  75       12.940928
  76       13.101864
  77       13.352119
  78       13.520624
  79       14.479442
  80       14.755794
 
  0.1474515E-16  0.5000000E+00  0.2775558E-16  0.1250000E-01
   1      -68.645196
   2      -68.644786
   3      -68.633052
   4      -68.632165
   5      -68.612788
   6      -68.612081
   7      -68.595356
   8      -68.595260
   9      -68.576903
  10      -68.576426
  11      -68.559411
  12      -68.559559
  13      -12.447288
  14      -11.238118
  15      -10.971687
  16      -10.765416
  17      -10.417911
  18      -10.350276
  19       -5.881379
  20       -4.546267
  21       -2.499076
  22       -2.246803
  23       -1.946905
  24       -1.464770
  25       -1.226085
  26       -1.108375
  27       -0.899146
  28       -0.860001
  29       -0.596919
  30       -0.532793
  31       -0.273513
  32       -0.205285
  33       -0.198096
  34       -0.144620
  35       -0.029366
  36        0.077485
  37        1.255006
  38        1.328353
  39        1.348287
  40        1.398063
  41        1.472092
  42        1.479956
  43        1.501133
  44        1.553881
  45        1.752139
  46        1.792128
  47        1.968483
  48        2.148870
  49        2.321087
  50        2.362628
  51        2.558528
  52        2.672282
  53        2.938216
  54        3.080671
  55        3.251645
  56        3.865254
  57        6.378505
  58        7.097935
  59        7.977196
  60        8.197133
  61        8.519983
  62        8.817303
  63        9.325318
  64        9.882841
  65       10.012909
  66       10.519693
  67       10.689358
  68       10.794101
  69       11.139961
  70       11.407087
  71       11.610870
  72       11.780010
  73       11.944211
  74       12.505805
  75       12.829591
  76       13.033446
  77       13.548817
  78       13.683741
  79       14.553874
  80       15.243461
 
  0.2500000E+00  0.5000000E+00 -0.2775558E-16  0.2500000E-01
   1      -68.644998
   2      -68.644867
   3      -68.633025
   4      -68.632244
   5      -68.612674
   6      -68.612093
   7      -68.595361
   8      -68.595312
   9      -68.576826
  10      -68.576406
  11      -68.559461
  12      -68.559531
  13      -12.451513
  14      -11.345928
  15      -10.951409
  16      -10.734308
  17      -10.384345
  18      -10.262128
  19       -5.958057
  20       -4.640319
  21       -2.394954
  22       -2.229814
  23       -2.059310
  24       -1.642710
  25       -1.362619
  26       -1.283103
  27       -1.019393
  28       -0.512590
  29       -0.479345
  30       -0.326999
  31       -0.282933
  32       -0.214787
  33       -0.148466
  34       -0.134180
  35       -0.011730
  36        0.112254
  37        1.247318
  38        1.316289
  39        1.383209
  40        1.437881
  41        1.462691
  42        1.492733
  43        1.497626
  44        1.550402
  45        1.750135
  46        1.829044
  47        1.922669
  48        2.134836
  49        2.220533
  50        2.386738
  51        2.563137
  52        2.793789
  53        2.979319
  54        3.313345
  55        3.604756
  56        3.752218
  57        6.081979
  58        6.938758
  59        7.610434
  60        8.061453
  61        8.414245
  62        8.621614
  63        8.978206
  64        9.147424
  65       10.085373
  66       10.334683
  67       10.731205
  68       11.106274
  69       11.457223
  70       11.578006
  71       11.783622
  72       12.031345
  73       12.520245
  74       12.679362
  75       12.910790
  76       13.213716
  77       14.233102
  78       14.773376
  79       15.247317
  80       15.901573
 
  0.5000000E+00  0.5000000E+00  0.0000000E+00  0.1250000E-01
   1      -68.645049
   2      -68.644471
   3      -68.632881
   4      -68.632040
   5      -68.612477
   6      -68.612072
   7      -68.595221
   8      -68.595046
   9      -68.576786
  10      -68.576260
  11      -68.559139
  12      -68.559454
  13      -12.443957
  14      -11.493360
  15      -10.926998
  16      -10.612412
  17      -10.392467
  18      -10.191030
  19       -6.036448
  20       -4.808109
  21       -2.314965
  22       -2.268894
  23       -2.096728
  24       -1.704755
  25       -1.247691
  26       -1.110094
  27       -0.839735
  28       -0.778652
  29       -0.723909
  30       -0.239919
  31       -0.199686
  32       -0.180850
  33       -0.152530
  34       -0.041137
  35       -0.001541
  36        0.185641
  37        1.266826
  38        1.318509
  39        1.376031
  40        1.415148
  41        1.434084
  42        1.493451
  43        1.508965
  44        1.549693
  45        1.787069
  46        1.848282
  47        1.997554
  48        2.151695
  49        2.253062
  50        2.336585
  51        2.559601
  52        2.766634
  53        2.777155
  54        3.370276
  55        3.767722
  56        4.009149
  57        5.848750
  58        6.764106
  59        7.084733
  60        8.409366
  61        8.555532
  62        8.771889
  63        9.137663
  64        9.243237
  65        9.956607
  66       10.284373
  67       10.725502
  68       10.821333
  69       10.873831
  70       11.275203
  71       11.759659
  72       11.914765
  73       11.970865
  74       12.369317
  75       12.541675
  76       13.457901
  77       14.282786
  78       14.674350
  79       16.747091
  80       16.756804
 
 -0.2168404E-18 -0.2168404E-18  0.2000000E+00  0.2500000E-01
   1      -68.645417
   2      -68.644934
   3      -68.633102
   4      -68.632275
   5      -68.612839
   6      -68.612151
   7      -68.595483
   8      -68.595299
   9      -68.576988
  10      -68.576470
  11      -68.559584
  12      -68.559744
  13      -12.624795
  14      -11.428857
  15      -10.780483
  16      -10.609416
  17      -10.246610
  18      -10.224595
  19       -5.840971
  20       -5.046949
  21       -2.603455
  22       -2.376230
  23       -1.960196
  24       -1.774919
  25       -1.444747
  26       -1.125699
  27       -1.065224
  28       -0.770422
  29       -0.469842
  30       -0.291944
  31       -0.237983
  32       -0.234948
  33       -0.192081
  34       -0.147517
  35       -0.014306
  36        0.026172
  37        1.333909
  38        1.382259
  39        1.417097
  40        1.440407
  41        1.466098
  42        1.467056
  43        1.515177
  44        1.546183
  45        1.632672
  46        1.760385
  47        1.787506
  48        1.952288
  49        2.088104
  50        2.661782
  51        2.721733
  52        3.195085
  53        3.253915
  54        3.521526
  55        3.894862
  56        3.979099
  57        6.043572
  58        6.415264
  59        7.815844
  60        7.911020
  61        8.361743
  62        8.826929
  63        9.767334
  64        9.794514
  65       10.061842
  66       10.582347
  67       10.646315
  68       10.815181
  69       10.851872
  70       11.492003
  71       11.558554
  72       12.029772
  73       12.577121
  74       12.773785
  75       12.912830
  76       13.208980
  77       13.532261
  78       13.822356
  79       14.196124
  80       14.701746
 
  0.2500000E+00  0.1517883E-17  0.2000000E+00  0.2500000E-01
   1      -68.645348
   2      -68.644876
   3      -68.633089
   4      -68.632261
   5      -68.612874
   6      -68.612198
   7      -68.595467
   8      -68.595231
   9      -68.576989
  10      -68.576489
  11      -68.559487
  12      -68.559713
  13      -12.467286
  14      -11.471116
  15      -10.861430
  16      -10.689480
  17      -10.366838
  18      -10.239291
  19       -5.777338
  20       -4.805138
  21       -2.449410
  22       -2.235870
  23       -1.850144
  24       -1.714923
  25       -1.426057
  26       -1.185624
  27       -0.890134
  28       -0.747492
  29       -0.602703
  30       -0.524726
  31       -0.309873
  32       -0.243128
  33       -0.176338
  34       -0.120396
  35       -0.052187
  36        0.061689
  37        1.302929
  38        1.337116
  39        1.370572
  40        1.432972
  41        1.447023
  42        1.479785
  43        1.522266
  44        1.547383
  45        1.644445
  46        1.871638
  47        1.976586
  48        2.049706
  49        2.196518
  50        2.476848
  51        2.596010
  52        2.840129
  53        2.963349
  54        3.132389
  55        3.570193
  56        3.725231
  57        6.437774
  58        6.956609
  59        8.167139
  60        8.243588
  61        8.836076
  62        9.132911
  63        9.456920
  64        9.797150
  65       10.081050
  66       10.295482
  67       10.740265
  68       11.080311
  69       11.288273
  70       11.426051
  71       11.631662
  72       11.722189
  73       12.087896
  74       12.269173
  75       12.541774
  76       12.663555
  77       12.955049
  78       13.060988
  79       13.638047
  80       14.688444
 
  0.5000000E+00  0.9107298E-17  0.2000000E+00  0.2500000E-01
   1      -68.645092
   2      -68.644792
   3      -68.632991
   4      -68.632191
   5      -68.612720
   6      -68.612076
   7      -68.595304
   8      -68.595218
   9      -68.576864
  10      -68.576414
  11      -68.559415
  12      -68.559644
  13      -12.366901
  14      -11.414809
  15      -10.956164
  16      -10.677255
  17      -10.471999
  18      -10.330919
  19       -5.762221
  20       -4.724372
  21       -2.524647
  22       -2.190118
  23       -1.951089
  24       -1.529806
  25       -1.299653
  26       -1.091662
  27       -0.865911
  28       -0.759149
  29       -0.553187
  30       -0.445828
  31       -0.291004
  32       -0.177291
  33       -0.146987
  34       -0.103860
  35       -0.044230
  36        0.022696
  37        1.273520
  38        1.298615
  39        1.352580
  40        1.429913
  41        1.453317
  42        1.480968
  43        1.502067
  44        1.589828
  45        1.720122
  46        1.932968
  47        2.075527
  48        2.146487
  49        2.266407
  50        2.401335
  51        2.567259
  52        2.596511
  53        2.899912
  54        3.012052
  55        3.362094
  56        3.900679
  57        6.359802
  58        6.896017
  59        7.573716
  60        8.096526
  61        8.548916
  62        8.795975
  63        9.279174
  64        9.621271
  65        9.934305
  66       10.265841
  67       10.656608
  68       10.924919
  69       10.970648
  70       11.279849
  71       11.516846
  72       11.788221
  73       12.244830
  74       12.544161
  75       13.100836
  76       13.518467
  77       14.296524
  78       14.571388
  79       15.126493
  80       16.268760
 
 -0.2500000E+00 -0.4098284E-16  0.2000000E+00  0.2500000E-01
   1      -68.645404
   2      -68.644933
   3      -68.633077
   4      -68.632252
   5      -68.612841
   6      -68.612164
   7      -68.595482
   8      -68.595270
   9      -68.577004
  10      -68.576487
  11      -68.559558
  12      -68.559758
  13      -12.549466
  14      -11.338953
  15      -10.880751
  16      -10.601299
  17      -10.390238
  18      -10.277344
  19       -5.834069
  20       -4.975751
  21       -2.668281
  22       -2.456013
  23       -2.036271
  24       -1.576623
  25       -1.169932
  26       -0.981327
  27       -0.797275
  28       -0.653373
  29       -0.518164
  30       -0.388446
  31       -0.268209
  32       -0.255421
  33       -0.189737
  34       -0.145521
  35       -0.043922
  36        0.015911
  37        1.291396
  38        1.311432
  39        1.389564
  40        1.409656
  41        1.434783
  42        1.456581
  43        1.492771
  44        1.565677
  45        1.688978
  46        1.915670
  47        1.985159
  48        2.144543
  49        2.336795
  50        2.567426
  51        2.617438
  52        2.830538
  53        2.972964
  54        3.249711
  55        3.684627
  56        3.945287
  57        6.174163
  58        6.636387
  59        7.774891
  60        7.972092
  61        8.210086
  62        8.562943
  63        9.374805
  64        9.578775
  65        9.913616
  66       10.246289
  67       10.540112
  68       10.787576
  69       10.837466
  70       11.066816
  71       11.565527
  72       12.022178
  73       12.525467
  74       12.752705
  75       12.952196
  76       13.308026
  77       13.413181
  78       13.740988
  79       13.846116
  80       14.726736
 
  0.1517883E-17  0.2500000E+00  0.2000000E+00  0.2500000E-01
   1      -68.645350
   2      -68.644874
   3      -68.633088
   4      -68.632261
   5      -68.612870
   6      -68.612203
   7      -68.595470
   8      -68.595228
   9      -68.576998
  10      -68.576479
  11      -68.559483
  12      -68.559721
  13      -12.467540
  14      -11.467378
  15      -10.869713
  16      -10.687151
  17      -10.367217
  18      -10.236697
  19       -5.775615
  20       -4.805027
  21       -2.449162
  22       -2.234210
  23       -1.851217
  24       -1.719713
  25       -1.433320
  26       -1.183378
  27       -0.889570
  28       -0.741043
  29       -0.606353
  30       -0.522928
  31       -0.307331
  32       -0.244952
  33       -0.174418
  34       -0.122139
  35       -0.050954
  36        0.060238
  37        1.303026
  38        1.336755
  39        1.370230
  40        1.432549
  41        1.447349
  42        1.480027
  43        1.521920
  44        1.548440
  45        1.643813
  46        1.872017
  47        1.979692
  48        2.047116
  49        2.196178
  50        2.476344
  51        2.595530
  52        2.839285
  53        2.966153
  54        3.135018
  55        3.569021
  56        3.726579
  57        6.436342
  58        6.957668
  59        8.169456
  60        8.240904
  61        8.829206
  62        9.136636
  63        9.468581
  64        9.781094
  65       10.085854
  66       10.293038
  67       10.741517
  68       11.081609
  69       11.289028
  70       11.426838
  71       11.632620
  72       11.724722
  73       12.085359
  74       12.264961
  75       12.543796
  76       12.659244
  77       12.953808
  78       13.057663
  79       13.659167
  80       14.693974
 
  0.2500000E+00  0.2500000E+00  0.2000000E+00  0.2500000E-01
   1      -68.645253
   2      -68.644789
   3      -68.632951
   4      -68.632095
   5      -68.612716
   6      -68.612039
   7      -68.595304
   8      -68.595147
   9      -68.576882
  10      -68.576336
  11      -68.559502
  12      -68.559521
  13      -12.337713
  14      -11.476175
  15      -10.864039
  16      -10.854334
  17      -10.400854
  18      -10.281249
  19       -5.757538
  20       -4.692644
  21       -2.245516
  22       -2.142742
  23       -1.932892
  24       -1.849327
  25       -1.450032
  26       -1.390757
  27       -1.035502
  28       -0.519030
  29       -0.462996
  30       -0.350961
  31       -0.247047
  32       -0.215909
  33       -0.161252
  34       -0.112618
  35       -0.087132
  36        0.078616
  37        1.262787
  38        1.348816
  39        1.398420
  40        1.435955
  41        1.453886
  42        1.510983
  43        1.536088
  44        1.544086
  45        1.754235
  46        1.818697
  47        2.040989
  48        2.133410
  49        2.286323
  50        2.310540
  51        2.521607
  52        2.770193
  53        2.900393
  54        3.263568
  55        3.497718
  56        3.802761
  57        6.179366
  58        6.841189
  59        7.830179
  60        8.046987
  61        8.183821
  62        8.723434
  63        9.149911
  64        9.303319
  65       10.218760
  66       10.442144
  67       10.590755
  68       11.005239
  69       11.242255
  70       11.486587
  71       11.810790
  72       12.169878
  73       12.208971
  74       12.578986
  75       12.694597
  76       13.112279
  77       13.416269
  78       13.878721
  79       14.007111
  80       14.523645
 
  0.5000000E+00  0.2500000E+00  0.2000000E+00  0.2500000E-01
   1      -68.645009
   2      -68.644770
   3      -68.633001
   4      -68.632270
   5      -68.612609
   6      -68.612189
   7      -68.595353
   8      -68.595239
   9      -68.576862
  10      -68.576410
  11      -68.559422
  12      -68.559534
  13      -12.384197
  14      -11.469809
  15      -10.948495
  16      -10.646582
  17      -10.409889
  18      -10.300618
  19       -5.809781
  20       -4.837047
  21       -2.530808
  22       -2.248911
  23       -1.870384
  24       -1.641119
  25       -1.507908
  26       -1.303421
  27       -0.896861
  28       -0.535563
  29       -0.378558
  30       -0.347708
  31       -0.223976
  32       -0.178323
  33       -0.161603
  34       -0.076625
  35       -0.024400
  36        0.081544
  37        1.190705
  38        1.364867
  39        1.398215
  40        1.442995
  41        1.464392
  42        1.507346
  43        1.519805
  44        1.585636
  45        1.741033
  46        1.818147
  47        2.038529
  48        2.234505
  49        2.267896
  50        2.363177
  51        2.487936
  52        2.671500
  53        3.053977
  54        3.413686
  55        3.731097
  56        3.866742
  57        5.927344
  58        6.611538
  59        7.358538
  60        7.946594
  61        8.063367
  62        8.715424
  63        8.904870
  64        9.137333
  65        9.845580
  66       10.327434
  67       10.554129
  68       10.924188
  69       11.221952
  70       11.415289
  71       11.754179
  72       12.002091
  73       12.496586
  74       12.829305
  75       13.206434
  76       14.181966
  77       14.714359
  78       15.089601
  79       15.918109
  80       16.565787
 
 -0.2500000E+00  0.2500000E+00  0.2000000E+00  0.2500000E-01
   1      -68.645309
   2      -68.644880
   3      -68.633131
   4      -68.632305
   5      -68.612810