       N       E                     dE             d eps       ncg     rms          ort
SDA:   1     0.755209351082E+02    0.75521E+02   -0.21316E+03  3360   0.533E+03 0.000E+00
DMP:   2    -0.838567256357E+01   -0.83907E+02   -0.14687E+03  3360   0.395E+03-0.737E+02
DMP:   3    -0.151331862266E+02   -0.67475E+01   -0.20385E+03  3360   0.694E+03-0.482E+03
DMP:   4    -0.226000503789E+02   -0.74669E+01   -0.10751E+03  3360   0.391E+03-0.320E+03
DMP:   5    -0.608036488860E+02   -0.38204E+02   -0.15091E+02  3360   0.707E+02-0.864E+02
DMP:   6    -0.659292331163E+02   -0.51256E+01   -0.81798E+01  3360   0.247E+02-0.111E+02
DMP:   7    -0.674696563098E+02   -0.15404E+01   -0.41433E+01  3360   0.147E+02-0.114E+02
DMP:   8    -0.690833660086E+02   -0.16137E+01   -0.77318E+00  3360   0.284E+01-0.239E+01
DMP:   9    -0.693947613218E+02   -0.31140E+00   -0.38634E+00  3360   0.111E+01-0.366E+00
DMP:  10    -0.694984297137E+02   -0.10367E+00   -0.15274E+00  3360   0.549E+00-0.437E+00
DMP:  11    -0.695681906104E+02   -0.69761E-01   -0.36869E-01  3360   0.105E+00-0.343E-01
DMP:  12    -0.695805420419E+02   -0.12351E-01   -0.22879E-01  3360   0.690E-01-0.309E-01
DMP:  13    -0.695902094167E+02   -0.96674E-02   -0.51282E-02  3360   0.162E-01-0.880E-02
DMP:  14    -0.695926726310E+02   -0.24632E-02   -0.37833E-02  3360   0.965E-02-0.496E-03
DMP:  15    -0.695941804332E+02   -0.15078E-02   -0.10408E-02  3360   0.334E-02-0.193E-02
DMP:  16    -0.695947535361E+02   -0.57310E-03   -0.41018E-03  3360   0.917E-03 0.283E-03
DMP:  17    -0.695949272509E+02   -0.17371E-03   -0.20928E-03  3360   0.581E-03-0.150E-03
DMP:  18    -0.695950447452E+02   -0.11749E-03   -0.56503E-04  3360   0.120E-03 0.561E-04
DMP:  19    -0.695950738842E+02   -0.29139E-04   -0.35442E-04  3360   0.885E-04 0.231E-06
DMP:  20    -0.695950937690E+02   -0.19885E-04   -0.11651E-04  3360   0.243E-04 0.128E-04
DMP:  21    -0.695951012253E+02   -0.74563E-05   -0.70664E-05  3360   0.141E-04 0.929E-05
   1 F= -.69595101E+02 E0= -.69595292E+02  d E =0.572804E-03
