 vasp.5.3.3 18Dez12 (build Nov 13 2015 09:58:40) complex                        
  
 executed on             LinuxIFC date 2017.10.18  13:04:56
 running on   48 total cores
 distrk:  each k-point on   16 cores,    3 groups
 distr:  one band on NCORES_PER_BAND=   1 cores,   16 groups


--------------------------------------------------------------------------------------------------------


 INCAR:
 POTCAR:    PAW_PBE Cu_pv 06Sep2000               
 POTCAR:    PAW_PBE Ge 05Jan2001                  
 POTCAR:    PAW_PBE S 17Jan2003                   

 ----------------------------------------------------------------------------- 
|                                                                             |
|           W    W    AA    RRRRR   N    N  II  N    N   GGGG   !!!           |
|           W    W   A  A   R    R  NN   N  II  NN   N  G    G  !!!           |
|           W    W  A    A  R    R  N N  N  II  N N  N  G       !!!           |
|           W WW W  AAAAAA  RRRRR   N  N N  II  N  N N  G  GGG   !            |
|           WW  WW  A    A  R   R   N   NN  II  N   NN  G    G                |
|           W    W  A    A  R    R  N    N  II  N    N   GGGG   !!!           |
|                                                                             |
|      For optimal performance we recommend that you set                      |
|        NPAR = 4 - approx SQRT( number of cores)                             |
|      (number of cores/NPAR must be integer)                                 |
|      This setting will greatly improve the performance of VASP for DFT.     |
|      The default NPAR=number of cores might be grossly inefficient          |
|      on modern multi-core architectures or massively parallel machines.     |
|      Do your own testing.                                                   |
|      Unfortunately you need to use the default for hybrid, GW and RPA       |
|      calculations.                                                          |
|                                                                             |
 ----------------------------------------------------------------------------- 


 ----------------------------------------------------------------------------- 
|                                                                             |
|           W    W    AA    RRRRR   N    N  II  N    N   GGGG   !!!           |
|           W    W   A  A   R    R  NN   N  II  NN   N  G    G  !!!           |
|           W    W  A    A  R    R  N N  N  II  N N  N  G       !!!           |
|           W WW W  AAAAAA  RRRRR   N  N N  II  N  N N  G  GGG   !            |
|           WW  WW  A    A  R   R   N   NN  II  N   NN  G    G                |
|           W    W  A    A  R    R  N    N  II  N    N   GGGG   !!!           |
|                                                                             |
|      You have enabled k-point parallelism (KPAR>1).                         |
|      This developmental code was originally  written by Paul Kent at ORNL,  |
|      and carefully double checked in Vienna.                                |
|      GW as well as linear response parallelism added by Martijn Marsman     |
|      and Georg Kresse.                                                      |
|      Carefully verify results versus KPAR=1.                                |
|      Report problems to Paul Kent and Vienna.                               |
|                                                                             |
 ----------------------------------------------------------------------------- 

 POTCAR:    PAW_PBE Cu_pv 06Sep2000               
   VRHFIN =Cu: d10 p1                                                           
   LEXCH  = PE                                                                  
   EATOM  =  4120.1201 eV,  302.8203 Ry                                         
                                                                                
   TITEL  = PAW_PBE Cu_pv 06Sep2000                                             
   LULTRA =        F    use ultrasoft PP ?                                      
   IUNSCR =        1    unscreen: 0-lin 1-nonlin 2-no                           
   RPACOR =    1.500    partial core radius                                     
   POMASS =   63.546; ZVAL   =   17.000    mass and valenz                      
   RCORE  =    2.000    outmost cutoff radius                                   
   RWIGS  =    2.000; RWIGS  =    1.058    wigner-seitz radius (au A)           
   ENMAX  =  368.648; ENMIN  =  276.486 eV                                      
   RCLOC  =    1.304    cutoff for local pot                                    
   LCOR   =        T    correct aug charges                                     
   LPAW   =        T    paw PP                                                  
   EAUG   =  758.233                                                            
   DEXC   =    0.000                                                            
   RMAX   =    2.046    core radius for proj-oper                               
   RAUG   =    1.300    factor for augmentation sphere                          
   RDEP   =    2.025    radius for radial grids                                 
   RDEPT  =    1.558    core radius for aug-charge                              
                                                                                
   Atomic configuration                                                         
    8 entries                                                                   
     n  l   j            E        occ.                                          
     1  0  0.50     -8850.2467   2.0000                                         
     2  0  0.50     -1062.3498   2.0000                                         
     2  1  1.50      -916.8226   6.0000                                         
     3  0  0.50      -114.6929   2.0000                                         
     3  1  1.50       -72.1325   6.0000                                         
     3  2  2.50        -5.0394  10.0000                                         
     4  0  0.50        -4.6097   1.0000                                         
     4  3  2.50        -1.3606   0.0000                                         
   Description                                                                  
     l       E           TYP  RCUT    TYP  RCUT                                 
     1    -72.1324777     23  1.700                                             
     1     -1.3605826     23  1.700                                             
     2     -5.0393776     23  2.000                                             
     2     -6.3999602     23  2.000                                             
     0     -4.6097062     23  1.800                                             
     0     14.1620818     23  1.800                                             
  local pseudopotential read in
  partial core-charges read in
  partial kinetic energy density read in
  atomic valenz-charges read in
  non local Contribution for L=           1  read in
    real space projection operators read in
  non local Contribution for L=           1  read in
    real space projection operators read in
  non local Contribution for L=           2  read in
    real space projection operators read in
  non local Contribution for L=           2  read in
    real space projection operators read in
  non local Contribution for L=           0  read in
    real space projection operators read in
  non local Contribution for L=           0  read in
    real space projection operators read in
    PAW grid and wavefunctions read in
 
   number of l-projection  operators is LMAX  =           6
   number of lm-projection operators is LMMAX =          18
 
 POTCAR:    PAW_PBE Ge 05Jan2001                  
   VRHFIN =Ge: s2p2                                                             
   LEXCH  = PE                                                                  
   EATOM  =   104.9960 eV,    7.7170 Ry                                         
                                                                                
   TITEL  = PAW_PBE Ge 05Jan2001                                                
   LULTRA =        F    use ultrasoft PP ?                                      
   IUNSCR =        1    unscreen: 0-lin 1-nonlin 2-no                           
   RPACOR =    2.170    partial core radius                                     
   POMASS =   72.610; ZVAL   =    4.000    mass and valenz                      
   RCORE  =    2.300    outmost cutoff radius                                   
   RWIGS  =    2.300; RWIGS  =    1.217    wigner-seitz radius (au A)           
   ENMAX  =  173.807; ENMIN  =  130.355 eV                                      
   ICORE  =        3    local potential                                         
   LCOR   =        T    correct aug charges                                     
   LPAW   =        T    paw PP                                                  
   EAUG   =  385.843                                                            
   DEXC   =    0.000                                                            
   RMAX   =    2.342    core radius for proj-oper                               
   RAUG   =    1.300    factor for augmentation sphere                          
   RDEP   =    2.318    radius for radial grids                                 
   RDEPT  =    2.103    core radius for aug-charge                              
                                                                                
   Atomic configuration                                                         
   10 entries                                                                   
     n  l   j            E        occ.                                          
     1  0  0.50    -10959.8463   2.0000                                         
     2  0  0.50     -1371.6056   2.0000                                         
     2  1  1.50     -1198.4791   6.0000                                         
     3  0  0.50      -168.4733   2.0000                                         
     3  1  1.50      -115.6019   6.0000                                         
     3  2  2.50       -29.3106  10.0000                                         
     4  0  0.50       -11.7309   2.0000                                         
     4  1  0.50        -3.8952   2.0000                                         
     4  2  1.50        -4.0817   0.0000                                         
     4  3  2.50        -4.0817   0.0000                                         
   Description                                                                  
     l       E           TYP  RCUT    TYP  RCUT                                 
     0    -11.7309493     23  2.300                                             
     0     -7.4578696     23  2.300                                             
     1     -3.8952261     23  2.300                                             
     1      6.1178114     23  2.300                                             
     2     -4.0817478     23  2.300                                             
     3     -1.3605826      7  2.300                                             
  local pseudopotential read in
  partial core-charges read in
  partial kinetic energy density read in
  atomic valenz-charges read in
  non local Contribution for L=           0  read in
    real space projection operators read in
  non local Contribution for L=           0  read in
    real space projection operators read in
  non local Contribution for L=           1  read in
    real space projection operators read in
  non local Contribution for L=           1  read in
    real space projection operators read in
  non local Contribution for L=           2  read in
    real space projection operators read in
    PAW grid and wavefunctions read in
 
   number of l-projection  operators is LMAX  =           5
   number of lm-projection operators is LMMAX =          13
 
 POTCAR:    PAW_PBE S 17Jan2003                   
   VRHFIN =S : s2p4                                                             
   LEXCH  = PE                                                                  
   EATOM  =   276.8230 eV,   20.3459 Ry                                         
                                                                                
   TITEL  = PAW_PBE S 17Jan2003                                                 
   LULTRA =        F    use ultrasoft PP ?                                      
   IUNSCR =        1    unscreen: 0-lin 1-nonlin 2-no                           
   RPACOR =    1.500    partial core radius                                     
   POMASS =   32.066; ZVAL   =    6.000    mass and valenz                      
   RCORE  =    1.900    outmost cutoff radius                                   
   RWIGS  =    2.200; RWIGS  =    1.164    wigner-seitz radius (au A)           
   ENMAX  =  280.000; ENMIN  =  194.016 eV                                      
   ICORE  =        2    local potential                                         
   LCOR   =        T    correct aug charges                                     
   LPAW   =        T    paw PP                                                  
   EAUG   =  335.092                                                            
   DEXC   =     .000                                                            
   RMAX   =    2.867    core radius for proj-oper                               
   RAUG   =    1.300    factor for augmentation sphere                          
   RDEP   =    1.954    radius for radial grids                                 
   QCUT   =   -4.360; QGAM   =    8.721    optimization parameters              
                                                                                
   Description                                                                  
     l     E      TYP  RCUT    TYP  RCUT                                        
     0   .000     23  1.900                                                     
     0   .000     23  1.900                                                     
     1   .000     23  1.900                                                     
     1   .000     23  1.900                                                     
     2   .000     23  1.900                                                     
  local pseudopotential read in
  partial core-charges read in
  atomic valenz-charges read in
  non local Contribution for L=           0  read in
    real space projection operators read in
  non local Contribution for L=           0  read in
    real space projection operators read in
  non local Contribution for L=           1  read in
    real space projection operators read in
  non local Contribution for L=           1  read in
    real space projection operators read in
    PAW grid and wavefunctions read in
 
   number of l-projection  operators is LMAX  =           4
   number of lm-projection operators is LMMAX =           8
 
  PAW_PBE Cu_pv 06Sep2000               :
 energy of atom  1       EATOM=-4120.1201
 kinetic energy error for atom=    0.0996 (will be added to EATOM!!)
  PAW_PBE Ge 05Jan2001                  :
 energy of atom  2       EATOM= -104.9960
 kinetic energy error for atom=    0.0003 (will be added to EATOM!!)
  PAW_PBE S 17Jan2003                   :
 energy of atom  3       EATOM= -276.8230
 kinetic energy error for atom=    0.0046 (will be added to EATOM!!)
 
 
 POSCAR: Cu Ge S                                 
  positions in direct lattice
  No initial velocities read in
 exchange correlation table for  LEXCH =        8
   RHO(1)=    0.500       N(1)  =     2000
   RHO(2)=  100.500       N(2)  =     4000
 


--------------------------------------------------------------------------------------------------------


 ion  position               nearest neighbor table
   1  0.618  0.121  0.120-   9 2.29  11 2.29  12 2.30   8 2.35
   2  0.121  0.618  0.620-  12 2.29   7 2.29   9 2.30  10 2.35
   3  0.963  0.790  0.119-  11 2.30  12 2.30   7 2.31   8 2.36
   4  0.790  0.963  0.619-   7 2.30   9 2.30  11 2.31  10 2.36
   5  0.440  0.269  0.599-   7 2.20   9 2.20  10 2.30   8 2.33
   6  0.267  0.440  0.099-  11 2.19  12 2.19   8 2.31  10 2.33
   7  0.079  0.912  0.497-   5 2.20   2 2.29   4 2.30   3 2.31
   8  0.571  0.412  0.980-   6 2.31   5 2.33   1 2.35   3 2.36
   9  0.737  0.250  0.495-   5 2.20   1 2.29   4 2.30   2 2.30
  10  0.412  0.571  0.480-   5 2.30   6 2.33   2 2.35   4 2.36
  11  0.912  0.079  0.997-   6 2.19   1 2.29   3 2.30   4 2.31
  12  0.250  0.737  0.995-   6 2.19   2 2.29   3 2.30   1 2.30
 
  Warning from LATTYP: Got some problem with cell dimensions!
  Tried to take original basis but could not verify dimensions!
  LATTYP: Found a base centered monoclinic cell.
 ALAT       =     6.4499010947
 B/A-ratio  =     1.7500516418
 C/A-ratio  =     1.9305142024
 COS(beta)  =    -0.4326083233
  
  Lattice vectors:
  
 A1 = (   3.2247960000,   5.6438300000,   0.0315720000)
 A2 = (   3.2247960000,  -5.6438300000,   0.0315720000)
 A3 = ( -10.7972380000,   0.0000000000,  -6.2018250000)


Analysis of symmetry for initial positions (statically):
=====================================================================
 Subroutine PRICEL returns:
 Original cell was already a primitive cell.
 

 Routine SETGRP: Setting up the symmetry group for a 
 base centered monoclinic supercell.


 Subroutine GETGRP returns: Found  1 space group operations
 (whereof  1 operations were pure point group operations)
 out of a pool of  4 trial point group operations.


The static configuration has the point symmetry C_1 .


Analysis of symmetry for dynamics (positions and initial velocities):
=====================================================================
 Subroutine PRICEL returns:
 Original cell was already a primitive cell.
 

 Routine SETGRP: Setting up the symmetry group for a 
 base centered monoclinic supercell.


 Subroutine GETGRP returns: Found  1 space group operations
 (whereof  1 operations were pure point group operations)
 out of a pool of  4 trial point group operations.


The dynamic configuration has the point symmetry C_1 .


 irot  :   1
 --------------------------------------------------------------------
 isymop:   1   0   0
           0   1   0
           0   0   1

 gtrans:     0.0000000     0.0000000     0.0000000

 ptrans:     0.0000000     0.0000000     0.0000000
 rotmap:
 (   1->   1)  (   2->   2)  (   3->   3)  (   4->   4)  (   5->   5) 
 (   6->   6)  (   7->   7)  (   8->   8)  (   9->   9)  (  10->  10) 
 (  11->  11)  (  12->  12) 
 
 
 KPOINTS: pymatgen 4.7.6+ generated KPOINTS with g

Automatic generation of k-mesh.
Space group operators:
 irot       det(A)        alpha          n_x          n_y          n_z        tau_x        tau_y        tau_z
    1     1.000000     0.000000     1.000000     0.000000     0.000000     0.000000     0.000000     0.000000
 
 Subroutine IBZKPT returns following result:
 ===========================================
 
 Found     42 irreducible k-points:
 
 Following reciprocal coordinates:
            Coordinates               Weight
  0.000000  0.000000  0.000000      1.000000
  0.250000  0.000000  0.000000      2.000000
  0.500000  0.000000  0.000000      1.000000
  0.000000  0.250000  0.000000      2.000000
  0.250000  0.250000  0.000000      2.000000
  0.500000  0.250000 -0.000000      2.000000
 -0.250000  0.250000  0.000000      2.000000
  0.000000  0.500000  0.000000      1.000000
  0.250000  0.500000 -0.000000      2.000000
  0.500000  0.500000  0.000000      1.000000
 -0.000000 -0.000000  0.200000      2.000000
  0.250000  0.000000  0.200000      2.000000
  0.500000  0.000000  0.200000      2.000000
 -0.250000 -0.000000  0.200000      2.000000
  0.000000  0.250000  0.200000      2.000000
  0.250000  0.250000  0.200000      2.000000
  0.500000  0.250000  0.200000      2.000000
 -0.250000  0.250000  0.200000      2.000000
  0.000000  0.500000  0.200000      2.000000
  0.250000  0.500000  0.200000      2.000000
  0.500000  0.500000  0.200000      2.000000
 -0.250000  0.500000  0.200000      2.000000
 -0.000000 -0.250000  0.200000      2.000000
  0.250000 -0.250000  0.200000      2.000000
  0.500000 -0.250000  0.200000      2.000000
 -0.250000 -0.250000  0.200000      2.000000
 -0.000000 -0.000000  0.400000      2.000000
  0.250000  0.000000  0.400000      2.000000
  0.500000  0.000000  0.400000      2.000000
 -0.250000  0.000000  0.400000      2.000000
  0.000000  0.250000  0.400000      2.000000
  0.250000  0.250000  0.400000      2.000000
  0.500000  0.250000  0.400000      2.000000
 -0.250000  0.250000  0.400000      2.000000
  0.000000  0.500000  0.400000      2.000000
  0.250000  0.500000  0.400000      2.000000
  0.500000  0.500000  0.400000      2.000000
 -0.250000  0.500000  0.400000      2.000000
  0.000000 -0.250000  0.400000      2.000000
  0.250000 -0.250000  0.400000      2.000000
  0.500000 -0.250000  0.400000      2.000000
 -0.250000 -0.250000  0.400000      2.000000
 
 Following cartesian coordinates:
            Coordinates               Weight
  0.000000  0.000000  0.000000      1.000000
  0.038631 -0.022148  0.013365      2.000000
  0.077263 -0.044296  0.026730      1.000000
  0.038631  0.022148  0.013365      2.000000
  0.077263  0.000000  0.026730      2.000000
  0.115894 -0.022148  0.040096      2.000000
  0.000000  0.044296  0.000000      2.000000
  0.077263  0.044296  0.026730      1.000000
  0.115894  0.022148  0.040096      2.000000
  0.154525  0.000000  0.053461      1.000000
 -0.000321  0.000000  0.032808      2.000000
  0.038310 -0.022148  0.046173      2.000000
  0.076941 -0.044296  0.059538      2.000000
 -0.038952  0.022148  0.019443      2.000000
  0.038310  0.022148  0.046173      2.000000
  0.076941  0.000000  0.059538      2.000000
  0.115573 -0.022148  0.072903      2.000000
 -0.000321  0.044296  0.032808      2.000000
  0.076941  0.044296  0.059538      2.000000
  0.115573  0.022148  0.072903      2.000000
  0.154204  0.000000  0.086269      2.000000
  0.038310  0.066444  0.046173      2.000000
 -0.038952 -0.022148  0.019443      2.000000
 -0.000321 -0.044296  0.032808      2.000000
  0.038310 -0.066444  0.046173      2.000000
 -0.077584  0.000000  0.006077      2.000000
 -0.000642  0.000000  0.065616      2.000000
  0.037989 -0.022148  0.078981      2.000000
  0.076620 -0.044296  0.092346      2.000000
 -0.039274  0.022148  0.052250      2.000000
  0.037989  0.022148  0.078981      2.000000
  0.076620  0.000000  0.092346      2.000000
  0.115251 -0.022148  0.105711      2.000000
 -0.000642  0.044296  0.065616      2.000000
  0.076620  0.044296  0.092346      2.000000
  0.115251  0.022148  0.105711      2.000000
  0.153883  0.000000  0.119076      2.000000
  0.037989  0.066444  0.078981      2.000000
 -0.039274 -0.022148  0.052250      2.000000
 -0.000642 -0.044296  0.065616      2.000000
  0.037989 -0.066444  0.078981      2.000000
 -0.077905  0.000000  0.038885      2.000000
 
 
 Subroutine IBZKPT_HF returns following result:
 ==============================================
 
 Found     80 k-points in 1st BZ
 the following     80 k-points will be used (e.g. in the exchange kernel)
 Following reciprocal coordinates:   # in IRBZ
  0.000000  0.000000  0.000000       1 t-inv F
  0.250000  0.000000  0.000000       2 t-inv F
  0.500000  0.000000  0.000000       3 t-inv F
  0.000000  0.250000  0.000000       4 t-inv F
  0.250000  0.250000  0.000000       5 t-inv F
  0.500000  0.250000 -0.000000       6 t-inv F
 -0.250000  0.250000  0.000000       7 t-inv F
  0.000000  0.500000  0.000000       8 t-inv F
  0.250000  0.500000 -0.000000       9 t-inv F
  0.500000  0.500000  0.000000      10 t-inv F
 -0.000000 -0.000000  0.200000      11 t-inv F
  0.250000  0.000000  0.200000      12 t-inv F
  0.500000  0.000000  0.200000      13 t-inv F
 -0.250000 -0.000000  0.200000      14 t-inv F
  0.000000  0.250000  0.200000      15 t-inv F
  0.250000  0.250000  0.200000      16 t-inv F
  0.500000  0.250000  0.200000      17 t-inv F
 -0.250000  0.250000  0.200000      18 t-inv F
  0.000000  0.500000  0.200000      19 t-inv F
  0.250000  0.500000  0.200000      20 t-inv F
  0.500000  0.500000  0.200000      21 t-inv F
 -0.250000  0.500000  0.200000      22 t-inv F
 -0.000000 -0.250000  0.200000      23 t-inv F
  0.250000 -0.250000  0.200000      24 t-inv F
  0.500000 -0.250000  0.200000      25 t-inv F
 -0.250000 -0.250000  0.200000      26 t-inv F
 -0.000000 -0.000000  0.400000      27 t-inv F
  0.250000  0.000000  0.400000      28 t-inv F
  0.500000  0.000000  0.400000      29 t-inv F
 -0.250000  0.000000  0.400000      30 t-inv F
  0.000000  0.250000  0.400000      31 t-inv F
  0.250000  0.250000  0.400000      32 t-inv F
  0.500000  0.250000  0.400000      33 t-inv F
 -0.250000  0.250000  0.400000      34 t-inv F
  0.000000  0.500000  0.400000      35 t-inv F
  0.250000  0.500000  0.400000      36 t-inv F
  0.500000  0.500000  0.400000      37 t-inv F
 -0.250000  0.500000  0.400000      38 t-inv F
  0.000000 -0.250000  0.400000      39 t-inv F
  0.250000 -0.250000  0.400000      40 t-inv F
  0.500000 -0.250000  0.400000      41 t-inv F
 -0.250000 -0.250000  0.400000      42 t-inv F
 -0.250000 -0.000000 -0.000000       2 t-inv T
 -0.000000 -0.250000 -0.000000       4 t-inv T
 -0.250000 -0.250000  0.000000       5 t-inv T
 -0.500000 -0.250000  0.000000       6 t-inv T
  0.250000 -0.250000  0.000000       7 t-inv T
 -0.250000 -0.500000  0.000000       9 t-inv T
  0.000000  0.000000 -0.200000      11 t-inv T
 -0.250000 -0.000000 -0.200000      12 t-inv T
 -0.500000 -0.000000 -0.200000      13 t-inv T
  0.250000  0.000000 -0.200000      14 t-inv T
 -0.000000 -0.250000 -0.200000      15 t-inv T
 -0.250000 -0.250000 -0.200000      16 t-inv T
 -0.500000 -0.250000 -0.200000      17 t-inv T
  0.250000 -0.250000 -0.200000      18 t-inv T
 -0.000000 -0.500000 -0.200000      19 t-inv T
 -0.250000 -0.500000 -0.200000      20 t-inv T
 -0.500000 -0.500000 -0.200000      21 t-inv T
  0.250000 -0.500000 -0.200000      22 t-inv T
  0.000000  0.250000 -0.200000      23 t-inv T
 -0.250000  0.250000 -0.200000      24 t-inv T
 -0.500000  0.250000 -0.200000      25 t-inv T
  0.250000  0.250000 -0.200000      26 t-inv T
  0.000000  0.000000 -0.400000      27 t-inv T
 -0.250000 -0.000000 -0.400000      28 t-inv T
 -0.500000 -0.000000 -0.400000      29 t-inv T
  0.250000 -0.000000 -0.400000      30 t-inv T
 -0.000000 -0.250000 -0.400000      31 t-inv T
 -0.250000 -0.250000 -0.400000      32 t-inv T
 -0.500000 -0.250000 -0.400000      33 t-inv T
  0.250000 -0.250000 -0.400000      34 t-inv T
 -0.000000 -0.500000 -0.400000      35 t-inv T
 -0.250000 -0.500000 -0.400000      36 t-inv T
 -0.500000 -0.500000 -0.400000      37 t-inv T
  0.250000 -0.500000 -0.400000      38 t-inv T
 -0.000000  0.250000 -0.400000      39 t-inv T
 -0.250000  0.250000 -0.400000      40 t-inv T
 -0.500000  0.250000 -0.400000      41 t-inv T
  0.250000  0.250000 -0.400000      42 t-inv T


--------------------------------------------------------------------------------------------------------




 Dimension of arrays:
   k-points           NKPTS =     42   k-points in BZ     NKDIM =     80   number of bands    NBANDS=     80
   number of dos      NEDOS =    301   number of ions     NIONS =     12
   non local maximal  LDIM  =      6   non local SUM 2l+1 LMDIM =     18
   total plane-waves  NPLWV =  32768
   max r-space proj   IRMAX =      1   max aug-charges    IRDMAX=   8224
   dimension x,y,z NGX =    32 NGY =   32 NGZ =   32
   dimension x,y,z NGXF=    64 NGYF=   64 NGZF=   64
   support grid    NGXF=    64 NGYF=   64 NGZF=   64
   ions per type =               4   2   6
 NGX,Y,Z   is equivalent  to a cutoff of   8.18,  8.18,  8.27 a.u.
 NGXF,Y,Z  is equivalent  to a cutoff of  16.37, 16.37, 16.55 a.u.


 I would recommend the setting:
   dimension x,y,z NGX =    32 NGY =   32 NGZ =   31
 SYSTEM =  CGS                                     
 POSCAR =  Cu Ge S                                 

 Startparameter for this run:
   NWRITE =      2    write-flag & timer
   PREC   = normal    normal or accurate (medium, high low for compatibility)
   ISTART =      1    job   : 0-new  1-cont  2-samecut
   ICHARG =      0    charge: 1-file 2-atom 10-const
   ISPIN  =      1    spin polarized calculation?
   LNONCOLLINEAR =      F non collinear calculations
   LSORBIT =      F    spin-orbit coupling
   INIWAV =      1    electr: 0-lowe 1-rand  2-diag
   LASPH  =      F    aspherical Exc in radial PAW
   METAGGA=      F    non-selfconsistent MetaGGA calc.

 Electronic Relaxation 1
   ENCUT  =  400.0 eV  29.40 Ry    5.42 a.u.  10.60 10.60 10.48*2*pi/ulx,y,z
   ENINI  =  400.0     initial cutoff
   ENAUG  =  758.2 eV  augmentation charge cutoff
   NELM   =     60;   NELMIN=  2; NELMDL=  0     # of ELM steps 
   EDIFF  = 0.1E-04   stopping-criterion for ELM
   LREAL  =      F    real-space projection
   NLSPLINE    = F    spline interpolate recip. space projectors
   LCOMPAT=      F    compatible to vasp.4.4
   GGA_COMPAT  = T    GGA compatible to vasp.4.4-vasp.4.6
   LMAXPAW     = -100 max onsite density
   LMAXMIX     =    2 max onsite mixed and CHGCAR
   VOSKOWN=      0    Vosko Wilk Nusair interpolation
   ROPT   =    0.00000   0.00000   0.00000
 Ionic relaxation
   EDIFFG = 0.1E-03   stopping-criterion for IOM
   NSW    =      0    number of steps for IOM
   NBLOCK =      1;   KBLOCK =      1    inner block; outer block 
   IBRION =     -1    ionic relax: 0-MD 1-quasi-New 2-CG
   NFREE  =      0    steps in history (QN), initial steepest desc. (CG)
   ISIF   =      0    stress and relaxation
   IWAVPR =     10    prediction:  0-non 1-charg 2-wave 3-comb
   ISYM   =      3    0-nonsym 1-usesym 2-fastsym
   LCORR  =      T    Harris-Foulkes like correction to forces

   POTIM  = 0.5000    time-step for ionic-motion
   TEIN   =    0.0    initial temperature
   TEBEG  =    0.0;   TEEND  =   0.0 temperature during run
   SMASS  =  -3.00    Nose mass-parameter (am)
   estimated Nose-frequenzy (Omega)   =  0.10E-29 period in steps =****** mass=  -0.966E-27a.u.
   SCALEE = 1.0000    scale energy and forces
   NPACO  =    256;   APACO  = 16.0  distance and # of slots for P.C.
   PSTRESS=    0.0 pullay stress

  Mass of Ions in am
   POMASS =  63.55 72.61 32.07
  Ionic Valenz
   ZVAL   =  17.00  4.00  6.00
  Atomic Wigner-Seitz radii
   RWIGS  =  -1.00 -1.00 -1.00
  virtual crystal weights 
   VCA    =   1.00  1.00  1.00
   NELECT =     112.0000    total number of electrons
   NUPDOWN=      -1.0000    fix difference up-down

 DOS related values:
   EMIN   =  10.00;   EMAX   =-10.00  energy-range for DOS
   EFERMI =   0.00
   ISMEAR =     1;   SIGMA  =   0.10  broadening in eV -4-tet -1-fermi 0-gaus

 Electronic relaxation 2 (details)
   IALGO  =     53    algorithm
   LDIAG  =      T    sub-space diagonalisation (order eigenvalues)
   LSUBROT=      T    optimize rotation matrix (better conditioning)
   TURBO    =      0    0=normal 1=particle mesh
   IRESTART =      0    0=no restart 2=restart with 2 vectors
   NREBOOT  =      0    no. of reboots
   NMIN     =      0    reboot dimension
   EREF     =   0.00    reference energy to select bands
   IMIX   =      4    mixing-type and parameters
     AMIX     =   0.40;   BMIX     =  1.00
     AMIX_MAG =   1.60;   BMIX_MAG =  1.00
     AMIN     =   0.10
     WC   =   100.;   INIMIX=   1;  MIXPRE=   1;  MAXMIX= -45

 Intra band minimization:
   WEIMIN = 0.0000     energy-eigenvalue tresh-hold
   EBREAK =  0.31E-07  absolut break condition
   DEPER  =   0.30     relativ break condition  

   TIME   =   0.40     timestep for ELM

  volume/ion in A,a.u.               =      18.49       124.79
  Fermi-wavevector in a.u.,A,eV,Ry     =   1.303450  2.463163 23.116052  1.698982
  Thomas-Fermi vector in A             =   2.434451
 
 Write flags
   LWAVE  =      T    write WAVECAR
   LCHARG =      T    write CHGCAR
   LVTOT  =      F    write LOCPOT, total local potential
   LVHAR  =      F    write LOCPOT, Hartree potential only
   LELF   =      F    write electronic localiz. function (ELF)
   LORBIT =      0    0 simple, 1 ext, 2 COOP (PROOUT)


 Dipole corrections
   LMONO  =      F    monopole corrections only (constant potential shift)
   LDIPOL =      F    correct potential (dipole corrections)
   IDIPOL =      0    1-x, 2-y, 3-z, 4-all directions 
   EPSILON=  1.0000000 bulk dielectric constant

 Exchange correlation treatment:
   GGA     =    PE    GGA type
   LEXCH   =     8    internal setting for exchange type
   VOSKOWN=      0    Vosko Wilk Nusair interpolation
   EXXOEP  =     0    0=HF, 1=EXX-LHF (local Hartree Fock) 2=EXX OEP
   LHFCALC =     T    Hartree Fock is set to
   LSYMGRAD=     F    symmetrize gradient (conserves proper symmetry)
   PRECFOCK=fast      Normal, Fast or Accurate (Low or Medium for compatibility)
   LRHFCALC=     F    long range Hartree Fock
   LRSCOR  =     F    long range correlation only (use DFT for short range part)
   LTHOMAS =     F    Thomas Fermi screening in HF
   LMODELHF=     F    short range full HF, long range fraction AEXX
   ENCUT4O =  -1.0   cutoff for four orbital integrals eV
   LMAXFOCK=     4    L truncation for augmentation on plane wave grid
   LMAXFOCKAE=  -1    L truncation for all-electron charge restoration on plane wave grid
   NMAXFOCKAE=   1    number of basis functions for all-electron charge restoration
   LFOCKAEDFT=     F  apply the AE augmentation even for DFT
   NKREDX  =     1    reduce k-point grid by
   NKREDY  =     1    reduce k-point grid by
   NKREDZ  =     1    reduce k-point grid by
   SHIFTRED=     F    shift reduced grid of Gamma
   HFKIDENT=     F    idential grid for each k-point
   ODDONLY =     F    use only odd q-grid points
   EVENONLY=     F    use only even q-grid points
   HFALPHA =   -1.0000 decay constant for conv. correction
   MCALPHA =    0.0000 extent of test-charge in conv. correction in multipole expansion
   AEXX    =    0.2500 exact exchange contribution
   HFSCREEN=    0.2000 screening length (either q_TF or 0.3 A-1)
   HFSCREENC=   0.2000 screening length for correlation (either q_TF or 0.3 A-1)
   HFRCUT  =    0.0000 spherical cutoff for potential kernel
   ALDAX   =    0.7500 LDA exchange part
   AGGAX   =    0.7500 GGA exchange part
   ALDAC   =    1.0000 LDA correlation
   AGGAC   =    1.0000 GGA correlation
   NBANDSGWLOW=     1    first orbital included in HF term
 Linear response parameters
   LEPSILON=     F    determine dielectric tensor
   LRPA    =     F    only Hartree local field effects (RPA)
   LNABLA  =     F    use nabla operator in PAW spheres
   LVEL    =     F    velocity operator in full k-point grid
   LINTERFAST=   F  fast interpolation
   KINTER  =     0    interpolate to denser k-point grid
   CSHIFT  =0.1000    complex shift for real part using Kramers Kronig
   OMEGAMAX=  -1.0    maximum frequency
   DEG_THRESHOLD= 0.2000000E-02 threshold for treating states as degnerate
   RTIME   =    0.100 relaxation time in fs

 Orbital magnetization related:
   ORBITALMAG=     F  switch on orbital magnetization
   LCHIMAG   =     F  perturbation theory with respect to B field
   DQ        =  0.001000  dq finite difference perturbation B field



--------------------------------------------------------------------------------------------------------


 Static calculation
 charge density and potential will be updated during run
 non-spin polarized calculation
 Conjugate gradient for all bands, subspace preconditioning
 perform sub-space diagonalisation
    before iterative eigenvector-optimisation
 modified Broyden-mixing scheme, WC =      100.0
 initial mixing is a Kerker type mixing with AMIX =  0.4000 and BMIX =      1.0000
 Hartree-type preconditioning will be used
 using additional bands           24
 reciprocal scheme for non local part
 use partial core corrections
 no Harris-corrections to forces 
 use gradient corrections 
 use of overlap-Matrix (Vanderbilt PP)
 Methfessel and Paxton  Order N= 1 SIGMA  =   0.10


--------------------------------------------------------------------------------------------------------


  energy-cutoff  :      400.00
  volume of cell :      221.90
      direct lattice vectors                 reciprocal lattice vectors
     3.224796000 -5.643830000  0.031572000     0.154525165 -0.088592321  0.053460880
     3.224796000  5.643830000  0.031572000     0.154525165  0.088592321  0.053460880
    -2.101946000  0.000000000  6.075537000    -0.001606004  0.000000000  0.164038877

  length of vectors
     6.500240234  6.500240234  6.428866683     0.185969598  0.185969598  0.164046738


 
 old parameters found on file WAVECAR:
  energy-cutoff  :      400.00
  volume of cell :      222.35
      direct lattice vectors                 reciprocal lattice vectors
     3.227235519 -5.642745207  0.030241751     0.154430495 -0.088609353  0.053450002
     3.227235519  5.642745207  0.030241751     0.154430495  0.088609353  0.053450002
    -2.106135241  0.000000000  6.085154262    -0.001534965  0.000000000  0.163803104

  length of vectors

 
 k-points in units of 2pi/SCALE and weight: pymatgen 4.7.6+ generated KPOINTS with g
   0.00000000  0.00000000  0.00000000       0.013
   0.03863129 -0.02214808  0.01336522       0.025
   0.07726258 -0.04429616  0.02673044       0.013
   0.03863129  0.02214808  0.01336522       0.025
   0.07726258  0.00000000  0.02673044       0.025
   0.11589387 -0.02214808  0.04009566       0.025
   0.00000000  0.04429616  0.00000000       0.025
   0.07726258  0.04429616  0.02673044       0.013
   0.11589387  0.02214808  0.04009566       0.025
   0.15452516  0.00000000  0.05346088       0.013
  -0.00032120  0.00000000  0.03280778       0.025
   0.03831009 -0.02214808  0.04617300       0.025
   0.07694138 -0.04429616  0.05953822       0.025
  -0.03895249  0.02214808  0.01944256       0.025
   0.03831009  0.02214808  0.04617300       0.025
   0.07694138  0.00000000  0.05953822       0.025
   0.11557267 -0.02214808  0.07290344       0.025
  -0.00032120  0.04429616  0.03280778       0.025
   0.07694138  0.04429616  0.05953822       0.025
   0.11557267  0.02214808  0.07290344       0.025
   0.15420396  0.00000000  0.08626865       0.025
   0.03831009  0.06644424  0.04617300       0.025
  -0.03895249 -0.02214808  0.01944256       0.025
  -0.00032120 -0.04429616  0.03280778       0.025
   0.03831009 -0.06644424  0.04617300       0.025
  -0.07758378  0.00000000  0.00607734       0.025
  -0.00064240  0.00000000  0.06561555       0.025
   0.03798889 -0.02214808  0.07898077       0.025
   0.07662018 -0.04429616  0.09234599       0.025
  -0.03927369  0.02214808  0.05225033       0.025
   0.03798889  0.02214808  0.07898077       0.025
   0.07662018  0.00000000  0.09234599       0.025
   0.11525147 -0.02214808  0.10571121       0.025
  -0.00064240  0.04429616  0.06561555       0.025
   0.07662018  0.04429616  0.09234599       0.025
   0.11525147  0.02214808  0.10571121       0.025
   0.15388276  0.00000000  0.11907643       0.025
   0.03798889  0.06644424  0.07898077       0.025
  -0.03927369 -0.02214808  0.05225033       0.025
  -0.00064240 -0.04429616  0.06561555       0.025
   0.03798889 -0.06644424  0.07898077       0.025
  -0.07790498  0.00000000  0.03888511       0.025
 
 k-points in reciprocal lattice and weights: pymatgen 4.7.6+ generated KPOINTS with g
   0.00000000  0.00000000  0.00000000       0.013
   0.25000000  0.00000000  0.00000000       0.025
   0.50000000  0.00000000  0.00000000       0.013
   0.00000000  0.25000000  0.00000000       0.025
   0.25000000  0.25000000  0.00000000       0.025
   0.50000000  0.25000000 -0.00000000       0.025
  -0.25000000  0.25000000  0.00000000       0.025
   0.00000000  0.50000000  0.00000000       0.013
   0.25000000  0.50000000 -0.00000000       0.025
   0.50000000  0.50000000  0.00000000       0.013
  -0.00000000 -0.00000000  0.20000000       0.025
   0.25000000  0.00000000  0.20000000       0.025
   0.50000000  0.00000000  0.20000000       0.025
  -0.25000000 -0.00000000  0.20000000       0.025
   0.00000000  0.25000000  0.20000000       0.025
   0.25000000  0.25000000  0.20000000       0.025
   0.50000000  0.25000000  0.20000000       0.025
  -0.25000000  0.25000000  0.20000000       0.025
   0.00000000  0.50000000  0.20000000       0.025
   0.25000000  0.50000000  0.20000000       0.025
   0.50000000  0.50000000  0.20000000       0.025
  -0.25000000  0.50000000  0.20000000       0.025
  -0.00000000 -0.25000000  0.20000000       0.025
   0.25000000 -0.25000000  0.20000000       0.025
   0.50000000 -0.25000000  0.20000000       0.025
  -0.25000000 -0.25000000  0.20000000       0.025
  -0.00000000 -0.00000000  0.40000000       0.025
   0.25000000  0.00000000  0.40000000       0.025
   0.50000000  0.00000000  0.40000000       0.025
  -0.25000000  0.00000000  0.40000000       0.025
   0.00000000  0.25000000  0.40000000       0.025
   0.25000000  0.25000000  0.40000000       0.025
   0.50000000  0.25000000  0.40000000       0.025
  -0.25000000  0.25000000  0.40000000       0.025
   0.00000000  0.50000000  0.40000000       0.025
   0.25000000  0.50000000  0.40000000       0.025
   0.50000000  0.50000000  0.40000000       0.025
  -0.25000000  0.50000000  0.40000000       0.025
   0.00000000 -0.25000000  0.40000000       0.025
   0.25000000 -0.25000000  0.40000000       0.025
   0.50000000 -0.25000000  0.40000000       0.025
  -0.25000000 -0.25000000  0.40000000       0.025
 
 position of ions in fractional coordinates (direct lattice) 
   0.61844300  0.12117100  0.11953300
   0.12117100  0.61844300  0.61953300
   0.96295700  0.79032200  0.11881300
   0.79032200  0.96295700  0.61881300
   0.43973200  0.26881940  0.59904700
   0.26728100  0.43973200  0.09904700
   0.07949800  0.91167500  0.49736300
   0.57140300  0.41236400  0.98018400
   0.73711100  0.25006200  0.49504900
   0.41236400  0.57140300  0.48018400
   0.91167500  0.07949800  0.99736300
   0.25006200  0.73711100  0.99504900
 
 position of ions in cartesian coordinates  (Angst):
   2.13385236 -2.80651863  0.74957826
   1.08287936  2.80651863  3.78734676
   5.40422860 -0.97432259  0.77720730
   4.35325560  0.97432259  3.81497580
   1.02576929 -0.96460163  3.66190260
   2.07178125  0.97328413  0.62408553
   2.15090056  4.69666552  3.05304062
   1.11215405 -0.89758908  5.98620365
   2.14286528 -2.74882176  3.03885554
   2.16312705  0.89758908  2.94843515
   1.09992756 -4.69666552  6.09080912
   1.09189228  2.74882176  6.07662404
 


--------------------------------------------------------------------------------------------------------


 k-point  1 :   0.0000 0.0000 0.0000  plane waves:    4051
 k-point  2 :   0.2500 0.0000 0.0000  plane waves:    4032
 k-point  3 :   0.5000 0.0000 0.0000  plane waves:    4030
 k-point  4 :   0.0000 0.2500 0.0000  plane waves:    4032
 k-point  5 :   0.2500 0.2500 0.0000  plane waves:    4038
 k-point  6 :   0.5000 0.2500-0.0000  plane waves:    4037
 k-point  7 :  -0.2500 0.2500 0.0000  plane waves:    4042
 k-point  8 :   0.0000 0.5000 0.0000  plane waves:    4030
 k-point  9 :   0.2500 0.5000-0.0000  plane waves:    4037
 k-point 10 :   0.5000 0.5000 0.0000  plane waves:    4026
 k-point 11 :  -0.0000-0.0000 0.2000  plane waves:    4046
 k-point 12 :   0.2500 0.0000 0.2000  plane waves:    4034
 k-point 13 :   0.5000 0.0000 0.2000  plane waves:    4025
 k-point 14 :  -0.2500-0.0000 0.2000  plane waves:    4044
 k-point 15 :   0.0000 0.2500 0.2000  plane waves:    4034
 k-point 16 :   0.2500 0.2500 0.2000  plane waves:    4017
 k-point 17 :   0.5000 0.2500 0.2000  plane waves:    4039
 k-point 18 :  -0.2500 0.2500 0.2000  plane waves:    4042
 k-point 19 :   0.0000 0.5000 0.2000  plane waves:    4025
 k-point 20 :   0.2500 0.5000 0.2000  plane waves:    4039
 k-point 21 :   0.5000 0.5000 0.2000  plane waves:    4030
 k-point 22 :  -0.2500 0.5000 0.2000  plane waves:    4030
 k-point 23 :  -0.0000-0.2500 0.2000  plane waves:    4044
 k-point 24 :   0.2500-0.2500 0.2000  plane waves:    4042
 k-point 25 :   0.5000-0.2500 0.2000  plane waves:    4030
 k-point 26 :  -0.2500-0.2500 0.2000  plane waves:    4020
 k-point 27 :  -0.0000-0.0000 0.4000  plane waves:    4027
 k-point 28 :   0.2500 0.0000 0.4000  plane waves:    4034
 k-point 29 :   0.5000 0.0000 0.4000  plane waves:    4013
 k-point 30 :  -0.2500 0.0000 0.4000  plane waves:    4042
 k-point 31 :   0.0000 0.2500 0.4000  plane waves:    4034
 k-point 32 :   0.2500 0.2500 0.4000  plane waves:    4009
 k-point 33 :   0.5000 0.2500 0.4000  plane waves:    4026
 k-point 34 :  -0.2500 0.2500 0.4000  plane waves:    4027
 k-point 35 :   0.0000 0.5000 0.4000  plane waves:    4013
 k-point 36 :   0.2500 0.5000 0.4000  plane waves:    4026
 k-point 37 :   0.5000 0.5000 0.4000  plane waves:    4037
 k-point 38 :  -0.2500 0.5000 0.4000  plane waves:    4022
 k-point 39 :   0.0000-0.2500 0.4000  plane waves:    4042
 k-point 40 :   0.2500-0.2500 0.4000  plane waves:    4027
 k-point 41 :   0.5000-0.2500 0.4000  plane waves:    4022
 k-point 42 :  -0.2500-0.2500 0.4000  plane waves:    4015

 maximum and minimum number of plane-waves per node :      4051     4009

 maximum number of plane-waves:      4051
 maximum index in each direction: 
   IXMAX=   10   IYMAX=   10   IZMAX=   10
   IXMIN=  -11   IYMIN=  -11   IZMIN=  -10

 WARNING: aliasing errors must be expected set NGX to  44 to avoid them
 WARNING: aliasing errors must be expected set NGY to  44 to avoid them
 WARNING: aliasing errors must be expected set NGZ to  42 to avoid them
 aliasing errors are usually negligible using standard VASP settings
 and one can safely disregard these warnings

 serial   3D FFT for wavefunctions
 parallel 3D FFT for charge:
    minimum data exchange during FFTs selected (reduces bandwidth)


 FFT grid for exact exchange (Hartree Fock) 
  NGX = 24; NGY = 24; NGZ = 24

 
 Radii for the augmentation spheres in the non-local exchange
 for species   1 augmentation radius   1.120 (default was   0.830)
       energy cutoff for augmentation   1600.0
 for species   2 augmentation radius   1.570 (default was   1.163)
       energy cutoff for augmentation   1600.0
 for species   3 augmentation radius   1.034 (default was   0.970)
       energy cutoff for augmentation   1600.0

 total amount of memory used by VASP on root node   151699. kBytes
========================================================================

   base      :      30000. kBytes
   nonl-proj :      74517. kBytes
   fftplans  :        702. kBytes
   grid      :       2400. kBytes
   one-center:        186. kBytes
   HF        :        194. kBytes
   nonlr-proj:       1124. kBytes
   wavefun   :      42576. kBytes
 
 Broyden mixing: mesh for mixing (old mesh)
   NGX = 21   NGY = 21   NGZ = 21
  (NGX  = 64   NGY  = 64   NGZ  = 64)
  gives a total of   9261 points

 charge density for first step will be calculated from the start-wavefunctions


--------------------------------------------------------------------------------------------------------


 Maximum index for augmentation-charges          485 (set IRDMAX)


--------------------------------------------------------------------------------------------------------


 initial charge from wavefunction
 First call to EWALD:  gamma=   0.293
 Maximum number of real-space cells 3x 3x 3
 Maximum number of reciprocal cells 3x 3x 3

 FEWALD executed in parallel
    FEWALD:  cpu time    0.00: real time    0.00


----------------------------------------- Iteration    1(   1)  ---------------------------------------


    POTLOK:  cpu time    0.08: real time    0.08
    SETDIJ:  cpu time    1.88: real time    1.88
 
    SUBROT:  cpu time    0.79: real time    0.79
    SUBROT:  cpu time    0.36: real time    0.36
    SUBROT:  cpu time    0.37: real time    0.37
    --------------------------------------------
    SUBRT+:  cpu time    1.52: real time    1.52

 Broyden mixing:
  rms(total) = 0.33484E-01    rms(broyden)= 0.33469E-01
  rms(prec ) = 0.49171E-01
  weight for this iteration     100.00

 eigenvalues of (default mixing * dielectric matrix)
  average eigenvalue GAMMA=   1.7336
  1.0169  2.4503
 
    TRIAL :  cpu time  231.97: real time  231.77
    CORREC:  cpu time    0.00: real time    0.00
    CHARGE:  cpu time    0.06: real time    0.06
    --------------------------------------------
      LOOP:  cpu time  234.00: real time  233.80

 eigenvalue-minimisations  :     0
 total energy-change (2. order) : 0.7552094E+02  (-0.2131627E+03)
 number of electron     112.0001480 magnetization 
 augmentation part       38.9111576 magnetization 

 Free energy of the ion-electron system (eV)
  ---------------------------------------------------
  alpha Z        PSCENC =       339.31929130
  Ewald energy   TEWEN  =     -9064.95573510
  -1/2 Hartree   DENC   =     -8067.42345037
  -exchange  EXHF       =       327.44980492
  -V(xc)+E(xc)   XCENC  =       369.90509115
  PAW double counting   =     16898.79341262   -17391.60796344
  entropy T*S    EENTRO =        -0.00146323
  eigenvalues    EBANDS =     -1656.94319934
  atomic energy  EATOM  =     18320.98302006
  ---------------------------------------------------
  free energy    TOTEN  =        75.52093511 eV

  energy without entropy =       75.52239834  energy(sigma->0) =       75.52142285


--------------------------------------------------------------------------------------------------------




----------------------------------------- Iteration    1(   2)  ---------------------------------------


    POTLOK:  cpu time    0.05: real time    0.05
    SETDIJ:  cpu time    1.92: real time    1.92
 
    SUBROT:  cpu time    0.77: real time    0.77
    SUBROT:  cpu time    0.38: real time    0.38
    SUBROT:  cpu time    0.38: real time    0.38
    SUBROT:  cpu time    0.38: real time    0.38
    --------------------------------------------
    SUBRT+:  cpu time    1.91: real time    1.91

 Broyden mixing:
  rms(total) = 0.27752E-01    rms(broyden)= 0.27742E-01
  rms(prec ) = 0.50782E-01
  weight for this iteration     100.00

 eigenvalues of (default mixing * dielectric matrix)
  average eigenvalue GAMMA=   1.5738
  2.5493  1.3076  0.8646
 
    TRIAL :  cpu time  238.45: real time  238.26
    CORREC:  cpu time    0.00: real time    0.00
    CHARGE:  cpu time    0.06: real time    0.06
    --------------------------------------------
      LOOP:  cpu time  240.49: real time  240.30

 eigenvalue-minimisations  :     0
 total energy-change (2. order) :-0.8390661E+02  (-0.1468702E+03)
 number of electron     112.0001385 magnetization 
 augmentation part       35.4525991 magnetization 

 Free energy of the ion-electron system (eV)
  ---------------------------------------------------
  alpha Z        PSCENC =       339.31929130
  Ewald energy   TEWEN  =     -9064.95573510
  -1/2 Hartree   DENC   =     -8370.10564577
  -exchange  EXHF       =       338.95382900
  -V(xc)+E(xc)   XCENC  =       377.31638132
  PAW double counting   =     17400.16623843   -17939.27778144
  entropy T*S    EENTRO =        -0.00071782
  eigenvalues    EBANDS =     -1410.78380714
  atomic energy  EATOM  =     18320.98302006
  ---------------------------------------------------
  free energy    TOTEN  =        -8.38567256 eV

  energy without entropy =       -8.38495474  energy(sigma->0) =       -8.38543329


--------------------------------------------------------------------------------------------------------




----------------------------------------- Iteration    1(   3)  ---------------------------------------


    POTLOK:  cpu time    0.05: real time    0.05
    SETDIJ:  cpu time    1.87: real time    1.87
 
    SUBROT:  cpu time    0.79: real time    0.79
    SUBROT:  cpu time    0.37: real time    0.37
    SUBROT:  cpu time    0.36: real time    0.36
    SUBROT:  cpu time    0.36: real time    0.36
    --------------------------------------------
    SUBRT+:  cpu time    1.89: real time    1.92

 Broyden mixing:
  rms(total) = 0.28100E-01    rms(broyden)= 0.28089E-01
  rms(prec ) = 0.52369E-01
  weight for this iteration     100.00

 eigenvalues of (default mixing * dielectric matrix)
  average eigenvalue GAMMA=   1.7742
  1.0116  2.4991  1.8121
 
    TRIAL :  cpu time  237.32: real time  237.14
    CORREC:  cpu time    0.00: real time    0.00
    CHARGE:  cpu time    0.06: real time    0.06
    --------------------------------------------
      LOOP:  cpu time  239.30: real time  239.12

 eigenvalue-minimisations  :     0
 total energy-change (2. order) :-0.6747514E+01  (-0.2038536E+03)
 number of electron     112.0001510 magnetization 
 augmentation part       39.6866769 magnetization 

 Free energy of the ion-electron system (eV)
  ---------------------------------------------------
  alpha Z        PSCENC =       339.31929130
  Ewald energy   TEWEN  =     -9064.95573510
  -1/2 Hartree   DENC   =     -7476.96516193
  -exchange  EXHF       =       324.97640784
  -V(xc)+E(xc)   XCENC  =       357.38395912
  PAW double counting   =     15148.64195062   -15578.10287984
  entropy T*S    EENTRO =         0.00029991
  eigenvalues    EBANDS =     -2386.41332048
  atomic energy  EATOM  =     18320.98302006
  ---------------------------------------------------
  free energy    TOTEN  =       -15.13318623 eV

  energy without entropy =      -15.13348614  energy(sigma->0) =      -15.13328620


--------------------------------------------------------------------------------------------------------




----------------------------------------- Iteration    1(   4)  ---------------------------------------


    POTLOK:  cpu time    0.07: real time    0.07
    SETDIJ:  cpu time    1.88: real time    1.87
 
    SUBROT:  cpu time    0.79: real time    0.79
    SUBROT:  cpu time    0.39: real time    0.39
    SUBROT:  cpu time    0.36: real time    0.36
    SUBROT:  cpu time    0.36: real time    0.36
    SUBROT:  cpu time    0.39: real time    0.39
    --------------------------------------------
    SUBRT+:  cpu time    2.29: real time    2.31

 Broyden mixing:
  rms(total) = 0.11753E+00    rms(broyden)= 0.11734E+00
  rms(prec ) = 0.20711E+00
  weight for this iteration     100.00

 eigenvalues of (default mixing * dielectric matrix)
  average eigenvalue GAMMA=   1.2249
  2.5640  1.3005  0.6508  0.3843
 
    TRIAL :  cpu time  238.30: real time  238.12
    CORREC:  cpu time    0.00: real time    0.00
    CHARGE:  cpu time    0.07: real time    0.07
    --------------------------------------------
      LOOP:  cpu time  240.32: real time  240.13

 eigenvalue-minimisations  :     0
 total energy-change (2. order) :-0.7466864E+01  (-0.1075130E+03)
 number of electron     112.0001430 magnetization 
 augmentation part       37.2408412 magnetization 

 Free energy of the ion-electron system (eV)
  ---------------------------------------------------
  alpha Z        PSCENC =       339.31929130
  Ewald energy   TEWEN  =     -9064.95573510
  -1/2 Hartree   DENC   =     -8543.51055784
  -exchange  EXHF       =       343.00041947
  -V(xc)+E(xc)   XCENC  =       381.66589002
  PAW double counting   =     17634.37998256   -18215.20676406
  entropy T*S    EENTRO =         0.00037182
  eigenvalues    EBANDS =     -1218.27589671
  atomic energy  EATOM  =     18320.98302006
  ---------------------------------------------------
  free energy    TOTEN  =       -22.60005038 eV

  energy without entropy =      -22.60042220  energy(sigma->0) =      -22.60017432


--------------------------------------------------------------------------------------------------------




----------------------------------------- Iteration    1(   5)  ---------------------------------------


    POTLOK:  cpu time    0.05: real time    0.05
    SETDIJ:  cpu time    1.87: real time    1.87
 
    SUBROT:  cpu time    0.80: real time    0.80
    SUBROT:  cpu time    0.37: real time    0.37
    SUBROT:  cpu time    0.37: real time    0.37
    SUBROT:  cpu time    0.37: real time    0.37
    --------------------------------------------
    SUBRT+:  cpu time    1.91: real time    1.91

 Broyden mixing:
  rms(total) = 0.45272E-01    rms(broyden)= 0.45262E-01
  rms(prec ) = 0.92132E-01
  weight for this iteration     100.00

 eigenvalues of (default mixing * dielectric matrix)
  average eigenvalue GAMMA=   1.6820
  2.4612  0.9357  1.6490
 
    TRIAL :  cpu time  236.64: real time  236.44
    CORREC:  cpu time    0.00: real time    0.00
    CHARGE:  cpu time    0.06: real time    0.06
    --------------------------------------------
      LOOP:  cpu time  238.62: real time  238.42

 eigenvalue-minimisations  :     0
 total energy-change (2. order) :-0.3820360E+02  (-0.1509061E+02)
 number of electron     112.0001430 magnetization 
 augmentation part       37.2456904 magnetization 

 Free energy of the ion-electron system (eV)
  ---------------------------------------------------
  alpha Z        PSCENC =       339.31929130
  Ewald energy   TEWEN  =     -9064.95573510
  -1/2 Hartree   DENC   =     -8007.27896510
  -exchange  EXHF       =       336.36742548
  -V(xc)+E(xc)   XCENC  =       368.37987763
  PAW double counting   =     15868.42094171   -16337.79594907
  entropy T*S    EENTRO =         0.00061029
  eigenvalues    EBANDS =     -1884.24392762
  atomic energy  EATOM  =     18320.98302006
  ---------------------------------------------------
  free energy    TOTEN  =       -60.80364889 eV

  energy without entropy =      -60.80425917  energy(sigma->0) =      -60.80385231


--------------------------------------------------------------------------------------------------------




----------------------------------------- Iteration    1(   6)  ---------------------------------------


    POTLOK:  cpu time    0.05: real time    0.05
    SETDIJ:  cpu time    1.87: real time    1.87
 
    SUBROT:  cpu time    0.77: real time    0.77
    SUBROT:  cpu time    0.37: real time    0.37
    SUBROT:  cpu time    0.38: real time    0.38
    SUBROT:  cpu time    0.38: real time    0.38
    --------------------------------------------
    SUBRT+:  cpu time    1.90: real time    1.91

 Broyden mixing:
  rms(total) = 0.27817E-02    rms(broyden)= 0.27810E-02
  rms(prec ) = 0.45933E-02
  weight for this iteration     100.00

 eigenvalues of (default mixing * dielectric matrix)
  average eigenvalue GAMMA=   1.8138
  1.0063  1.9075  2.5276
 
    TRIAL :  cpu time  237.04: real time  236.83
    CORREC:  cpu time    0.00: real time    0.00
    CHARGE:  cpu time    0.06: real time    0.06
    --------------------------------------------
      LOOP:  cpu time  239.02: real time  238.82

 eigenvalue-minimisations  :     0
 total energy-change (2. order) :-0.5125584E+01  (-0.8179819E+01)
 number of electron     112.0001460 magnetization 
 augmentation part       38.2278974 magnetization 

 Free energy of the ion-electron system (eV)
  ---------------------------------------------------
  alpha Z        PSCENC =       339.31929130
  Ewald energy   TEWEN  =     -9064.95573510
  -1/2 Hartree   DENC   =     -8001.02969271
  -exchange  EXHF       =       337.13880427
  -V(xc)+E(xc)   XCENC  =       368.78031232
  PAW double counting   =     15770.95606394   -16240.03441589
  entropy T*S    EENTRO =         0.00066512
  eigenvalues    EBANDS =     -1897.08749160
  atomic energy  EATOM  =     18320.98302006
  ---------------------------------------------------
  free energy    TOTEN  =       -65.92923312 eV

  energy without entropy =      -65.92989824  energy(sigma->0) =      -65.92945482


--------------------------------------------------------------------------------------------------------




----------------------------------------- Iteration    1(   7)  ---------------------------------------


    POTLOK:  cpu time    0.06: real time    0.06
    SETDIJ:  cpu time    1.87: real time    1.87
 
    SUBROT:  cpu time    0.76: real time    0.76
    SUBROT:  cpu time    0.37: real time    0.37
    SUBROT:  cpu time    0.37: real time    0.37
    SUBROT:  cpu time    0.36: real time    0.36
    --------------------------------------------
    SUBRT+:  cpu time    1.87: real time    1.89

 Broyden mixing:
  rms(total) = 0.13289E-01    rms(broyden)= 0.13285E-01
  rms(prec ) = 0.23549E-01
  weight for this iteration     100.00

 eigenvalues of (default mixing * dielectric matrix)
  average eigenvalue GAMMA=   1.6132
  2.5025  0.8900  1.4471
 
    TRIAL :  cpu time  237.15: real time  236.96
    CORREC:  cpu time    0.00: real time    0.00
    CHARGE:  cpu time    0.06: real time    0.06
    --------------------------------------------
      LOOP:  cpu time  239.14: real time  238.95

 eigenvalue-minimisations  :     0
 total energy-change (2. order) :-0.1540423E+01  (-0.4143335E+01)
 number of electron     112.0001443 magnetization 
 augmentation part       37.7045465 magnetization 

 Free energy of the ion-electron system (eV)
  ---------------------------------------------------
  alpha Z        PSCENC =       339.31929130
  Ewald energy   TEWEN  =     -9064.95573510
  -1/2 Hartree   DENC   =     -8243.22754289
  -exchange  EXHF       =       341.61564938
  -V(xc)+E(xc)   XCENC  =       374.55840547
  PAW double counting   =     16207.35868387   -16710.76103214
  entropy T*S    EENTRO =         0.00044022
  eigenvalues    EBANDS =     -1632.36106137
  atomic energy  EATOM  =     18320.98302006
  ---------------------------------------------------
  free energy    TOTEN  =       -67.46965631 eV

  energy without entropy =      -67.47009653  energy(sigma->0) =      -67.46980305


--------------------------------------------------------------------------------------------------------




----------------------------------------- Iteration    1(   8)  ---------------------------------------


    POTLOK:  cpu time    0.06: real time    0.06
    SETDIJ:  cpu time    1.96: real time    1.96
 
    SUBROT:  cpu time    0.76: real time    0.76
    SUBROT:  cpu time    0.37: real time    0.37
    SUBROT:  cpu time    0.38: real time    0.38
    SUBROT:  cpu time    0.38: real time    0.38
    --------------------------------------------
    SUBRT+:  cpu time    1.89: real time    1.94

 Broyden mixing:
  rms(total) = 0.84303E-02    rms(broyden)= 0.84279E-02
  rms(prec ) = 0.14121E-01
  weight for this iteration     100.00

 eigenvalues of (default mixing * dielectric matrix)
  average eigenvalue GAMMA=   1.6732
  2.4567  0.9465  1.6163
 
    TRIAL :  cpu time  243.35: real time  243.19
    CORREC:  cpu time    0.00: real time    0.00
    CHARGE:  cpu time    0.08: real time    0.08
    --------------------------------------------
      LOOP:  cpu time  245.46: real time  245.30

 eigenvalue-minimisations  :     0
 total energy-change (2. order) :-0.1613710E+01  (-0.7731841E+00)
 number of electron     112.0001443 magnetization 
 augmentation part       37.7244532 magnetization 

 Free energy of the ion-electron system (eV)
  ---------------------------------------------------
  alpha Z        PSCENC =       339.31929130
  Ewald energy   TEWEN  =     -9064.95573510
  -1/2 Hartree   DENC   =     -8116.27688604
  -exchange  EXHF       =       339.51242557
  -V(xc)+E(xc)   XCENC  =       371.37399001
  PAW double counting   =     15915.47841057   -16396.81997525
  entropy T*S    EENTRO =         0.00073216
  eigenvalues    EBANDS =     -1777.69834736
  atomic energy  EATOM  =     18320.98302006
  ---------------------------------------------------
  free energy    TOTEN  =       -69.08336601 eV

  energy without entropy =      -69.08409817  energy(sigma->0) =      -69.08361006


--------------------------------------------------------------------------------------------------------




----------------------------------------- Iteration    1(   9)  ---------------------------------------


    POTLOK:  cpu time    0.05: real time    0.05
    SETDIJ:  cpu time    1.96: real time    1.96
 
    SUBROT:  cpu time    0.81: real time    0.81
    SUBROT:  cpu time    0.38: real time    0.38
    SUBROT:  cpu time    0.38: real time    0.38
    SUBROT:  cpu time    0.38: real time    0.38
    --------------------------------------------
    SUBRT+:  cpu time    1.95: real time    1.95

 Broyden mixing:
  rms(total) = 0.51515E-03    rms(broyden)= 0.51454E-03
  rms(prec ) = 0.81617E-03
  weight for this iteration     100.00

 eigenvalues of (default mixing * dielectric matrix)
  average eigenvalue GAMMA=   1.6809
  2.5210  0.9993  1.5225
 
    TRIAL :  cpu time  245.05: real time  244.84
    CORREC:  cpu time    0.00: real time    0.00
    CHARGE:  cpu time    0.06: real time    0.06
    --------------------------------------------
      LOOP:  cpu time  247.13: real time  246.92

 eigenvalue-minimisations  :     0
 total energy-change (2. order) :-0.3113953E+00  (-0.3863406E+00)
 number of electron     112.0001449 magnetization 
 augmentation part       37.9056191 magnetization 

 Free energy of the ion-electron system (eV)
  ---------------------------------------------------
  alpha Z        PSCENC =       339.31929130
  Ewald energy   TEWEN  =     -9064.95573510
  -1/2 Hartree   DENC   =     -8124.16108149
  -exchange  EXHF       =       339.59110174
  -V(xc)+E(xc)   XCENC  =       371.44283077
  PAW double counting   =     15912.22511678   -16393.49245161
  entropy T*S    EENTRO =         0.00086824
  eigenvalues    EBANDS =     -1770.34758593
  atomic energy  EATOM  =     18320.98302006
  ---------------------------------------------------
  free energy    TOTEN  =       -69.39476132 eV

  energy without entropy =      -69.39562956  energy(sigma->0) =      -69.39505073


--------------------------------------------------------------------------------------------------------




----------------------------------------- Iteration    1(  10)  ---------------------------------------


    POTLOK:  cpu time    0.05: real time    0.05
    SETDIJ:  cpu time    1.96: real time    1.96
 
    SUBROT:  cpu time    0.79: real time    0.79
    SUBROT:  cpu time    0.39: real time    0.39
    SUBROT:  cpu time    0.40: real time    0.40
    SUBROT:  cpu time    0.40: real time    0.40
    --------------------------------------------
    SUBRT+:  cpu time    1.97: real time    1.97

 Broyden mixing:
  rms(total) = 0.23045E-02    rms(broyden)= 0.23040E-02
  rms(prec ) = 0.38683E-02
  weight for this iteration     100.00

 eigenvalues of (default mixing * dielectric matrix)
  average eigenvalue GAMMA=   1.6821
  2.4756  0.9878  1.5829
 
    TRIAL :  cpu time  244.51: real time  244.30
    CORREC:  cpu time    0.00: real time    0.00
    CHARGE:  cpu time    0.07: real time    0.07
    --------------------------------------------
      LOOP:  cpu time  246.59: real time  246.39

 eigenvalue-minimisations  :     0
 total energy-change (2. order) :-0.1036684E+00  (-0.1527372E+00)
 number of electron     112.0001447 magnetization 
 augmentation part       37.8181880 magnetization 

 Free energy of the ion-electron system (eV)
  ---------------------------------------------------
  alpha Z        PSCENC =       339.31929130
  Ewald energy   TEWEN  =     -9064.95573510
  -1/2 Hartree   DENC   =     -8171.52434990
  -exchange  EXHF       =       340.39476170
  -V(xc)+E(xc)   XCENC  =       372.53957658
  PAW double counting   =     15993.96678555   -16481.95869422
  entropy T*S    EENTRO =         0.00072779
  eigenvalues    EBANDS =     -1718.26395392
  atomic energy  EATOM  =     18320.98302006
  ---------------------------------------------------
  free energy    TOTEN  =       -69.49842971 eV

  energy without entropy =      -69.49915750  energy(sigma->0) =      -69.49867231


--------------------------------------------------------------------------------------------------------




----------------------------------------- Iteration    1(  11)  ---------------------------------------


    POTLOK:  cpu time    0.05: real time    0.10
    SETDIJ:  cpu time    1.83: real time    2.56
 
    SUBROT:  cpu time    0.80: real time    0.80
    SUBROT:  cpu time    0.38: real time    0.38
    SUBROT:  cpu time    0.39: real time    0.39
    SUBROT:  cpu time    0.39: real time    0.39
    --------------------------------------------
    SUBRT+:  cpu time    1.97: real time    2.00

 Broyden mixing:
  rms(total) = 0.78748E-03    rms(broyden)= 0.78723E-03
  rms(prec ) = 0.15747E-02
  weight for this iteration     100.00

 eigenvalues of (default mixing * dielectric matrix)
  average eigenvalue GAMMA=   1.6720
  2.4944  0.9838  1.5376
 
    TRIAL :  cpu time  244.32: real time  244.39
    CORREC:  cpu time    0.00: real time    0.00
    CHARGE:  cpu time    0.09: real time    0.09
    --------------------------------------------
      LOOP:  cpu time  246.29: real time  247.14

 eigenvalue-minimisations  :     0
 total energy-change (2. order) :-0.6976090E-01  (-0.3686911E-01)
 number of electron     112.0001446 magnetization 
 augmentation part       37.7855728 magnetization 

 Free energy of the ion-electron system (eV)
  ---------------------------------------------------
  alpha Z        PSCENC =       339.31929130
  Ewald energy   TEWEN  =     -9064.95573510
  -1/2 Hartree   DENC   =     -8150.08942094
  -exchange  EXHF       =       340.06545172
  -V(xc)+E(xc)   XCENC  =       372.06474209
  PAW double counting   =     15941.77314115   -16426.71310629
  entropy T*S    EENTRO =         0.00061000
  eigenvalues    EBANDS =     -1742.01630239
  atomic energy  EATOM  =     18320.98302006
  ---------------------------------------------------
  free energy    TOTEN  =       -69.56819061 eV

  energy without entropy =      -69.56880061  energy(sigma->0) =      -69.56839394


--------------------------------------------------------------------------------------------------------




----------------------------------------- Iteration    1(  12)  ---------------------------------------


    POTLOK:  cpu time    0.06: real time    0.06
    SETDIJ:  cpu time    1.96: real time    1.96
 
    SUBROT:  cpu time    0.82: real time    0.82
    SUBROT:  cpu time    0.39: real time    0.39
    SUBROT:  cpu time    0.40: real time    0.40
    SUBROT:  cpu time    0.39: real time    0.39
    --------------------------------------------
    SUBRT+:  cpu time    1.99: real time    2.00

 Broyden mixing:
  rms(total) = 0.20847E-03    rms(broyden)= 0.20838E-03
  rms(prec ) = 0.45402E-03
  weight for this iteration     100.00

 eigenvalues of (default mixing * dielectric matrix)
  average eigenvalue GAMMA=   1.6382
  2.5069  0.9984  1.4092
 
    TRIAL :  cpu time  244.44: real time  244.23
    CORREC:  cpu time    0.00: real time    0.00
    CHARGE:  cpu time    0.08: real time    0.08
    --------------------------------------------
      LOOP:  cpu time  246.55: real time  246.34

 eigenvalue-minimisations  :     0
 total energy-change (2. order) :-0.1235143E-01  (-0.2287889E-01)
 number of electron     112.0001447 magnetization 
 augmentation part       37.8259255 magnetization 

 Free energy of the ion-electron system (eV)
  ---------------------------------------------------
  alpha Z        PSCENC =       339.31929130
  Ewald energy   TEWEN  =     -9064.95573510
  -1/2 Hartree   DENC   =     -8141.76292502
  -exchange  EXHF       =       339.95033179
  -V(xc)+E(xc)   XCENC  =       371.89095876
  PAW double counting   =     15920.01283957   -16403.87362577
  entropy T*S    EENTRO =         0.00055797
  eigenvalues    EBANDS =     -1751.14530761
  atomic energy  EATOM  =     18320.98302006
  ---------------------------------------------------
  free energy    TOTEN  =       -69.58054204 eV

  energy without entropy =      -69.58110002  energy(sigma->0) =      -69.58072803


--------------------------------------------------------------------------------------------------------




----------------------------------------- Iteration    1(  13)  ---------------------------------------


    POTLOK:  cpu time    0.06: real time    0.06
    SETDIJ:  cpu time    1.96: real time    1.96
 
    SUBROT:  cpu time    0.81: real time    0.81
    SUBROT:  cpu time    0.39: real time    0.39
    SUBROT:  cpu time    0.40: real time    0.40
    SUBROT:  cpu time    0.39: real time    0.39
    --------------------------------------------
    SUBRT+:  cpu time    2.00: real time    2.00

 Broyden mixing:
  rms(total) = 0.55776E-03    rms(broyden)= 0.55765E-03
  rms(prec ) = 0.94677E-03
  weight for this iteration     100.00

 eigenvalues of (default mixing * dielectric matrix)
  average eigenvalue GAMMA=   1.6929
  2.4804  0.9956  1.6027
 
    TRIAL :  cpu time  244.42: real time  244.20
    CORREC:  cpu time    0.00: real time    0.00
    CHARGE:  cpu time    0.09: real time    0.09
    --------------------------------------------
      LOOP:  cpu time  246.53: real time  246.32

 eigenvalue-minimisations  :     0
 total energy-change (2. order) :-0.9667375E-02  (-0.5128168E-02)
 number of electron     112.0001447 magnetization 
 augmentation part       37.8297646 magnetization 

 Free energy of the ion-electron system (eV)
  ---------------------------------------------------
  alpha Z        PSCENC =       339.31929130
  Ewald energy   TEWEN  =     -9064.95573510
  -1/2 Hartree   DENC   =     -8151.66727693
  -exchange  EXHF       =       340.12296278
  -V(xc)+E(xc)   XCENC  =       372.12516889
  PAW double counting   =     15936.21135073   -16421.56608706
  entropy T*S    EENTRO =         0.00054695
  eigenvalues    EBANDS =     -1740.16346206
  atomic energy  EATOM  =     18320.98302006
  ---------------------------------------------------
  free energy    TOTEN  =       -69.59020942 eV

  energy without entropy =      -69.59075636  energy(sigma->0) =      -69.59039173


--------------------------------------------------------------------------------------------------------




----------------------------------------- Iteration    1(  14)  ---------------------------------------


    POTLOK:  cpu time    0.05: real time    0.05
    SETDIJ:  cpu time    1.96: real time    1.96
 
    SUBROT:  cpu time    0.83: real time    0.83
    SUBROT:  cpu time    0.40: real time    0.40
    SUBROT:  cpu time    0.40: real time    0.40
    SUBROT:  cpu time    0.40: real time    0.40
    --------------------------------------------
    SUBRT+:  cpu time    2.02: real time    2.03

 Broyden mixing:
  rms(total) = 0.68444E-04    rms(broyden)= 0.68430E-04
  rms(prec ) = 0.14041E-03
  weight for this iteration     100.00

 eigenvalues of (default mixing * dielectric matrix)
  average eigenvalue GAMMA=   1.6613
  2.5174  0.9896  1.4769
 
    TRIAL :  cpu time  244.45: real time  244.24
    CORREC:  cpu time    0.00: real time    0.00
    CHARGE:  cpu time    0.09: real time    0.09
    --------------------------------------------
      LOOP:  cpu time  246.55: real time  246.34

 eigenvalue-minimisations  :     0
 total energy-change (2. order) :-0.2463214E-02  (-0.3783298E-02)
 number of electron     112.0001447 magnetization 
 augmentation part       37.8122213 magnetization 

 Free energy of the ion-electron system (eV)
  ---------------------------------------------------
  alpha Z        PSCENC =       339.31929130
  Ewald energy   TEWEN  =     -9064.95573510
  -1/2 Hartree   DENC   =     -8152.18392573
  -exchange  EXHF       =       340.12080079
  -V(xc)+E(xc)   XCENC  =       372.13421818
  PAW double counting   =     15934.12139106   -16419.63766621
  entropy T*S    EENTRO =         0.00056575
  eigenvalues    EBANDS =     -1739.49461393
  atomic energy  EATOM  =     18320.98302006
  ---------------------------------------------------
  free energy    TOTEN  =       -69.59267263 eV

  energy without entropy =      -69.59323838  energy(sigma->0) =      -69.59286121


--------------------------------------------------------------------------------------------------------




----------------------------------------- Iteration    1(  15)  ---------------------------------------


    POTLOK:  cpu time    0.05: real time    0.05
    SETDIJ:  cpu time    1.96: real time    1.96
 
    SUBROT:  cpu time    0.83: real time    0.83
    SUBROT:  cpu time    0.40: real time    0.40
    SUBROT:  cpu time    0.40: real time    0.40
    SUBROT:  cpu time    0.40: real time    0.40
    --------------------------------------------
    SUBRT+:  cpu time    2.02: real time    2.03

 Broyden mixing:
  rms(total) = 0.19432E-03    rms(broyden)= 0.19426E-03
  rms(prec ) = 0.33108E-03
  weight for this iteration     100.00

 eigenvalues of (default mixing * dielectric matrix)
  average eigenvalue GAMMA=   1.6822
  2.4724  0.9885  1.5857
 
    TRIAL :  cpu time  243.70: real time  243.49
    CORREC:  cpu time    0.00: real time    0.00
    CHARGE:  cpu time    0.08: real time    0.09
    --------------------------------------------
      LOOP:  cpu time  245.80: real time  245.59

 eigenvalue-minimisations  :     0
 total energy-change (2. order) :-0.1507802E-02  (-0.1040764E-02)
 number of electron     112.0001447 magnetization 
 augmentation part       37.8165596 magnetization 

 Free energy of the ion-electron system (eV)
  ---------------------------------------------------
  alpha Z        PSCENC =       339.31929130
  Ewald energy   TEWEN  =     -9064.95573510
  -1/2 Hartree   DENC   =     -8147.47289094
  -exchange  EXHF       =       340.03167203
  -V(xc)+E(xc)   XCENC  =       372.02298856
  PAW double counting   =     15922.07007729   -16406.97576001
  entropy T*S    EENTRO =         0.00057884
  eigenvalues    EBANDS =     -1744.61740938
  atomic energy  EATOM  =     18320.98302006
  ---------------------------------------------------
  free energy    TOTEN  =       -69.59418043 eV

  energy without entropy =      -69.59475928  energy(sigma->0) =      -69.59437338


--------------------------------------------------------------------------------------------------------




----------------------------------------- Iteration    1(  16)  ---------------------------------------


    POTLOK:  cpu time    0.05: real time    0.05
    SETDIJ:  cpu time    1.96: real time    1.96
 
    SUBROT:  cpu time    0.82: real time    0.82
    SUBROT:  cpu time    0.39: real time    0.39
    SUBROT:  cpu time    0.40: real time    0.40
    SUBROT:  cpu time    0.39: real time    0.39
    --------------------------------------------
    SUBRT+:  cpu time    2.00: real time    2.01

 Broyden mixing:
  rms(total) = 0.84792E-04    rms(broyden)= 0.84774E-04
  rms(prec ) = 0.14132E-03
  weight for this iteration     100.00

 eigenvalues of (default mixing * dielectric matrix)
  average eigenvalue GAMMA=   1.6869
  2.4861  0.9891  1.5856
 
    TRIAL :  cpu time  243.94: real time  243.72
    CORREC:  cpu time    0.00: real time    0.00
    CHARGE:  cpu time    0.09: real time    0.09
    --------------------------------------------
      LOOP:  cpu time  246.04: real time  245.83

 eigenvalue-minimisations  :     0
 total energy-change (2. order) :-0.5731029E-03  (-0.4101805E-03)
 number of electron     112.0001447 magnetization 
 augmentation part       37.8213670 magnetization 

 Free energy of the ion-electron system (eV)
  ---------------------------------------------------
  alpha Z        PSCENC =       339.31929130
  Ewald energy   TEWEN  =     -9064.95573510
  -1/2 Hartree   DENC   =     -8148.59483927
  -exchange  EXHF       =       340.05029588
  -V(xc)+E(xc)   XCENC  =       372.05025720
  PAW double counting   =     15922.92801628   -16408.02285765
  entropy T*S    EENTRO =         0.00057931
  eigenvalues    EBANDS =     -1743.35278108
  atomic energy  EATOM  =     18320.98302006
  ---------------------------------------------------
  free energy    TOTEN  =       -69.59475354 eV

[...]
     22      -2.2920      2.00000
     23      -1.9493      2.00000
     24      -1.6199      2.00000
     25      -1.2177      2.00000
     26      -1.0060      2.00000
     27      -0.9784      2.00000
     28      -0.7065      2.00000
     29      -0.5558      2.00000
     30      -0.3917      2.00000
     31      -0.2866      2.00000
     32      -0.1986      2.00000
     33      -0.1810      2.00000
     34      -0.1373      2.00000
     35      -0.0150      2.00000
     36       0.0185      2.00000
     37       1.2970      2.00000
     38       1.3088      2.00000
     39       1.3699      2.00000
     40       1.4121      2.00000
     41       1.4521      2.00000
     42       1.4675      2.00000
     43       1.5064      2.00000
     44       1.5505      2.00000
     45       1.7653      2.00000
     46       1.8942      2.00000
     47       1.9843      2.00000
     48       2.1530      2.00000
     49       2.3717      2.00000
     50       2.5756      2.00000
     51       2.7061      2.00000
     52       2.9122      2.00000
     53       3.0152      2.00000
     54       3.2222      2.00000
     55       3.4006      2.00000
     56       3.6591      2.00000
     57       6.3721     -0.00000
     58       6.5209     -0.00000
     59       7.7208      0.00000
     60       7.8943      0.00000
     61       8.2892      0.00000
     62       8.5814      0.00000
     63       9.3304      0.00000
     64       9.8467      0.00000
     65      10.0191      0.00000
     66      10.3485      0.00000
     67      10.5818      0.00000
     68      10.7874      0.00000
     69      10.9787      0.00000
     70      11.2509      0.00000
     71      11.3070      0.00000
     72      11.7073      0.00000
     73      12.2487      0.00000
     74      12.4675      0.00000
     75      13.1004      0.00000
     76      13.4821      0.00000
     77      13.8217      0.00000
     78      14.6806      0.00000
     79      15.0018      0.00000
     80      15.7225      0.00000

 k-point  40 :       0.2500   -0.2500    0.4000
  band No.  band energies     occupation 
      1     -68.6452      2.00000
      2     -68.6447      2.00000
      3     -68.6331      2.00000
      4     -68.6322      2.00000
      5     -68.6127      2.00000
      6     -68.6121      2.00000
      7     -68.5954      2.00000
      8     -68.5953      2.00000
      9     -68.5769      2.00000
     10     -68.5763      2.00000
     11     -68.5594      2.00000
     12     -68.5595      2.00000
     13     -12.2267      2.00000
     14     -11.8265      2.00000
     15     -10.8192      2.00000
     16     -10.6727      2.00000
     17     -10.3435      2.00000
     18     -10.2678      2.00000
     19      -5.4552      2.00000
     20      -5.1172      2.00000
     21      -2.4309      2.00000
     22      -2.1566      2.00000
     23      -2.0202      2.00000
     24      -1.5198      2.00000
     25      -1.3563      2.00000
     26      -1.1686      2.00000
     27      -0.9341      2.00000
     28      -0.8116      2.00000
     29      -0.5854      2.00000
     30      -0.5407      2.00000
     31      -0.2771      2.00000
     32      -0.2376      2.00000
     33      -0.1363      2.00000
     34      -0.0898      2.00000
     35      -0.0223      2.00000
     36       0.0341      2.00000
     37       1.3137      2.00000
     38       1.3464      2.00000
     39       1.3645      2.00000
     40       1.3980      2.00000
     41       1.4525      2.00000
     42       1.4832      2.00000
     43       1.4997      2.00000
     44       1.5655      2.00000
     45       1.8035      2.00000
     46       1.8467      2.00000
     47       1.9618      2.00000
     48       2.1100      2.00000
     49       2.2967      2.00000
     50       2.5300      2.00000
     51       2.6421      2.00000
     52       2.7717      2.00000
     53       2.9308      2.00000
     54       3.1616      2.00000
     55       3.3049      2.00000
     56       3.5774      2.00000
     57       6.5584     -0.00000
     58       6.7167     -0.00000
     59       7.9611      0.00000
     60       7.9951      0.00000
     61       8.7297      0.00000
     62       9.1010      0.00000
     63       9.4548      0.00000
     64       9.8205      0.00000
     65      10.2964      0.00000
     66      10.3684      0.00000
     67      10.7805      0.00000
     68      10.8477      0.00000
     69      11.1162      0.00000
     70      11.2746      0.00000
     71      11.3696      0.00000
     72      11.6186      0.00000
     73      12.0501      0.00000
     74      12.2940      0.00000
     75      12.6515      0.00000
     76      13.1243      0.00000
     77      13.2872      0.00000
     78      14.2410      0.00000
     79      15.6294      0.00000
     80      15.8348      0.00000

 k-point  41 :       0.5000   -0.2500    0.4000
  band No.  band energies     occupation 
      1     -68.6450      2.00000
      2     -68.6448      2.00000
      3     -68.6328      2.00000
      4     -68.6321      2.00000
      5     -68.6126      2.00000
      6     -68.6121      2.00000
      7     -68.5952      2.00000
      8     -68.5951      2.00000
      9     -68.5768      2.00000
     10     -68.5764      2.00000
     11     -68.5593      2.00000
     12     -68.5595      2.00000
     13     -12.0895      2.00000
     14     -11.7822      2.00000
     15     -10.8471      2.00000
     16     -10.7535      2.00000
     17     -10.5253      2.00000
     18     -10.3103      2.00000
     19      -5.4270      2.00000
     20      -4.9431      2.00000
     21      -2.3997      2.00000
     22      -2.1305      2.00000
     23      -1.8682      2.00000
     24      -1.7212      2.00000
     25      -1.4483      2.00000
     26      -1.1146      2.00000
     27      -0.8846      2.00000
     28      -0.6494      2.00000
     29      -0.6022      2.00000
     30      -0.4523      2.00000
     31      -0.2630      2.00000
     32      -0.1815      2.00000
     33      -0.1210      2.00000
     34      -0.0530      2.00000
     35      -0.0194      2.00000
     36       0.0226      2.00000
     37       1.2627      2.00000
     38       1.3170      2.00000
     39       1.4108      2.00000
     40       1.4381      2.00000
     41       1.4851      2.00000
     42       1.4933      2.00000
     43       1.5163      2.00000
     44       1.5748      2.00000
     45       1.7611      2.00000
     46       1.8429      2.00000
     47       2.1167      2.00000
     48       2.1871      2.00000
     49       2.3672      2.00000
     50       2.4605      2.00000
     51       2.4934      2.00000
     52       2.6970      2.00000
     53       2.8249      2.00000
     54       3.0904      2.00000
     55       3.2922      2.00000
     56       3.5273      2.00000
     57       6.4969     -0.00000
     58       6.5780     -0.00000
     59       7.4495      0.00000
     60       7.7239      0.00000
     61       8.5920      0.00000
     62       8.7410      0.00000
     63       9.2934      0.00000
     64       9.5342      0.00000
     65       9.9545      0.00000
     66      10.1852      0.00000
     67      10.6783      0.00000
     68      11.1148      0.00000
     69      11.2459      0.00000
     70      11.5674      0.00000
     71      11.7059      0.00000
     72      11.8949      0.00000
     73      12.3045      0.00000
     74      12.6575      0.00000
     75      13.0119      0.00000
     76      13.2288      0.00000
     77      13.6672      0.00000
     78      14.0729      0.00000
     79      14.3914      0.00000
     80      16.5131      0.00000

 k-point  42 :      -0.2500   -0.2500    0.4000
  band No.  band energies     occupation 
      1     -68.6453      2.00000
      2     -68.6448      2.00000
      3     -68.6328      2.00000
      4     -68.6321      2.00000
      5     -68.6125      2.00000
      6     -68.6123      2.00000
      7     -68.5952      2.00000
      8     -68.5951      2.00000
      9     -68.5769      2.00000
     10     -68.5764      2.00000
     11     -68.5596      2.00000
     12     -68.5595      2.00000
     13     -12.1870      2.00000
     14     -11.7138      2.00000
     15     -10.7176      2.00000
     16     -10.6894      2.00000
     17     -10.5799      2.00000
     18     -10.3841      2.00000
     19      -5.4525      2.00000
     20      -5.0752      2.00000
     21      -2.5092      2.00000
     22      -2.3809      2.00000
     23      -1.9637      2.00000
     24      -1.3710      2.00000
     25      -1.3301      2.00000
     26      -1.0538      2.00000
     27      -0.8331      2.00000
     28      -0.7615      2.00000
     29      -0.4269      2.00000
     30      -0.3427      2.00000
     31      -0.2723      2.00000
     32      -0.2075      2.00000
     33      -0.1406      2.00000
     34      -0.1347      2.00000
     35      -0.0120      2.00000
     36       0.0277      2.00000
     37       1.1739      2.00000
     38       1.3722      2.00000
     39       1.3981      2.00000
     40       1.4540      2.00000
     41       1.4545      2.00000
     42       1.4996      2.00000
     43       1.5180      2.00000
     44       1.5499      2.00000
     45       1.7456      2.00000
     46       1.8213      2.00000
     47       1.9758      2.00000
     48       2.2272      2.00000
     49       2.3956      2.00000
     50       2.6122      2.00000
     51       2.6561      2.00000
     52       2.9170      2.00000
     53       3.0720      2.00000
     54       3.1182      2.00000
     55       3.2890      2.00000
     56       3.5851      2.00000
     57       6.2898     -0.00000
     58       6.3748     -0.00000
     59       7.3574      0.00000
     60       7.5282      0.00000
     61       8.3055      0.00000
     62       8.3330      0.00000
     63       9.1088      0.00000
     64       9.3604      0.00000
     65       9.7173      0.00000
     66       9.9426      0.00000
     67      10.5252      0.00000
     68      10.9863      0.00000
     69      11.4263      0.00000
     70      11.5615      0.00000
     71      12.0147      0.00000
     72      12.2857      0.00000
     73      12.4293      0.00000
     74      12.4794      0.00000
     75      13.0347      0.00000
     76      13.1465      0.00000
     77      14.1396      0.00000
     78      14.4320      0.00000
     79      15.1677      0.00000
     80      15.8663      0.00000


--------------------------------------------------------------------------------------------------------


 soft charge-density along one line, spin component           1
         0         1         2         3         4         5         6         7         8         9
 total charge-density along one line
 
 pseudopotential strength for first ion, spin component:           1
-65.423   0.002   0.006   7.363   0.000  -0.003   0.001   0.008
  0.002 -65.392  -0.005   0.000   7.352   0.001  -0.001  -0.024
  0.006  -0.005 -65.383  -0.003   0.001   7.349  -0.037  -0.001
  7.363   0.000  -0.003   6.110   0.000   0.001   0.002  -0.004
  0.000   7.352   0.001   0.000   6.113  -0.000   0.000   0.007
 -0.003   0.001   7.349   0.001  -0.000   6.114   0.009   0.000
  0.001  -0.001  -0.037   0.002   0.000   0.009  -2.979  -0.003
  0.008  -0.024  -0.001  -0.004   0.007   0.000  -0.003  -2.984
  0.022   0.043   0.009  -0.005  -0.008  -0.003  -0.003   0.008
 -0.001  -0.017   0.008   0.000   0.005  -0.004   0.004   0.007
  0.026   0.000  -0.034  -0.007  -0.000   0.007  -0.000   0.007
  0.001  -0.001  -0.036   0.002   0.000   0.008  -3.625  -0.003
  0.008  -0.023  -0.001  -0.004   0.007   0.000  -0.003  -3.630
  0.022   0.043   0.009  -0.005  -0.008  -0.002  -0.003   0.008
 -0.001  -0.017   0.008   0.000   0.004  -0.004   0.004   0.007
  0.025   0.000  -0.034  -0.007  -0.000   0.006  -0.000   0.007
  0.007  -0.005   0.004  -0.001   0.001  -0.001  -0.002   0.000
  0.015  -0.010   0.009  -0.002   0.001  -0.002  -0.003   0.001
 total augmentation occupancy for first ion, spin component:           1
  2.000  -0.000   0.000  -0.003  -0.000   0.000   0.007  -0.005   0.001  -0.001  -0.005  -0.007   0.005  -0.001   0.001   0.004
 -0.000   2.000  -0.000  -0.000  -0.003   0.000  -0.001   0.005   0.004   0.001   0.000   0.001  -0.005  -0.005  -0.001  -0.000
  0.000  -0.000   2.000   0.000   0.000  -0.003  -0.000  -0.000  -0.001  -0.005  -0.004   0.001   0.000   0.001   0.005   0.005
 -0.003  -0.000   0.000   0.095   0.006  -0.005  -0.333   0.232  -0.074   0.011   0.017   0.280  -0.197   0.058  -0.007  -0.011
 -0.000  -0.003   0.000   0.006   0.102   0.001   0.020  -0.048  -0.445   0.015   0.011  -0.013   0.037   0.377  -0.010  -0.009
  0.000   0.000  -0.003  -0.005   0.001   0.099   0.098  -0.002  -0.014   0.236   0.354  -0.077   0.001   0.011  -0.202  -0.297
  0.007  -0.001  -0.000  -0.333   0.020   0.098   4.007  -0.793   0.099   0.216   0.147  -1.735   0.744  -0.090  -0.182  -0.142
 -0.005   0.005  -0.000   0.232  -0.048  -0.002  -0.793   3.512   0.292   0.159   0.297   0.744  -1.271  -0.215  -0.115  -0.206
  0.001   0.004  -0.001  -0.074  -0.445  -0.014   0.099   0.292   4.690  -0.040  -0.117  -0.090  -0.216  -2.399   0.034   0.087
 -0.001   0.001  -0.005   0.011   0.015   0.236   0.216   0.159  -0.040   3.638   0.799  -0.182  -0.115   0.034  -1.356  -0.760
 -0.005   0.000  -0.004   0.017   0.011   0.354   0.147   0.297  -0.117   0.799   3.995  -0.142  -0.206   0.087  -0.760  -1.741
 -0.007   0.001   0.001   0.280  -0.013  -0.077  -1.735   0.744  -0.090  -0.182  -0.142   1.441  -0.696   0.083   0.154   0.136
  0.005  -0.005   0.000  -0.197   0.037   0.001   0.744  -1.271  -0.216  -0.115  -0.206  -0.696   1.006   0.154   0.079   0.132
 -0.001  -0.005   0.001   0.058   0.377   0.011  -0.090  -0.215  -2.399   0.034   0.087   0.083   0.154   2.083  -0.029  -0.063
  0.001  -0.001   0.005  -0.007  -0.010  -0.202  -0.182  -0.115   0.034  -1.356  -0.760   0.154   0.079  -0.029   1.060   0.722
  0.004  -0.000   0.005  -0.011  -0.009  -0.297  -0.142  -0.206   0.087  -0.760  -1.741   0.136   0.132  -0.063   0.722   1.461
 -0.025   0.017  -0.013  -0.020   0.011  -0.006   0.080  -0.101  -0.024  -0.006   0.025  -0.063   0.088   0.036   0.006   0.005
  0.012  -0.008   0.006   0.001  -0.000  -0.000  -0.008   0.003  -0.004   0.004  -0.019   0.004  -0.005  -0.002  -0.001   0.003


------------------------ aborting loop because EDIFF is reached ----------------------------------------


    FORLOC:  cpu time    0.00: real time    0.00
    FORHF :  cpu time  491.10: real time  490.65
    FORNL :  cpu time    0.39: real time    0.39
    FORCOR:  cpu time    1.99: real time    1.99

 VOLUME and BASIS-vectors are now :
 -----------------------------------------------------------------------------
  energy-cutoff  :      400.00
  volume of cell :      221.90
      direct lattice vectors                 reciprocal lattice vectors
     3.224796000 -5.643830000  0.031572000     0.154525165 -0.088592321  0.053460880
     3.224796000  5.643830000  0.031572000     0.154525165  0.088592321  0.053460880
    -2.101946000  0.000000000  6.075537000    -0.001606004  0.000000000  0.164038877

  length of vectors
     6.500240234  6.500240234  6.428866683     0.185969598  0.185969598  0.164046738


 FORCES acting on ions:
    Electron-Ion                     Ewald-Force                    Non-Local-Force
 -----------------------------------------------------------------------------------------------
   -.144E+02 -.973E+02 0.116E+02   0.132E+02 0.949E+02 -.993E+01   0.103E+01 0.211E+01 -.145E+01
   -.147E+02 0.969E+02 0.114E+02   0.135E+02 -.945E+02 -.987E+01   0.107E+01 -.216E+01 -.140E+01
   0.253E+02 -.168E+02 0.431E+01   -.221E+02 0.166E+02 -.298E+01   -.284E+01 0.156E+00 -.115E+01
   0.254E+02 0.165E+02 0.441E+01   -.220E+02 -.164E+02 -.315E+01   -.291E+01 -.143E+00 -.110E+01
   -.104E+02 -.306E+02 -.110E+02   0.969E+01 0.292E+02 0.988E+01   0.634E+00 0.126E+01 0.112E+01
   -.110E+02 0.315E+02 -.112E+02   0.103E+02 -.302E+02 0.100E+02   0.682E+00 -.134E+01 0.114E+01
   -.136E+03 -.967E+01 -.493E+02   0.133E+03 0.969E+01 0.485E+02   0.283E+01 -.831E-02 0.745E+00
   0.703E+02 -.126E+03 0.962E+02   -.686E+02 0.123E+03 -.941E+02   -.154E+01 0.232E+01 -.187E+01
   0.669E+02 -.133E+03 -.499E+02   -.655E+02 0.130E+03 0.489E+02   -.136E+01 0.223E+01 0.883E+00
   0.700E+02 0.125E+03 0.964E+02   -.682E+02 -.123E+03 -.944E+02   -.155E+01 -.227E+01 -.186E+01
   -.135E+03 0.986E+01 -.491E+02   0.132E+03 -.989E+01 0.483E+02   0.279E+01 0.268E-01 0.736E+00
   0.666E+02 0.133E+03 -.498E+02   -.651E+02 -.130E+03 0.488E+02   -.136E+01 -.218E+01 0.881E+00
 -----------------------------------------------------------------------------------------------
   0.277E+01 0.110E-01 0.379E+01   0.284E-13 -.853E-13 -.853E-13   -.251E+01 -.339E-02 -.334E+01
 
 
 POSITION                                       TOTAL-FORCE (eV/Angst)
 -----------------------------------------------------------------------------------
      2.13385     -2.80652      0.74958        -0.001941     -0.001395      0.003120
      1.08288      2.80652      3.78735        -0.005126      0.006907     -0.000361
      5.40423     -0.97432      0.77721         0.001764      0.000574      0.004953
      4.35326      0.97432      3.81498         0.008533      0.000459      0.000212
      1.02577     -0.96460      3.66190        -0.070689     -0.112018     -0.012565
      2.07178      0.97328      0.62409        -0.000997     -0.006431     -0.017991
      2.15090      4.69667      3.05304         0.051238      0.006775      0.011869
      1.11215     -0.89759      5.98620         0.002929      0.000480      0.003351
      2.14287     -2.74882      3.03886        -0.021063      0.047256      0.010784
      2.16313      0.89759      2.94844         0.034483      0.063574     -0.004961
      1.09993     -4.69667      6.09081         0.003528     -0.001466     -0.000119
      1.09189      2.74882      6.07662        -0.002658     -0.004714      0.001709
 -----------------------------------------------------------------------------------
    total drift:                               -0.058955     -0.001032     -0.054052


--------------------------------------------------------------------------------------------------------



  FREE ENERGIE OF THE ION-ELECTRON SYSTEM (eV)
  ---------------------------------------------------
  free  energy   TOTEN  =       -69.59510123 eV

  energy  without entropy=      -69.59567403  energy(sigma->0) =      -69.59529216
 


--------------------------------------------------------------------------------------------------------


    POTLOK:  cpu time    2.07: real time    2.07


--------------------------------------------------------------------------------------------------------


 writing wavefunctions
     LOOP+:  cpu time 5617.96: real time 5616.93
    4ORBIT:  cpu time    0.00: real time    0.00

 total amount of memory used by VASP on root node   155716. kBytes
========================================================================

   base      :      30000. kBytes
   nonl-proj :      74517. kBytes
   fftplans  :        702. kBytes
   grid      :       2400. kBytes
   one-center:        186. kBytes
   HF        :        194. kBytes
   nonlr-proj:       5141. kBytes
   wavefun   :      42576. kBytes
 
  
  
 General timing and accounting informations for this job:
 ========================================================
  
                  Total CPU time used (sec):     5655.592
                            User time (sec):     5654.487
                          System time (sec):        1.105
                         Elapsed time (sec):     5655.589
  
                   Maximum memory used (kb):      298940.
                   Average memory used (kb):           0.
  
                          Minor page faults:        78974
                          Major page faults:            0
                 Voluntary context switches:         3586
