<?xml version="1.0" encoding="ISO-8859-1"?>
<modeling>
 <generator>
  <i name="program" type="string">vasp </i>
  <i name="version" type="string">5.3.3  </i>
  <i name="subversion" type="string">18Dez12 (build Nov 13 2015 09:58:40) complex                          parallel </i>
  <i name="platform" type="string">LinuxIFC </i>
  <i name="date" type="string">2017 10 18 </i>
  <i name="time" type="string">13:04:56 </i>
 </generator>
 <incar>
  <i type="string" name="SYSTEM"> CGS</i>
  <i type="string" name="PREC">normal</i>
  <i type="string" name="ALGO"> D</i>
  <i type="logical" name="LDIAG"> T  </i>
  <i name="EDIFF">      0.00001000</i>
  <i name="ENCUT">    400.00000000</i>
  <i name="TIME">      0.40000000</i>
  <i type="int" name="ISMEAR">     1</i>
  <i name="SIGMA">      0.10000000</i>
  <i type="logical" name="LHFCALC"> T  </i>
  <i type="string" name="GGA"> PE</i>
  <i name="HFSCREEN">      0.20000000</i>
  <i name="AEXX">      0.25000000</i>
  <i type="string" name="PRECFOCK">fast</i>
 </incar>
 <kpoints>
  <generation param="Gamma">
   <v type="int" name="divisions">       4        4        5 </v>
   <v name="usershift">      0.00000000       0.00000000       0.00000000 </v>
   <v name="genvec1">      0.25000000       0.00000000       0.00000000 </v>
   <v name="genvec2">      0.00000000       0.25000000       0.00000000 </v>
   <v name="genvec3">      0.00000000       0.00000000       0.20000000 </v>
   <v name="shift">      0.00000000       0.00000000       0.00000000 </v>
  </generation>
  <varray name="kpointlist" >
   <v>       0.00000000       0.00000000       0.00000000 </v>
   <v>       0.25000000       0.00000000       0.00000000 </v>
   <v>       0.50000000       0.00000000       0.00000000 </v>
   <v>       0.00000000       0.25000000       0.00000000 </v>
   <v>       0.25000000       0.25000000       0.00000000 </v>
   <v>       0.50000000       0.25000000      -0.00000000 </v>
   <v>      -0.25000000       0.25000000       0.00000000 </v>
   <v>       0.00000000       0.50000000       0.00000000 </v>
   <v>       0.25000000       0.50000000      -0.00000000 </v>
   <v>       0.50000000       0.50000000       0.00000000 </v>
   <v>      -0.00000000      -0.00000000       0.20000000 </v>
   <v>       0.25000000       0.00000000       0.20000000 </v>
   <v>       0.50000000       0.00000000       0.20000000 </v>
   <v>      -0.25000000      -0.00000000       0.20000000 </v>
   <v>       0.00000000       0.25000000       0.20000000 </v>
   <v>       0.25000000       0.25000000       0.20000000 </v>
   <v>       0.50000000       0.25000000       0.20000000 </v>
   <v>      -0.25000000       0.25000000       0.20000000 </v>
   <v>       0.00000000       0.50000000       0.20000000 </v>
   <v>       0.25000000       0.50000000       0.20000000 </v>
   <v>       0.50000000       0.50000000       0.20000000 </v>
   <v>      -0.25000000       0.50000000       0.20000000 </v>
   <v>      -0.00000000      -0.25000000       0.20000000 </v>
   <v>       0.25000000      -0.25000000       0.20000000 </v>
   <v>       0.50000000      -0.25000000       0.20000000 </v>
   <v>      -0.25000000      -0.25000000       0.20000000 </v>
   <v>      -0.00000000      -0.00000000       0.40000000 </v>
   <v>       0.25000000       0.00000000       0.40000000 </v>
   <v>       0.50000000       0.00000000       0.40000000 </v>
   <v>      -0.25000000       0.00000000       0.40000000 </v>
   <v>       0.00000000       0.25000000       0.40000000 </v>
   <v>       0.25000000       0.25000000       0.40000000 </v>
   <v>       0.50000000       0.25000000       0.40000000 </v>
   <v>      -0.25000000       0.25000000       0.40000000 </v>
   <v>       0.00000000       0.50000000       0.40000000 </v>
   <v>       0.25000000       0.50000000       0.40000000 </v>
   <v>       0.50000000       0.50000000       0.40000000 </v>
   <v>      -0.25000000       0.50000000       0.40000000 </v>
   <v>       0.00000000      -0.25000000       0.40000000 </v>
   <v>       0.25000000      -0.25000000       0.40000000 </v>
   <v>       0.50000000      -0.25000000       0.40000000 </v>
   <v>      -0.25000000      -0.25000000       0.40000000 </v>
  </varray>
  <varray name="weights" >
   <v>       0.01250000 </v>
   <v>       0.02500000 </v>
   <v>       0.01250000 </v>
   <v>       0.02500000 </v>
   <v>       0.02500000 </v>
   <v>       0.02500000 </v>
   <v>       0.02500000 </v>
   <v>       0.01250000 </v>
   <v>       0.02500000 </v>
   <v>       0.01250000 </v>
   <v>       0.02500000 </v>
   <v>       0.02500000 </v>
   <v>       0.02500000 </v>
   <v>       0.02500000 </v>
   <v>       0.02500000 </v>
   <v>       0.02500000 </v>
   <v>       0.02500000 </v>
   <v>       0.02500000 </v>
   <v>       0.02500000 </v>
   <v>       0.02500000 </v>
   <v>       0.02500000 </v>
   <v>       0.02500000 </v>
   <v>       0.02500000 </v>
   <v>       0.02500000 </v>
   <v>       0.02500000 </v>
   <v>       0.02500000 </v>
   <v>       0.02500000 </v>
   <v>       0.02500000 </v>
   <v>       0.02500000 </v>
   <v>       0.02500000 </v>
   <v>       0.02500000 </v>
   <v>       0.02500000 </v>
   <v>       0.02500000 </v>
   <v>       0.02500000 </v>
   <v>       0.02500000 </v>
   <v>       0.02500000 </v>
   <v>       0.02500000 </v>
   <v>       0.02500000 </v>
   <v>       0.02500000 </v>
   <v>       0.02500000 </v>
   <v>       0.02500000 </v>
   <v>       0.02500000 </v>
  </varray>
 </kpoints>
 <parameters>
  <separator name="general" >
   <i type="string" name="SYSTEM">CGS</i>
   <i type="logical" name="LCOMPAT"> F  </i>
  </separator>
  <separator name="electronic" >
   <i type="string" name="PREC">normal</i>
   <i name="ENMAX">    400.00000000</i>
   <i name="ENAUG">    758.23300000</i>
   <i name="EDIFF">      0.00001000</i>
   <i type="int" name="IALGO">    53</i>
   <i type="int" name="IWAVPR">    10</i>
   <i type="int" name="NBANDS">    80</i>
   <i name="NELECT">    112.00000000</i>
   <i type="int" name="TURBO">     0</i>
   <i type="int" name="IRESTART">     0</i>
   <i type="int" name="NREBOOT">     0</i>
   <i type="int" name="NMIN">     0</i>
   <i name="EREF">      0.00000000</i>
   <separator name="electronic smearing" >
    <i type="int" name="ISMEAR">     1</i>
    <i name="SIGMA">      0.10000000</i>
    <i name="KSPACING">      0.50000000</i>
    <i type="logical" name="KGAMMA"> T  </i>
   </separator>
   <separator name="electronic projectors" >
    <i type="logical" name="LREAL"> F  </i>
    <v name="ROPT">      0.00000000      0.00000000      0.00000000</v>
    <i type="int" name="LMAXPAW">  -100</i>
    <i type="int" name="LMAXMIX">     2</i>
    <i type="logical" name="NLSPLINE"> F  </i>
   </separator>
   <separator name="electronic startup" >
    <i type="int" name="ISTART">     1</i>
    <i type="int" name="ICHARG">     0</i>
    <i type="int" name="INIWAV">     1</i>
   </separator>
   <separator name="electronic spin" >
    <i type="int" name="ISPIN">     1</i>
    <i type="logical" name="LNONCOLLINEAR"> F  </i>
    <v name="MAGMOM">      1.00000000      1.00000000      1.00000000      1.00000000      1.00000000      1.00000000      1.00000000      1.00000000      1.00000000      1.00000000      1.00000000      1.00000000</v>
    <i name="NUPDOWN">     -1.00000000</i>
    <i type="logical" name="LSORBIT"> F  </i>
    <v name="SAXIS">      0.00000000      0.00000000      1.00000000</v>
    <i type="logical" name="LSPIRAL"> F  </i>
    <v name="QSPIRAL">      0.00000000      0.00000000      0.00000000</v>
    <i type="logical" name="LZEROZ"> F  </i>
   </separator>
   <separator name="electronic exchange-correlation" >
    <i type="logical" name="LASPH"> F  </i>
    <i type="logical" name="LMETAGGA"> F  </i>
   </separator>
   <separator name="electronic convergence" >
    <i type="int" name="NELM">    60</i>
    <i type="int" name="NELMDL">     0</i>
    <i type="int" name="NELMIN">     2</i>
    <i name="ENINI">    400.00000000</i>
    <separator name="electronic convergence detail" >
     <i type="logical" name="LDIAG"> T  </i>
     <i type="logical" name="LSUBROT"> T  </i>
     <i name="WEIMIN">      0.00000000</i>
     <i name="EBREAK">      0.00000003</i>
     <i name="DEPER">      0.30000000</i>
     <i type="int" name="NRMM">     4</i>
     <i name="TIME">      0.40000000</i>
    </separator>
   </separator>
   <separator name="electronic mixer" >
    <i name="AMIX">      0.40000000</i>
    <i name="BMIX">      1.00000000</i>
    <i name="AMIN">      0.10000000</i>
    <i name="AMIX_MAG">      1.60000000</i>
    <i name="BMIX_MAG">      1.00000000</i>
    <separator name="electronic mixer details" >
     <i type="int" name="IMIX">     4</i>
     <i type="int" name="MAXMIX">   -45</i>
     <i name="WC">    100.00000000</i>
     <i type="int" name="INIMIX">     1</i>
     <i type="int" name="MIXPRE">     1</i>
     <i type="int" name="MREMOVE">     5</i>
    </separator>
   </separator>
   <separator name="electronic dipolcorrection" >
    <i type="logical" name="LDIPOL"> F  </i>
    <i type="logical" name="LMONO"> F  </i>
    <i type="int" name="IDIPOL">     0</i>
    <i name="EPSILON">      1.00000000</i>
    <v name="DIPOL">   -100.00000000   -100.00000000   -100.00000000</v>
    <i name="EFIELD">      0.00000000</i>
   </separator>
  </separator>
  <separator name="grids" >
   <i type="int" name="NGX">    32</i>
   <i type="int" name="NGY">    32</i>
   <i type="int" name="NGZ">    32</i>
   <i type="int" name="NGXF">    64</i>
   <i type="int" name="NGYF">    64</i>
   <i type="int" name="NGZF">    64</i>
   <i type="logical" name="ADDGRID"> F  </i>
  </separator>
  <separator name="ionic" >
   <i type="int" name="NSW">     0</i>
   <i type="int" name="IBRION">    -1</i>
   <i type="int" name="ISIF">     0</i>
   <i name="PSTRESS">      0.00000000</i>
   <i name="EDIFFG">      0.00010000</i>
   <i type="int" name="NFREE">     0</i>
   <i name="POTIM">      0.50000000</i>
   <i name="SMASS">     -3.00000000</i>
   <i name="SCALEE">      1.00000000</i>
  </separator>
  <separator name="ionic md" >
   <i name="TEBEG">      0.00010000</i>
   <i name="TEEND">      0.00010000</i>
   <i type="int" name="NBLOCK">     1</i>
   <i type="int" name="KBLOCK">     1</i>
   <i type="int" name="NPACO">   256</i>
   <i name="APACO">     16.00000000</i>
  </separator>
  <separator name="symmetry" >
   <i type="int" name="ISYM">     3</i>
   <i name="SYMPREC">      0.00001000</i>
  </separator>
  <separator name="dos" >
   <i type="logical" name="LORBIT"> F  </i>
   <v name="RWIGS">     -1.00000000     -1.00000000     -1.00000000</v>
   <i type="int" name="NEDOS">   301</i>
   <i name="EMIN">     10.00000000</i>
   <i name="EMAX">    -10.00000000</i>
   <i name="EFERMI">      0.00000000</i>
  </separator>
  <separator name="writing" >
   <i type="int" name="NWRITE">     2</i>
   <i type="logical" name="LWAVE"> T  </i>
   <i type="logical" name="LCHARG"> T  </i>
   <i type="logical" name="LPARD"> F  </i>
   <i type="logical" name="LVTOT"> F  </i>
   <i type="logical" name="LVHAR"> F  </i>
   <i type="logical" name="LELF"> F  </i>
   <i type="logical" name="LOPTICS"> F  </i>
   <v name="STM">      0.00000000      0.00000000      0.00000000      0.00000000      0.00000000      0.00000000      0.00000000</v>
  </separator>
  <separator name="performance" >
   <i type="int" name="NPAR">    16</i>
   <i type="int" name="NSIM">     4</i>
   <i type="int" name="NBLK">    -1</i>
   <i type="logical" name="LPLANE"> T  </i>
   <i type="logical" name="LSCALAPACK"> T  </i>
   <i type="logical" name="LSCAAWARE"> F  </i>
   <i type="logical" name="LSCALU"> F  </i>
   <i type="logical" name="LASYNC"> F  </i>
   <i type="logical" name="LORBITALREAL"> F  </i>
  </separator>
  <separator name="miscellaneous" >
   <i type="int" name="IDIOT">     3</i>
   <i type="logical" name="LMUSIC"> F  </i>
   <v name="POMASS">     63.54600000     72.61000000     32.06600000</v>
   <v name="DARWINR">      0.00000000      0.00000000      0.00000000</v>
   <v name="DARWINV">      1.00000000      1.00000000      1.00000000</v>
   <i type="logical" name="LCORR"> T  </i>
  </separator>
  <i type="logical" name="GGA_COMPAT"> T  </i>
  <i type="logical" name="LBERRY"> F  </i>
  <i type="int" name="ICORELEVEL">     0</i>
  <i type="logical" name="LDAU"> F  </i>
  <i type="int" name="I_CONSTRAINED_M">     0</i>
  <separator name="electronic exchange-correlation" >
   <i type="string" name="GGA">PE</i>
   <i type="int" name="VOSKOWN">     0</i>
   <i type="logical" name="LHFCALC"> T  </i>
   <i type="string" name="PRECFOCK">fast</i>
   <i type="logical" name="LSYMGRAD"> F  </i>
   <i type="logical" name="LHFONE"> F  </i>
   <i type="logical" name="LRHFCALC"> F  </i>
   <i type="logical" name="LTHOMAS"> F  </i>
   <i type="logical" name="LMODELHF"> F  </i>
   <i name="ENCUT4O">     -1.00000000</i>
   <i type="int" name="EXXOEP">     0</i>
   <i type="int" name="FOURORBIT">     0</i>
   <i name="AEXX">      0.25000000</i>
   <i name="HFALPHA">     -1.00000000</i>
   <i name="MCALPHA">      0.00000000</i>
   <i name="ALDAX">      0.75000000</i>
   <i name="AGGAX">      0.75000000</i>
   <i name="ALDAC">      1.00000000</i>
   <i name="AGGAC">      1.00000000</i>
   <i type="int" name="NKREDX">     1</i>
   <i type="int" name="NKREDY">     1</i>
   <i type="int" name="NKREDZ">     1</i>
   <i type="logical" name="SHIFTRED"> F  </i>
   <i type="logical" name="ODDONLY"> F  </i>
   <i type="logical" name="EVENONLY"> F  </i>
   <i type="int" name="LMAXFOCK">     4</i>
   <i type="int" name="NMAXFOCKAE">     1</i>
   <i type="logical" name="LFOCKAEDFT"> F  </i>
   <i name="HFSCREEN">      0.20000000</i>
   <i name="HFSCREENC">      0.20000000</i>
   <i type="int" name="NBANDSGWLOW">     1</i>
  </separator>
  <separator name="vdW DFT" >
   <i type="logical" name="LUSE_VDW"> F  </i>
   <i name="Zab_VDW">     -0.84910000</i>
   <i name="PARAM1">      0.12340000</i>
   <i name="PARAM2">      1.00000000</i>
   <i name="PARAM3">      0.00000000</i>
  </separator>
  <separator name="model GW" >
   <i type="int" name="MODEL_GW">     0</i>
   <i name="MODEL_EPS0">     11.09505304</i>
   <i name="MODEL_ALPHA">      1.00000000</i>
  </separator>
  <separator name="linear response parameters" >
   <i type="logical" name="LEPSILON"> F  </i>
   <i type="logical" name="LRPA"> F  </i>
   <i type="logical" name="LNABLA"> F  </i>
   <i type="logical" name="LVEL"> F  </i>
   <i type="int" name="KINTER">     0</i>
   <i name="CSHIFT">      0.10000000</i>
   <i name="OMEGAMAX">     -1.00000000</i>
   <i name="DEG_THRESHOLD">      0.00200000</i>
  </separator>
  <separator name="orbital magnetization" >
   <i type="logical" name="NUCIND"> F  </i>
   <v name="MAGPOS">      0.00000000      0.00000000      0.00000000</v>
   <i type="logical" name="LNICSALL"> T  </i>
   <i type="logical" name="ORBITALMAG"> F  </i>
   <i type="logical" name="LMAGBLOCH"> F  </i>
   <i type="logical" name="LCHIMAG"> F  </i>
   <i type="logical" name="LGAUGE"> T  </i>
   <i type="int" name="MAGATOM">     0</i>
   <v name="MAGDIPOL">      0.00000000      0.00000000      0.00000000</v>
   <v name="AVECCONST">      0.00000000      0.00000000      0.00000000</v>
  </separator>
  <separator name="response functions" >
   <i type="logical" name="LADDER"> F  </i>
   <i type="logical" name="LFXC"> F  </i>
   <i type="logical" name="LHARTREE"> T  </i>
   <i type="int" name="IBSE">     0</i>
   <i type="logical" name="LTCTE"> F  </i>
   <i type="logical" name="LTETE"> F  </i>
   <i type="logical" name="LTRIPLET"> F  </i>
   <i type="logical" name="LFXCEPS"> F  </i>
   <i type="logical" name="L2ORDER"> F  </i>
   <i type="logical" name="LUSEW"> F  </i>
   <i name="ENCUTGW">     -2.00000000</i>
   <i name="ENCUTGWSOFT">     -2.00000000</i>
   <i name="ENCUTLF">     -1.00000000</i>
   <i type="int" name="LMAXMP2">    -1</i>
   <i name="SCISSOR">      0.00000000</i>
   <i type="int" name="NOMEGA">     0</i>
   <i type="int" name="NOMEGAR">     0</i>
   <i type="int" name="NBANDSGW">    -1</i>
   <i type="int" name="NBANDSO">    -1</i>
   <i type="int" name="NBANDSV">    -1</i>
   <i type="int" name="NELM">     1</i>
   <i type="int" name="DIM">     3</i>
   <i type="int" name="ANTIRES">     0</i>
   <i name="OMEGAMAX">    -30.00000000</i>
   <i name="OMEGATL">   -200.00000000</i>
   <i type="int" name="OMEGAGRID">     0</i>
   <i name="CSHIFT">     -0.10000000</i>
   <i type="logical" name="SELFENERGY"> F  </i>
   <i type="logical" name="LSPECTRAL"> F  </i>
   <i type="logical" name="ODDONLYGW"> F  </i>
   <i type="logical" name="EVENONLYGW"> F  </i>
   <i type="int" name="NKREDLFX">     1</i>
   <i type="int" name="NKREDLFY">     1</i>
   <i type="int" name="NKREDLFZ">     1</i>
   <i type="int" name="MAXMEM">  1800</i>
   <i type="int" name="TELESCOPE">     0</i>
  </separator>
 </parameters>
 <atominfo>
  <atoms>      12 </atoms>
  <types>       3 </types>
  <array name="atoms" >
   <dimension dim="1">ion</dimension>
   <field type="string">element</field>
   <field type="int">atomtype</field>
   <set>
    <rc><c>Cu</c><c>   1</c></rc>
    <rc><c>Cu</c><c>   1</c></rc>
    <rc><c>Cu</c><c>   1</c></rc>
    <rc><c>Cu</c><c>   1</c></rc>
    <rc><c>Ge</c><c>   2</c></rc>
    <rc><c>Ge</c><c>   2</c></rc>
    <rc><c>S </c><c>   3</c></rc>
    <rc><c>S </c><c>   3</c></rc>
    <rc><c>S </c><c>   3</c></rc>
    <rc><c>S </c><c>   3</c></rc>
    <rc><c>S </c><c>   3</c></rc>
    <rc><c>S </c><c>   3</c></rc>
   </set>
  </array>
  <array name="atomtypes" >
   <dimension dim="1">type</dimension>
   <field type="int">atomspertype</field>
   <field type="string">element</field>
   <field>mass</field>
   <field>valence</field>
   <field type="string">pseudopotential</field>
   <set>
    <rc><c>   4</c><c>Cu</c><c>     63.54600000</c><c>     17.00000000</c><c>  PAW_PBE Cu_pv 06Sep2000               </c></rc>
    <rc><c>   2</c><c>Ge</c><c>     72.61000000</c><c>      4.00000000</c><c>  PAW_PBE Ge 05Jan2001                  </c></rc>
    <rc><c>   6</c><c>S </c><c>     32.06600000</c><c>      6.00000000</c><c>  PAW_PBE S 17Jan2003                   </c></rc>
   </set>
  </array>
 </atominfo>
 <structure name="initialpos" >
  <crystal>
   <varray name="basis" >
    <v>       3.22479600      -5.64383000       0.03157200 </v>
    <v>       3.22479600       5.64383000       0.03157200 </v>
    <v>      -2.10194600       0.00000000       6.07553700 </v>
   </varray>
   <i name="volume">    221.90106089 </i>
   <varray name="rec_basis" >
    <v>       0.15452516      -0.08859232       0.05346088 </v>
    <v>       0.15452516       0.08859232       0.05346088 </v>
    <v>      -0.00160600       0.00000000       0.16403888 </v>
   </varray>
  </crystal>
  <varray name="positions" >
   <v>       0.61844300       0.12117100       0.11953300 </v>
   <v>       0.12117100       0.61844300       0.61953300 </v>
   <v>       0.96295700       0.79032200       0.11881300 </v>
   <v>       0.79032200       0.96295700       0.61881300 </v>
   <v>       0.43973200       0.26881940       0.59904700 </v>
   <v>       0.26728100       0.43973200       0.09904700 </v>
   <v>       0.07949800       0.91167500       0.49736300 </v>
   <v>       0.57140300       0.41236400       0.98018400 </v>
   <v>       0.73711100       0.25006200       0.49504900 </v>
   <v>       0.41236400       0.57140300       0.48018400 </v>
   <v>       0.91167500       0.07949800       0.99736300 </v>
   <v>       0.25006200       0.73711100       0.99504900 </v>
  </varray>
 </structure>
 <calculation>
  <scstep>
   <time name="total">  234.00  233.80</time>
   <energy>
    <i name="alphaZ">    339.31929130 </i>
    <i name="ewald">  -9064.95573510 </i>
    <i name="hartreedc">  -8067.42345037 </i>
    <i name="XCdc">    369.90509115 </i>
    <i name="pawpsdc">  16898.79341262 </i>
    <i name="pawaedc"> -17391.60796344 </i>
    <i name="eentropy">     -0.00146323 </i>
    <i name="bandstr">  -1656.94319934 </i>
    <i name="atom">  18320.98302006 </i>
    <i name="e_fr_energy">     75.52093511 </i>
    <i name="e_wo_entrp">     75.52239834 </i>
    <i name="e_0_energy">     75.52142285 </i>
   </energy>
  </scstep>
  <scstep>
   <time name="total">  240.49  240.30</time>
   <energy>
    <i name="e_fr_energy">     -8.38567256 </i>
    <i name="e_wo_entrp">     -8.38495474 </i>
    <i name="e_0_energy">     -8.38543329 </i>
   </energy>
  </scstep>
  <scstep>
   <time name="total">  239.30  239.12</time>
   <energy>
    <i name="e_fr_energy">    -15.13318623 </i>
    <i name="e_wo_entrp">    -15.13348614 </i>
    <i name="e_0_energy">    -15.13328620 </i>
   </energy>
  </scstep>
  <scstep>
   <time name="total">  240.32  240.13</time>
   <energy>
    <i name="e_fr_energy">    -22.60005038 </i>
    <i name="e_wo_entrp">    -22.60042220 </i>
    <i name="e_0_energy">    -22.60017432 </i>
   </energy>
  </scstep>
  <scstep>
   <time name="total">  238.62  238.42</time>
   <energy>
    <i name="e_fr_energy">    -60.80364889 </i>
    <i name="e_wo_entrp">    -60.80425917 </i>
    <i name="e_0_energy">    -60.80385231 </i>
   </energy>
  </scstep>
  <scstep>
   <time name="total">  239.02  238.82</time>
   <energy>
    <i name="e_fr_energy">    -65.92923312 </i>
    <i name="e_wo_entrp">    -65.92989824 </i>
    <i name="e_0_energy">    -65.92945482 </i>
   </energy>
  </scstep>
  <scstep>
   <time name="total">  239.14  238.95</time>
   <energy>
    <i name="e_fr_energy">    -67.46965631 </i>
    <i name="e_wo_entrp">    -67.47009653 </i>
    <i name="e_0_energy">    -67.46980305 </i>
   </energy>
  </scstep>
  <scstep>
   <time name="total">  245.46  245.30</time>
   <energy>
    <i name="e_fr_energy">    -69.08336601 </i>
    <i name="e_wo_entrp">    -69.08409817 </i>
    <i name="e_0_energy">    -69.08361006 </i>
   </energy>
  </scstep>
  <scstep>
   <time name="total">  247.13  246.92</time>
   <energy>
    <i name="e_fr_energy">    -69.39476132 </i>
    <i name="e_wo_entrp">    -69.39562956 </i>
    <i name="e_0_energy">    -69.39505073 </i>
   </energy>
  </scstep>
  <scstep>
   <time name="total">  246.59  246.39</time>
   <energy>
    <i name="e_fr_energy">    -69.49842971 </i>
    <i name="e_wo_entrp">    -69.49915750 </i>
    <i name="e_0_energy">    -69.49867231 </i>
   </energy>
  </scstep>
  <scstep>
   <time name="total">  246.29  247.14</time>
   <energy>
    <i name="e_fr_energy">    -69.56819061 </i>
    <i name="e_wo_entrp">    -69.56880061 </i>
    <i name="e_0_energy">    -69.56839394 </i>
   </energy>
  </scstep>
  <scstep>
   <time name="total">  246.55  246.34</time>
   <energy>
    <i name="e_fr_energy">    -69.58054204 </i>
    <i name="e_wo_entrp">    -69.58110002 </i>
    <i name="e_0_energy">    -69.58072803 </i>
   </energy>
  </scstep>
  <scstep>
   <time name="total">  246.53  246.32</time>
   <energy>
    <i name="e_fr_energy">    -69.59020942 </i>
    <i name="e_wo_entrp">    -69.59075636 </i>
    <i name="e_0_energy">    -69.59039173 </i>
   </energy>
  </scstep>
  <scstep>
   <time name="total">  246.55  246.34</time>
   <energy>
    <i name="e_fr_energy">    -69.59267263 </i>
    <i name="e_wo_entrp">    -69.59323838 </i>
    <i name="e_0_energy">    -69.59286121 </i>
   </energy>
  </scstep>
  <scstep>
   <time name="total">  245.80  245.59</time>
   <energy>
    <i name="e_fr_energy">    -69.59418043 </i>
    <i name="e_wo_entrp">    -69.59475928 </i>
    <i name="e_0_energy">    -69.59437338 </i>
   </energy>
  </scstep>
  <scstep>
   <time name="total">  246.04  245.83</time>
   <energy>
    <i name="e_fr_energy">    -69.59475354 </i>
    <i name="e_wo_entrp">    -69.59533285 </i>
    <i name="e_0_energy">    -69.59494664 </i>
   </energy>
  </scstep>
  <scstep>
   <time name="total">  246.36  246.15</time>
   <energy>
    <i name="e_fr_energy">    -69.59492725 </i>
    <i name="e_wo_entrp">    -69.59550332 </i>
    <i name="e_0_energy">    -69.59511927 </i>
   </energy>
  </scstep>
  <scstep>
   <time name="total">  246.17  245.95</time>
   <energy>
    <i name="e_fr_energy">    -69.59504475 </i>
    <i name="e_wo_entrp">    -69.59561780 </i>
    <i name="e_0_energy">    -69.59523576 </i>
   </energy>
  </scstep>
  <scstep>
   <time name="total">  246.71  246.51</time>
   <energy>
    <i name="e_fr_energy">    -69.59507388 </i>
    <i name="e_wo_entrp">    -69.59564562 </i>
    <i name="e_0_energy">    -69.59526446 </i>
   </energy>
  </scstep>
  <scstep>
   <time name="total">  247.48  247.28</time>
   <energy>
    <i name="e_fr_energy">    -69.59509377 </i>
    <i name="e_wo_entrp">    -69.59566596 </i>
    <i name="e_0_energy">    -69.59528450 </i>
   </energy>
  </scstep>
  <scstep>
   <time name="total">  247.06  246.84</time>
   <energy>
    <i name="alphaZ">    339.31929130 </i>
    <i name="ewald">  -9064.95573510 </i>
    <i name="hartreedc">  -8149.18571608 </i>
    <i name="XCdc">    372.06578251 </i>
    <i name="pawpsdc">  15921.48714359 </i>
    <i name="pawaedc"> -16406.68239700 </i>
    <i name="eentropy">      0.00057280 </i>
    <i name="bandstr">  -1742.68892943 </i>
    <i name="atom">  18320.98302006 </i>
    <i name="e_fr_energy">    -69.59510123 </i>
    <i name="e_wo_entrp">    -69.59567403 </i>
    <i name="e_0_energy">    -69.59529216 </i>
   </energy>
  </scstep>
  <structure>
   <crystal>
    <varray name="basis" >
     <v>       3.22479600      -5.64383000       0.03157200 </v>
     <v>       3.22479600       5.64383000       0.03157200 </v>
     <v>      -2.10194600       0.00000000       6.07553700 </v>
    </varray>
    <i name="volume">    221.90106089 </i>
    <varray name="rec_basis" >
     <v>       0.15452516      -0.08859232       0.05346088 </v>
     <v>       0.15452516       0.08859232       0.05346088 </v>
     <v>      -0.00160600       0.00000000       0.16403888 </v>
    </varray>
   </crystal>
   <varray name="positions" >
    <v>       0.61844300       0.12117100       0.11953300 </v>
    <v>       0.12117100       0.61844300       0.61953300 </v>
    <v>       0.96295700       0.79032200       0.11881300 </v>
    <v>       0.79032200       0.96295700       0.61881300 </v>
    <v>       0.43973200       0.26881940       0.59904700 </v>
    <v>       0.26728100       0.43973200       0.09904700 </v>
    <v>       0.07949800       0.91167500       0.49736300 </v>
    <v>       0.57140300       0.41236400       0.98018400 </v>
    <v>       0.73711100       0.25006200       0.49504900 </v>
    <v>       0.41236400       0.57140300       0.48018400 </v>
    <v>       0.91167500       0.07949800       0.99736300 </v>
    <v>       0.25006200       0.73711100       0.99504900 </v>
   </varray>
  </structure>
  <varray name="forces" >
   <v>      -0.00194145      -0.00139463       0.00312046 </v>
   <v>      -0.00512583       0.00690723      -0.00036099 </v>
   <v>       0.00176372       0.00057367       0.00495285 </v>
   <v>       0.00853260       0.00045856       0.00021198 </v>
   <v>      -0.07068926      -0.11201816      -0.01256548 </v>
   <v>      -0.00099685      -0.00643087      -0.01799120 </v>
   <v>       0.05123789       0.00677478       0.01186902 </v>
   <v>       0.00292916       0.00047992       0.00335065 </v>
   <v>      -0.02106320       0.04725602       0.01078427 </v>
   <v>       0.03448344       0.06357381      -0.00496132 </v>
   <v>       0.00352778      -0.00146622      -0.00011944 </v>
   <v>      -0.00265798      -0.00471409       0.00170919 </v>
  </varray>
  <energy>
   <i name="e_fr_energy">    -69.59510123 </i>
   <i name="e_wo_entrp">    -69.59529216 </i>
   <i name="e_0_energy">      0.00057280 </i>
  </energy>
  <time name="totalsc"> 5617.96 5616.93</time>
  <eigenvalues>
   <array>
    <dimension dim="1">band</dimension>
    <dimension dim="2">kpoint</dimension>
    <dimension dim="3">spin</dimension>
    <field>eigene</field>
    <field>occ</field>
    <set>
     <set comment="spin 1">
      <set comment="kpoint 1">
       <r>  -68.6454    1.0000 </r>
       <r>  -68.6449    1.0000 </r>
       <r>  -68.6331    1.0000 </r>
       <r>  -68.6323    1.0000 </r>
       <r>  -68.6129    1.0000 </r>
       <r>  -68.6122    1.0000 </r>
       <r>  -68.5954    1.0000 </r>
       <r>  -68.5953    1.0000 </r>
       <r>  -68.5770    1.0000 </r>
       <r>  -68.5765    1.0000 </r>
       <r>  -68.5596    1.0000 </r>
       <r>  -68.5597    1.0000 </r>
       <r>  -12.7281    1.0000 </r>
       <r>  -11.1291    1.0000 </r>
       <r>  -10.9227    1.0000 </r>
       <r>  -10.6045    1.0000 </r>
       <r>  -10.2472    1.0000 </r>
       <r>  -10.2232    1.0000 </r>
       <r>   -5.9956    1.0000 </r>
       <r>   -4.9821    1.0000 </r>
       <r>   -2.7634    1.0000 </r>
       <r>   -2.2170    1.0000 </r>
       <r>   -2.0692    1.0000 </r>
       <r>   -1.9207    1.0000 </r>
       <r>   -1.5774    1.0000 </r>
       <r>   -0.9820    1.0000 </r>
       <r>   -0.9513    1.0000 </r>
       <r>   -0.6814    1.0000 </r>
       <r>   -0.4023    1.0000 </r>
       <r>   -0.2778    1.0000 </r>
       <r>   -0.2586    1.0000 </r>
       <r>   -0.2351    1.0000 </r>
       <r>   -0.1897    1.0000 </r>
       <r>   -0.1560    1.0000 </r>
       <r>   -0.0355    1.0000 </r>
       <r>    0.0332    1.0000 </r>
       <r>    1.3506    1.0000 </r>
       <r>    1.3630    1.0000 </r>
       <r>    1.4152    1.0000 </r>
       <r>    1.4586    1.0000 </r>
       <r>    1.4721    1.0000 </r>
       <r>    1.4744    1.0000 </r>
       <r>    1.5215    1.0000 </r>
       <r>    1.5333    1.0000 </r>
       <r>    1.5752    1.0000 </r>
       <r>    1.7124    1.0000 </r>
       <r>    1.8938    1.0000 </r>
       <r>    1.9287    1.0000 </r>
       <r>    2.0581    1.0000 </r>
       <r>    2.6538    1.0000 </r>
       <r>    2.7319    1.0000 </r>
       <r>    3.0908    1.0000 </r>
       <r>    3.2178    1.0000 </r>
       <r>    4.0064    1.0047 </r>
       <r>    4.0402    1.0137 </r>
       <r>    4.1738    0.8595 </r>
       <r>    5.5348   -0.0000 </r>
       <r>    6.3564   -0.0000 </r>
       <r>    7.6328    0.0000 </r>
       <r>    7.9813    0.0000 </r>
       <r>    8.6188    0.0000 </r>
       <r>    8.7957    0.0000 </r>
       <r>    9.5647    0.0000 </r>
       <r>    9.7360    0.0000 </r>
       <r>    9.8037    0.0000 </r>
       <r>   10.4232    0.0000 </r>
       <r>   10.5832    0.0000 </r>
       <r>   10.6915    0.0000 </r>
       <r>   10.7131    0.0000 </r>
       <r>   11.2844    0.0000 </r>
       <r>   11.7133    0.0000 </r>
       <r>   12.3926    0.0000 </r>
       <r>   12.4511    0.0000 </r>
       <r>   12.7270    0.0000 </r>
       <r>   13.3245    0.0000 </r>
       <r>   13.3844    0.0000 </r>
       <r>   13.8269    0.0000 </r>
       <r>   13.8880    0.0000 </r>
       <r>   14.1454    0.0000 </r>
       <r>   14.1790    0.0000 </r>
      </set>
      <set comment="kpoint 2">
       <r>  -68.6454    1.0000 </r>
       <r>  -68.6449    1.0000 </r>
       <r>  -68.6331    1.0000 </r>
       <r>  -68.6323    1.0000 </r>
       <r>  -68.6128    1.0000 </r>
       <r>  -68.6121    1.0000 </r>
       <r>  -68.5955    1.0000 </r>
       <r>  -68.5953    1.0000 </r>
       <r>  -68.5770    1.0000 </r>
       <r>  -68.5764    1.0000 </r>
       <r>  -68.5595    1.0000 </r>
       <r>  -68.5597    1.0000 </r>
       <r>  -12.6044    1.0000 </r>
       <r>  -11.1237    1.0000 </r>
       <r>  -10.9919    1.0000 </r>
       <r>  -10.6728    1.0000 </r>
       <r>  -10.3615    1.0000 </r>
       <r>  -10.2700    1.0000 </r>
       <r>   -5.9441    1.0000 </r>
       <r>   -4.7729    1.0000 </r>
       <r>   -2.6505    1.0000 </r>
       <r>   -2.2574    1.0000 </r>
       <r>   -2.0856    1.0000 </r>
       <r>   -1.6884    1.0000 </r>
       <r>   -1.3417    1.0000 </r>
       <r>   -0.9949    1.0000 </r>
       <r>   -0.7678    1.0000 </r>
       <r>   -0.6216    1.0000 </r>
       <r>   -0.5555    1.0000 </r>
       <r>   -0.4394    1.0000 </r>
       <r>   -0.3537    1.0000 </r>
       <r>   -0.2440    1.0000 </r>
       <r>   -0.1948    1.0000 </r>
       <r>   -0.1674    1.0000 </r>
       <r>   -0.0451    1.0000 </r>
       <r>    0.0397    1.0000 </r>
       <r>    1.2800    1.0000 </r>
       <r>    1.3371    1.0000 </r>
       <r>    1.3557    1.0000 </r>
       <r>    1.3932    1.0000 </r>
       <r>    1.4279    1.0000 </r>
       <r>    1.4726    1.0000 </r>
       <r>    1.4989    1.0000 </r>
       <r>    1.5318    1.0000 </r>
       <r>    1.7251    1.0000 </r>
       <r>    1.8605    1.0000 </r>
       <r>    2.0564    1.0000 </r>
       <r>    2.0927    1.0000 </r>
       <r>    2.2332    1.0000 </r>
       <r>    2.4155    1.0000 </r>
       <r>    2.5580    1.0000 </r>
       <r>    2.8257    1.0000 </r>
       <r>    2.9468    1.0000 </r>
       <r>    3.2445    1.0000 </r>
       <r>    3.6629    1.0000 </r>
       <r>    4.0409    1.0140 </r>
       <r>    6.1655   -0.0000 </r>
       <r>    6.9049   -0.0000 </r>
       <r>    8.1465    0.0000 </r>
       <r>    8.2635    0.0000 </r>
       <r>    8.5872    0.0000 </r>
       <r>    9.0198    0.0000 </r>
       <r>    9.2422    0.0000 </r>
       <r>    9.5283    0.0000 </r>
       <r>    9.8564    0.0000 </r>
       <r>   10.3710    0.0000 </r>
       <r>   10.6324    0.0000 </r>
       <r>   10.8109    0.0000 </r>
       <r>   10.9431    0.0000 </r>
       <r>   11.1910    0.0000 </r>
       <r>   11.6543    0.0000 </r>
       <r>   11.7705    0.0000 </r>
       <r>   12.1199    0.0000 </r>
       <r>   12.4424    0.0000 </r>
       <r>   12.6185    0.0000 </r>
       <r>   13.0097    0.0000 </r>
       <r>   13.5076    0.0000 </r>
       <r>   13.8759    0.0000 </r>
       <r>   14.2101    0.0000 </r>
       <r>   14.7123    0.0000 </r>
      </set>
      <set comment="kpoint 3">
       <r>  -68.6452    1.0000 </r>
       <r>  -68.6447    1.0000 </r>
       <r>  -68.6330    1.0000 </r>
       <r>  -68.6322    1.0000 </r>
       <r>  -68.6128    1.0000 </r>
       <r>  -68.6121    1.0000 </r>
       <r>  -68.5954    1.0000 </r>
       <r>  -68.5952    1.0000 </r>
       <r>  -68.5770    1.0000 </r>
       <r>  -68.5764    1.0000 </r>
       <r>  -68.5594    1.0000 </r>
       <r>  -68.5596    1.0000 </r>
       <r>  -12.4474    1.0000 </r>
       <r>  -11.2449    1.0000 </r>
       <r>  -10.9687    1.0000 </r>
       <r>  -10.7520    1.0000 </r>
       <r>  -10.4270    1.0000 </r>
       <r>  -10.3504    1.0000 </r>
       <r>   -5.8822    1.0000 </r>
       <r>   -4.5495    1.0000 </r>
       <r>   -2.5014    1.0000 </r>
       <r>   -2.2477    1.0000 </r>
       <r>   -1.9450    1.0000 </r>
       <r>   -1.4555    1.0000 </r>
       <r>   -1.2229    1.0000 </r>
       <r>   -1.0971    1.0000 </r>
       <r>   -0.9034    1.0000 </r>
       <r>   -0.8595    1.0000 </r>
       <r>   -0.6017    1.0000 </r>
       <r>   -0.5370    1.0000 </r>
       <r>   -0.2716    1.0000 </r>
       <r>   -0.2090    1.0000 </r>
       <r>   -0.1985    1.0000 </r>
       <r>   -0.1442    1.0000 </r>
       <r>   -0.0290    1.0000 </r>
       <r>    0.0794    1.0000 </r>
       <r>    1.2553    1.0000 </r>
       <r>    1.3289    1.0000 </r>
       <r>    1.3485    1.0000 </r>
       <r>    1.3979    1.0000 </r>
       <r>    1.4717    1.0000 </r>
       <r>    1.4797    1.0000 </r>
       <r>    1.5006    1.0000 </r>
       <r>    1.5556    1.0000 </r>
       <r>    1.7528    1.0000 </r>
       <r>    1.7930    1.0000 </r>
       <r>    1.9681    1.0000 </r>
       <r>    2.1466    1.0000 </r>
       <r>    2.3179    1.0000 </r>
       <r>    2.3598    1.0000 </r>
       <r>    2.5553    1.0000 </r>
       <r>    2.6727    1.0000 </r>
       <r>    2.9377    1.0000 </r>
       <r>    3.0781    1.0000 </r>
       <r>    3.2520    1.0000 </r>
       <r>    3.8628    1.0000 </r>
       <r>    6.3792   -0.0000 </r>
       <r>    7.0973    0.0000 </r>
       <r>    7.9780    0.0000 </r>
       <r>    8.2240    0.0000 </r>
       <r>    8.5178    0.0000 </r>
       <r>    8.8136    0.0000 </r>
       <r>    9.3222    0.0000 </r>
       <r>    9.8926    0.0000 </r>
       <r>   10.0019    0.0000 </r>
       <r>   10.5156    0.0000 </r>
       <r>   10.6816    0.0000 </r>
       <r>   10.7855    0.0000 </r>
       <r>   11.1471    0.0000 </r>
       <r>   11.4051    0.0000 </r>
       <r>   11.6108    0.0000 </r>
       <r>   11.7770    0.0000 </r>
       <r>   11.9420    0.0000 </r>
       <r>   12.5036    0.0000 </r>
       <r>   12.7764    0.0000 </r>
       <r>   13.0015    0.0000 </r>
       <r>   13.3994    0.0000 </r>
       <r>   13.5447    0.0000 </r>
       <r>   13.9393    0.0000 </r>
       <r>   14.2777    0.0000 </r>
      </set>
      <set comment="kpoint 4">
       <r>  -68.6454    1.0000 </r>
       <r>  -68.6449    1.0000 </r>
       <r>  -68.6331    1.0000 </r>
       <r>  -68.6323    1.0000 </r>
       <r>  -68.6128    1.0000 </r>
       <r>  -68.6121    1.0000 </r>
       <r>  -68.5955    1.0000 </r>
       <r>  -68.5953    1.0000 </r>
       <r>  -68.5769    1.0000 </r>
       <r>  -68.5764    1.0000 </r>
       <r>  -68.5595    1.0000 </r>
       <r>  -68.5597    1.0000 </r>
       <r>  -12.6044    1.0000 </r>
       <r>  -11.1169    1.0000 </r>
       <r>  -10.9984    1.0000 </r>
       <r>  -10.6770    1.0000 </r>
       <r>  -10.3593    1.0000 </r>
       <r>  -10.2685    1.0000 </r>
       <r>   -5.9438    1.0000 </r>
       <r>   -4.7715    1.0000 </r>
       <r>   -2.6488    1.0000 </r>
       <r>   -2.2562    1.0000 </r>
       <r>   -2.0874    1.0000 </r>
       <r>   -1.6916    1.0000 </r>
       <r>   -1.3459    1.0000 </r>
       <r>   -0.9967    1.0000 </r>
       <r>   -0.7674    1.0000 </r>
       <r>   -0.6197    1.0000 </r>
       <r>   -0.5512    1.0000 </r>
       <r>   -0.4409    1.0000 </r>
       <r>   -0.3594    1.0000 </r>
       <r>   -0.2411    1.0000 </r>
       <r>   -0.1927    1.0000 </r>
       <r>   -0.1663    1.0000 </r>
       <r>   -0.0447    1.0000 </r>
       <r>    0.0379    1.0000 </r>
       <r>    1.2799    1.0000 </r>
       <r>    1.3364    1.0000 </r>
       <r>    1.3557    1.0000 </r>
       <r>    1.3930    1.0000 </r>
       <r>    1.4278    1.0000 </r>
       <r>    1.4730    1.0000 </r>
       <r>    1.4993    1.0000 </r>
       <r>    1.5308    1.0000 </r>
       <r>    1.7251    1.0000 </r>
       <r>    1.8613    1.0000 </r>
       <r>    2.0568    1.0000 </r>
       <r>    2.0952    1.0000 </r>
       <r>    2.2313    1.0000 </r>
       <r>    2.4150    1.0000 </r>
       <r>    2.5565    1.0000 </r>
       <r>    2.8283    1.0000 </r>
       <r>    2.9492    1.0000 </r>
       <r>    3.2441    1.0000 </r>
       <r>    3.6640    1.0000 </r>
       <r>    4.0425    1.0147 </r>
       <r>    6.1649   -0.0000 </r>
       <r>    6.9053   -0.0000 </r>
       <r>    8.1339    0.0000 </r>
       <r>    8.2688    0.0000 </r>
       <r>    8.5975    0.0000 </r>
       <r>    9.0124    0.0000 </r>
       <r>    9.2391    0.0000 </r>
       <r>    9.5220    0.0000 </r>
       <r>    9.8657    0.0000 </r>
       <r>   10.3732    0.0000 </r>
       <r>   10.6302    0.0000 </r>
       <r>   10.8151    0.0000 </r>
       <r>   10.9414    0.0000 </r>
       <r>   11.1890    0.0000 </r>
       <r>   11.6560    0.0000 </r>
       <r>   11.7717    0.0000 </r>
       <r>   12.1173    0.0000 </r>
       <r>   12.4433    0.0000 </r>
       <r>   12.6189    0.0000 </r>
       <r>   13.0084    0.0000 </r>
       <r>   13.5165    0.0000 </r>
       <r>   13.8988    0.0000 </r>
       <r>   14.2682    0.0000 </r>
       <r>   14.8475    0.0000 </r>
      </set>
      <set comment="kpoint 5">
       <r>  -68.6454    1.0000 </r>
       <r>  -68.6449    1.0000 </r>
       <r>  -68.6330    1.0000 </r>
       <r>  -68.6322    1.0000 </r>
       <r>  -68.6129    1.0000 </r>
       <r>  -68.6123    1.0000 </r>
       <r>  -68.5954    1.0000 </r>
       <r>  -68.5952    1.0000 </r>
       <r>  -68.5771    1.0000 </r>
       <r>  -68.5766    1.0000 </r>
       <r>  -68.5596    1.0000 </r>
       <r>  -68.5597    1.0000 </r>
       <r>  -12.4511    1.0000 </r>
       <r>  -11.1837    1.0000 </r>
       <r>  -10.9560    1.0000 </r>
       <r>  -10.8728    1.0000 </r>
       <r>  -10.3835    1.0000 </r>
       <r>  -10.3445    1.0000 </r>
       <r>   -5.8868    1.0000 </r>
       <r>   -4.5213    1.0000 </r>
       <r>   -2.4237    1.0000 </r>
       <r>   -2.2497    1.0000 </r>
       <r>   -1.7915    1.0000 </r>
       <r>   -1.6840    1.0000 </r>
       <r>   -1.3524    1.0000 </r>
       <r>   -1.2942    1.0000 </r>
       <r>   -1.0785    1.0000 </r>
       <r>   -0.6788    1.0000 </r>
       <r>   -0.5265    1.0000 </r>
       <r>   -0.2957    1.0000 </r>
       <r>   -0.2829    1.0000 </r>
       <r>   -0.2239    1.0000 </r>
       <r>   -0.1831    1.0000 </r>
       <r>   -0.1293    1.0000 </r>
       <r>   -0.0894    1.0000 </r>
       <r>    0.0774    1.0000 </r>
       <r>    1.2943    1.0000 </r>
       <r>    1.3124    1.0000 </r>
       <r>    1.4166    1.0000 </r>
       <r>    1.4271    1.0000 </r>
       <r>    1.4642    1.0000 </r>
       <r>    1.4833    1.0000 </r>
       <r>    1.4960    1.0000 </r>
       <r>    1.5713    1.0000 </r>
       <r>    1.6718    1.0000 </r>
       <r>    1.8800    1.0000 </r>
       <r>    1.9412    1.0000 </r>
       <r>    2.1350    1.0000 </r>
       <r>    2.2797    1.0000 </r>
       <r>    2.3209    1.0000 </r>
       <r>    2.5600    1.0000 </r>
       <r>    2.6521    1.0000 </r>
       <r>    2.9045    1.0000 </r>
       <r>    2.9465    1.0000 </r>
       <r>    3.6999    1.0000 </r>
       <r>    3.8345    1.0000 </r>
       <r>    6.1662   -0.0000 </r>
       <r>    6.9912    0.0000 </r>
       <r>    7.9977    0.0000 </r>
       <r>    8.3353    0.0000 </r>
       <r>    8.4242    0.0000 </r>
       <r>    8.5779    0.0000 </r>
       <r>    9.1426    0.0000 </r>
       <r>    9.2444    0.0000 </r>
       <r>   10.3567    0.0000 </r>
       <r>   10.4891    0.0000 </r>
       <r>   10.9206    0.0000 </r>
       <r>   11.1852    0.0000 </r>
       <r>   11.3286    0.0000 </r>
       <r>   11.5590    0.0000 </r>
       <r>   11.8184    0.0000 </r>
       <r>   11.9640    0.0000 </r>
       <r>   12.3156    0.0000 </r>
       <r>   12.4998    0.0000 </r>
       <r>   12.7124    0.0000 </r>
       <r>   12.9153    0.0000 </r>
       <r>   13.3410    0.0000 </r>
       <r>   13.4480    0.0000 </r>
       <r>   14.2577    0.0000 </r>
       <r>   14.3690    0.0000 </r>
      </set>
      <set comment="kpoint 6">
       <r>  -68.6450    1.0000 </r>
       <r>  -68.6448    1.0000 </r>
       <r>  -68.6331    1.0000 </r>
       <r>  -68.6322    1.0000 </r>
       <r>  -68.6127    1.0000 </r>
       <r>  -68.6121    1.0000 </r>
       <r>  -68.5954    1.0000 </r>
       <r>  -68.5953    1.0000 </r>
       <r>  -68.5768    1.0000 </r>
       <r>  -68.5764    1.0000 </r>
       <r>  -68.5594    1.0000 </r>
       <r>  -68.5596    1.0000 </r>
       <r>  -12.4516    1.0000 </r>
       <r>  -11.3475    1.0000 </r>
       <r>  -10.9511    1.0000 </r>
       <r>  -10.7303    1.0000 </r>
       <r>  -10.3845    1.0000 </r>
       <r>  -10.2645    1.0000 </r>
       <r>   -5.9584    1.0000 </r>
       <r>   -4.6416    1.0000 </r>
       <r>   -2.3976    1.0000 </r>
       <r>   -2.2295    1.0000 </r>
       <r>   -2.0631    1.0000 </r>
       <r>   -1.6351    1.0000 </r>
       <r>   -1.3581    1.0000 </r>
       <r>   -1.2821    1.0000 </r>
       <r>   -1.0176    1.0000 </r>
       <r>   -0.5098    1.0000 </r>
       <r>   -0.4841    1.0000 </r>
       <r>   -0.3300    1.0000 </r>
       <r>   -0.2817    1.0000 </r>
       <r>   -0.2133    1.0000 </r>
       <r>   -0.1524    1.0000 </r>
       <r>   -0.1346    1.0000 </r>
       <r>   -0.0100    1.0000 </r>
       <r>    0.1127    1.0000 </r>
       <r>    1.2472    1.0000 </r>
       <r>    1.3166    1.0000 </r>
       <r>    1.3833    1.0000 </r>
       <r>    1.4379    1.0000 </r>
       <r>    1.4628    1.0000 </r>
       <r>    1.4929    1.0000 </r>
       <r>    1.4977    1.0000 </r>
       <r>    1.5506    1.0000 </r>
       <r>    1.7497    1.0000 </r>
       <r>    1.8294    1.0000 </r>
       <r>    1.9225    1.0000 </r>
       <r>    2.1343    1.0000 </r>
       <r>    2.2199    1.0000 </r>
       <r>    2.3856    1.0000 </r>
       <r>    2.5611    1.0000 </r>
       <r>    2.7912    1.0000 </r>
       <r>    2.9801    1.0000 </r>
       <r>    3.3137    1.0000 </r>
       <r>    3.6054    1.0000 </r>
       <r>    3.7507    1.0000 </r>
       <r>    6.0824   -0.0000 </r>
       <r>    6.9387   -0.0000 </r>
       <r>    7.6138    0.0000 </r>
       <r>    8.0621    0.0000 </r>
       <r>    8.4138    0.0000 </r>
       <r>    8.6216    0.0000 </r>
       <r>    8.9783    0.0000 </r>
       <r>    9.1467    0.0000 </r>
       <r>   10.0866    0.0000 </r>
       <r>   10.3349    0.0000 </r>
       <r>   10.7289    0.0000 </r>
       <r>   11.1036    0.0000 </r>
       <r>   11.4593    0.0000 </r>
       <r>   11.5960    0.0000 </r>
       <r>   11.8003    0.0000 </r>
       <r>   12.0808    0.0000 </r>
       <r>   12.4790    0.0000 </r>
       <r>   12.9133    0.0000 </r>
       <r>   13.0462    0.0000 </r>
       <r>   13.8356    0.0000 </r>
       <r>   14.2184    0.0000 </r>
       <r>   14.6551    0.0000 </r>
       <r>   15.4312    0.0000 </r>
       <r>   15.6409    0.0000 </r>
      </set>
      <set comment="kpoint 7">
       <r>  -68.6454    1.0000 </r>
       <r>  -68.6449    1.0000 </r>
       <r>  -68.6331    1.0000 </r>
       <r>  -68.6322    1.0000 </r>
       <r>  -68.6127    1.0000 </r>
       <r>  -68.6121    1.0000 </r>
       <r>  -68.5954    1.0000 </r>
       <r>  -68.5953    1.0000 </r>
       <r>  -68.5769    1.0000 </r>
       <r>  -68.5764    1.0000 </r>
       <r>  -68.5595    1.0000 </r>
       <r>  -68.5597    1.0000 </r>
       <r>  -12.6073    1.0000 </r>
       <r>  -11.2440    1.0000 </r>
       <r>  -11.0051    1.0000 </r>
       <r>  -10.5675    1.0000 </r>
       <r>  -10.3613    1.0000 </r>
       <r>  -10.1716    1.0000 </r>
       <r>   -6.0205    1.0000 </r>
       <r>   -4.8928    1.0000 </r>
       <r>   -2.6493    1.0000 </r>
       <r>   -2.3175    1.0000 </r>
       <r>   -1.9800    1.0000 </r>
       <r>   -1.6427    1.0000 </r>
       <r>   -1.4964    1.0000 </r>
       <r>   -1.1815    1.0000 </r>
       <r>   -0.7865    1.0000 </r>
       <r>   -0.5811    1.0000 </r>
       <r>   -0.4483    1.0000 </r>
       <r>   -0.3351    1.0000 </r>
       <r>   -0.2917    1.0000 </r>
       <r>   -0.2322    1.0000 </r>
       <r>   -0.1748    1.0000 </r>
       <r>   -0.1330    1.0000 </r>
       <r>   -0.0075    1.0000 </r>
       <r>    0.0738    1.0000 </r>
       <r>    1.2602    1.0000 </r>
       <r>    1.3213    1.0000 </r>
       <r>    1.3655    1.0000 </r>
       <r>    1.4241    1.0000 </r>
       <r>    1.4320    1.0000 </r>
       <r>    1.4769    1.0000 </r>
       <r>    1.5047    1.0000 </r>
       <r>    1.5439    1.0000 </r>
       <r>    1.7254    1.0000 </r>
       <r>    1.8128    1.0000 </r>
       <r>    1.9960    1.0000 </r>
       <r>    2.0734    1.0000 </r>
       <r>    2.4176    1.0000 </r>
       <r>    2.4633    1.0000 </r>
       <r>    2.5294    1.0000 </r>
       <r>    2.8743    1.0000 </r>
       <r>    3.1426    1.0000 </r>
       <r>    3.2302    1.0000 </r>
       <r>    3.7879    1.0000 </r>
       <r>    4.0715    1.0274 </r>
       <r>    5.9745   -0.0000 </r>
       <r>    6.6869   -0.0000 </r>
       <r>    7.5373    0.0000 </r>
       <r>    8.2185    0.0000 </r>
       <r>    8.6171    0.0000 </r>
       <r>    8.9229    0.0000 </r>
       <r>    9.2988    0.0000 </r>
       <r>    9.4260    0.0000 </r>
       <r>    9.8010    0.0000 </r>
       <r>   10.2677    0.0000 </r>
       <r>   10.5434    0.0000 </r>
       <r>   10.8301    0.0000 </r>
       <r>   10.9679    0.0000 </r>
       <r>   11.3818    0.0000 </r>
       <r>   11.4729    0.0000 </r>
       <r>   11.7328    0.0000 </r>
       <r>   12.1018    0.0000 </r>
       <r>   12.6633    0.0000 </r>
       <r>   12.9409    0.0000 </r>
       <r>   13.1019    0.0000 </r>
       <r>   13.3521    0.0000 </r>
       <r>   13.5206    0.0000 </r>
       <r>   14.4794    0.0000 </r>
       <r>   14.7558    0.0000 </r>
      </set>
      <set comment="kpoint 8">
       <r>  -68.6452    1.0000 </r>
       <r>  -68.6448    1.0000 </r>
       <r>  -68.6331    1.0000 </r>
       <r>  -68.6322    1.0000 </r>
       <r>  -68.6128    1.0000 </r>
       <r>  -68.6121    1.0000 </r>
       <r>  -68.5954    1.0000 </r>
       <r>  -68.5953    1.0000 </r>
       <r>  -68.5769    1.0000 </r>
       <r>  -68.5764    1.0000 </r>
       <r>  -68.5594    1.0000 </r>
       <r>  -68.5596    1.0000 </r>
       <r>  -12.4473    1.0000 </r>
       <r>  -11.2381    1.0000 </r>
       <r>  -10.9717    1.0000 </r>
       <r>  -10.7654    1.0000 </r>
       <r>  -10.4179    1.0000 </r>
       <r>  -10.3503    1.0000 </r>
       <r>   -5.8814    1.0000 </r>
       <r>   -4.5463    1.0000 </r>
       <r>   -2.4991    1.0000 </r>
       <r>   -2.2468    1.0000 </r>
       <r>   -1.9469    1.0000 </r>
       <r>   -1.4648    1.0000 </r>
       <r>   -1.2261    1.0000 </r>
       <r>   -1.1084    1.0000 </r>
       <r>   -0.8991    1.0000 </r>
       <r>   -0.8600    1.0000 </r>
       <r>   -0.5969    1.0000 </r>
       <r>   -0.5328    1.0000 </r>
       <r>   -0.2735    1.0000 </r>
       <r>   -0.2053    1.0000 </r>
       <r>   -0.1981    1.0000 </r>
       <r>   -0.1446    1.0000 </r>
       <r>   -0.0294    1.0000 </r>
       <r>    0.0775    1.0000 </r>
       <r>    1.2550    1.0000 </r>
       <r>    1.3284    1.0000 </r>
       <r>    1.3483    1.0000 </r>
       <r>    1.3981    1.0000 </r>
       <r>    1.4721    1.0000 </r>
       <r>    1.4800    1.0000 </r>
       <r>    1.5011    1.0000 </r>
       <r>    1.5539    1.0000 </r>
       <r>    1.7521    1.0000 </r>
       <r>    1.7921    1.0000 </r>
       <r>    1.9685    1.0000 </r>
       <r>    2.1489    1.0000 </r>
       <r>    2.3211    1.0000 </r>
       <r>    2.3626    1.0000 </r>
       <r>    2.5585    1.0000 </r>
       <r>    2.6723    1.0000 </r>
       <r>    2.9382    1.0000 </r>
       <r>    3.0807    1.0000 </r>
       <r>    3.2516    1.0000 </r>
       <r>    3.8653    1.0000 </r>
       <r>    6.3785   -0.0000 </r>
       <r>    7.0979    0.0000 </r>
       <r>    7.9772    0.0000 </r>
       <r>    8.1971    0.0000 </r>
       <r>    8.5200    0.0000 </r>
       <r>    8.8173    0.0000 </r>
       <r>    9.3253    0.0000 </r>
       <r>    9.8828    0.0000 </r>
       <r>   10.0129    0.0000 </r>
       <r>   10.5197    0.0000 </r>
       <r>   10.6894    0.0000 </r>
       <r>   10.7941    0.0000 </r>
       <r>   11.1400    0.0000 </r>
       <r>   11.4071    0.0000 </r>
       <r>   11.6109    0.0000 </r>
       <r>   11.7800    0.0000 </r>
       <r>   11.9442    0.0000 </r>
       <r>   12.5058    0.0000 </r>
       <r>   12.8296    0.0000 </r>
       <r>   13.0334    0.0000 </r>
       <r>   13.5488    0.0000 </r>
       <r>   13.6837    0.0000 </r>
       <r>   14.5539    0.0000 </r>
       <r>   15.2435    0.0000 </r>
      </set>
      <set comment="kpoint 9">
       <r>  -68.6450    1.0000 </r>
       <r>  -68.6449    1.0000 </r>
       <r>  -68.6330    1.0000 </r>
       <r>  -68.6322    1.0000 </r>
       <r>  -68.6127    1.0000 </r>
       <r>  -68.6121    1.0000 </r>
       <r>  -68.5954    1.0000 </r>
       <r>  -68.5953    1.0000 </r>
       <r>  -68.5768    1.0000 </r>
       <r>  -68.5764    1.0000 </r>
       <r>  -68.5595    1.0000 </r>
       <r>  -68.5595    1.0000 </r>
       <r>  -12.4515    1.0000 </r>
       <r>  -11.3459    1.0000 </r>
       <r>  -10.9514    1.0000 </r>
       <r>  -10.7343    1.0000 </r>
       <r>  -10.3843    1.0000 </r>
       <r>  -10.2621    1.0000 </r>
       <r>   -5.9581    1.0000 </r>
       <r>   -4.6403    1.0000 </r>
       <r>   -2.3950    1.0000 </r>
       <r>   -2.2298    1.0000 </r>
       <r>   -2.0593    1.0000 </r>
       <r>   -1.6427    1.0000 </r>
       <r>   -1.3626    1.0000 </r>
       <r>   -1.2831    1.0000 </r>
       <r>   -1.0194    1.0000 </r>
       <r>   -0.5126    1.0000 </r>
       <r>   -0.4793    1.0000 </r>
       <r>   -0.3270    1.0000 </r>
       <r>   -0.2829    1.0000 </r>
       <r>   -0.2148    1.0000 </r>
       <r>   -0.1485    1.0000 </r>
       <r>   -0.1342    1.0000 </r>
       <r>   -0.0117    1.0000 </r>
       <r>    0.1123    1.0000 </r>
       <r>    1.2473    1.0000 </r>
       <r>    1.3163    1.0000 </r>
       <r>    1.3832    1.0000 </r>
       <r>    1.4379    1.0000 </r>
       <r>    1.4627    1.0000 </r>
       <r>    1.4927    1.0000 </r>
       <r>    1.4976    1.0000 </r>
       <r>    1.5504    1.0000 </r>
       <r>    1.7501    1.0000 </r>
       <r>    1.8290    1.0000 </r>
       <r>    1.9227    1.0000 </r>
       <r>    2.1348    1.0000 </r>
       <r>    2.2205    1.0000 </r>
       <r>    2.3867    1.0000 </r>
       <r>    2.5631    1.0000 </r>
       <r>    2.7938    1.0000 </r>
       <r>    2.9793    1.0000 </r>
       <r>    3.3133    1.0000 </r>
       <r>    3.6048    1.0000 </r>
       <r>    3.7522    1.0000 </r>
       <r>    6.0820   -0.0000 </r>
       <r>    6.9388   -0.0000 </r>
       <r>    7.6104    0.0000 </r>
       <r>    8.0615    0.0000 </r>
       <r>    8.4142    0.0000 </r>
       <r>    8.6216    0.0000 </r>
       <r>    8.9782    0.0000 </r>
       <r>    9.1474    0.0000 </r>
       <r>   10.0854    0.0000 </r>
       <r>   10.3347    0.0000 </r>
       <r>   10.7312    0.0000 </r>
       <r>   11.1063    0.0000 </r>
       <r>   11.4572    0.0000 </r>
       <r>   11.5780    0.0000 </r>
       <r>   11.7836    0.0000 </r>
       <r>   12.0313    0.0000 </r>
       <r>   12.5202    0.0000 </r>
       <r>   12.6794    0.0000 </r>
       <r>   12.9108    0.0000 </r>
       <r>   13.2137    0.0000 </r>
       <r>   14.2331    0.0000 </r>
       <r>   14.7734    0.0000 </r>
       <r>   15.2473    0.0000 </r>
       <r>   15.9016    0.0000 </r>
      </set>
      <set comment="kpoint 10">
       <r>  -68.6450    1.0000 </r>
       <r>  -68.6445    1.0000 </r>
       <r>  -68.6329    1.0000 </r>
       <r>  -68.6320    1.0000 </r>
       <r>  -68.6125    1.0000 </r>
       <r>  -68.6121    1.0000 </r>
       <r>  -68.5952    1.0000 </r>
       <r>  -68.5950    1.0000 </r>
       <r>  -68.5768    1.0000 </r>
       <r>  -68.5763    1.0000 </r>
       <r>  -68.5591    1.0000 </r>
       <r>  -68.5595    1.0000 </r>
       <r>  -12.4440    1.0000 </r>
       <r>  -11.4934    1.0000 </r>
       <r>  -10.9270    1.0000 </r>
       <r>  -10.6124    1.0000 </r>
       <r>  -10.3925    1.0000 </r>
       <r>  -10.1910    1.0000 </r>
       <r>   -6.0364    1.0000 </r>
       <r>   -4.8081    1.0000 </r>
       <r>   -2.3150    1.0000 </r>
       <r>   -2.2689    1.0000 </r>
       <r>   -2.0967    1.0000 </r>
       <r>   -1.7048    1.0000 </r>
       <r>   -1.2477    1.0000 </r>
       <r>   -1.1101    1.0000 </r>
       <r>   -0.8397    1.0000 </r>
       <r>   -0.7787    1.0000 </r>
       <r>   -0.7239    1.0000 </r>
       <r>   -0.2399    1.0000 </r>
       <r>   -0.1997    1.0000 </r>
       <r>   -0.1809    1.0000 </r>
       <r>   -0.1525    1.0000 </r>
       <r>   -0.0411    1.0000 </r>
       <r>   -0.0015    1.0000 </r>
       <r>    0.1856    1.0000 </r>
       <r>    1.2668    1.0000 </r>
       <r>    1.3185    1.0000 </r>
       <r>    1.3760    1.0000 </r>
       <r>    1.4151    1.0000 </r>
       <r>    1.4341    1.0000 </r>
       <r>    1.4935    1.0000 </r>
       <r>    1.5090    1.0000 </r>
       <r>    1.5497    1.0000 </r>
       <r>    1.7871    1.0000 </r>
       <r>    1.8483    1.0000 </r>
       <r>    1.9976    1.0000 </r>
       <r>    2.1517    1.0000 </r>
       <r>    2.2531    1.0000 </r>
       <r>    2.3366    1.0000 </r>
       <r>    2.5596    1.0000 </r>
       <r>    2.7666    1.0000 </r>
       <r>    2.7772    1.0000 </r>
       <r>    3.3703    1.0000 </r>
       <r>    3.7677    1.0000 </r>
       <r>    4.0091    1.0052 </r>
       <r>    5.8487   -0.0000 </r>
       <r>    6.7641   -0.0000 </r>
       <r>    7.0847    0.0000 </r>
       <r>    8.4094    0.0000 </r>
       <r>    8.5555    0.0000 </r>
       <r>    8.7719    0.0000 </r>
       <r>    9.1377    0.0000 </r>
       <r>    9.2432    0.0000 </r>
       <r>    9.9566    0.0000 </r>
       <r>   10.2844    0.0000 </r>
       <r>   10.7255    0.0000 </r>
       <r>   10.8213    0.0000 </r>
       <r>   10.8738    0.0000 </r>
       <r>   11.2752    0.0000 </r>
       <r>   11.7597    0.0000 </r>
       <r>   11.9148    0.0000 </r>
       <r>   11.9709    0.0000 </r>
       <r>   12.3693    0.0000 </r>
       <r>   12.5417    0.0000 </r>
       <r>   13.4579    0.0000 </r>
       <r>   14.2828    0.0000 </r>
       <r>   14.6744    0.0000 </r>
       <r>   16.7471    0.0000 </r>
       <r>   16.7568    0.0000 </r>
      </set>
      <set comment="kpoint 11">
       <r>  -68.6454    1.0000 </r>
       <r>  -68.6449    1.0000 </r>
       <r>  -68.6331    1.0000 </r>
       <r>  -68.6323    1.0000 </r>
       <r>  -68.6128    1.0000 </r>
       <r>  -68.6122    1.0000 </r>
       <r>  -68.5955    1.0000 </r>
       <r>  -68.5953    1.0000 </r>
       <r>  -68.5770    1.0000 </r>
       <r>  -68.5765    1.0000 </r>
       <r>  -68.5596    1.0000 </r>
       <r>  -68.5597    1.0000 </r>
       <r>  -12.6248    1.0000 </r>
       <r>  -11.4289    1.0000 </r>
       <r>  -10.7805    1.0000 </r>
       <r>  -10.6094    1.0000 </r>
       <r>  -10.2466    1.0000 </r>
       <r>  -10.2246    1.0000 </r>
       <r>   -5.8410    1.0000 </r>
       <r>   -5.0469    1.0000 </r>
       <r>   -2.6035    1.0000 </r>
       <r>   -2.3762    1.0000 </r>
       <r>   -1.9602    1.0000 </r>
       <r>   -1.7749    1.0000 </r>
       <r>   -1.4447    1.0000 </r>
       <r>   -1.1257    1.0000 </r>
       <r>   -1.0652    1.0000 </r>
       <r>   -0.7704    1.0000 </r>
       <r>   -0.4698    1.0000 </r>
       <r>   -0.2919    1.0000 </r>
       <r>   -0.2380    1.0000 </r>
       <r>   -0.2349    1.0000 </r>
       <r>   -0.1921    1.0000 </r>
       <r>   -0.1475    1.0000 </r>
       <r>   -0.0143    1.0000 </r>
       <r>    0.0262    1.0000 </r>
       <r>    1.3339    1.0000 </r>
       <r>    1.3823    1.0000 </r>
       <r>    1.4171    1.0000 </r>
       <r>    1.4404    1.0000 </r>
       <r>    1.4661    1.0000 </r>
       <r>    1.4671    1.0000 </r>
       <r>    1.5152    1.0000 </r>
       <r>    1.5462    1.0000 </r>
       <r>    1.6327    1.0000 </r>
       <r>    1.7604    1.0000 </r>
       <r>    1.7875    1.0000 </r>
       <r>    1.9523    1.0000 </r>
       <r>    2.0881    1.0000 </r>
       <r>    2.6618    1.0000 </r>
       <r>    2.7217    1.0000 </r>
       <r>    3.1951    1.0000 </r>
       <r>    3.2539    1.0000 </r>
       <r>    3.5215    1.0000 </r>
       <r>    3.8949    1.0000 </r>
       <r>    3.9791    1.0016 </r>
       <r>    6.0436   -0.0000 </r>
       <r>    6.4153   -0.0000 </r>
       <r>    7.8158    0.0000 </r>
       <r>    7.9110    0.0000 </r>
       <r>    8.3617    0.0000 </r>
       <r>    8.8269    0.0000 </r>
       <r>    9.7673    0.0000 </r>
       <r>    9.7945    0.0000 </r>
       <r>   10.0618    0.0000 </r>
       <r>   10.5823    0.0000 </r>
       <r>   10.6463    0.0000 </r>
       <r>   10.8152    0.0000 </r>
       <r>   10.8519    0.0000 </r>
       <r>   11.4920    0.0000 </r>
       <r>   11.5586    0.0000 </r>
       <r>   12.0298    0.0000 </r>
       <r>   12.5771    0.0000 </r>
       <r>   12.7738    0.0000 </r>
       <r>   12.9128    0.0000 </r>
       <r>   13.2090    0.0000 </r>
       <r>   13.5323    0.0000 </r>
       <r>   13.8224    0.0000 </r>
       <r>   14.1961    0.0000 </r>
       <r>   14.7017    0.0000 </r>
      </set>
      <set comment="kpoint 12">
       <r>  -68.6453    1.0000 </r>
       <r>  -68.6449    1.0000 </r>
       <r>  -68.6331    1.0000 </r>
       <r>  -68.6323    1.0000 </r>
       <r>  -68.6129    1.0000 </r>
       <r>  -68.6122    1.0000 </r>
       <r>  -68.5955    1.0000 </r>
       <r>  -68.5952    1.0000 </r>
       <r>  -68.5770    1.0000 </r>
       <r>  -68.5765    1.0000 </r>
       <r>  -68.5595    1.0000 </r>
       <r>  -68.5597    1.0000 </r>
       <r>  -12.4673    1.0000 </r>
       <r>  -11.4711    1.0000 </r>
       <r>  -10.8614    1.0000 </r>
       <r>  -10.6895    1.0000 </r>
       <r>  -10.3668    1.0000 </r>
       <r>  -10.2393    1.0000 </r>
       <r>   -5.7773    1.0000 </r>
       <r>   -4.8051    1.0000 </r>
       <r>   -2.4494    1.0000 </r>
       <r>   -2.2359    1.0000 </r>
       <r>   -1.8501    1.0000 </r>
       <r>   -1.7149    1.0000 </r>
       <r>   -1.4261    1.0000 </r>
       <r>   -1.1856    1.0000 </r>
       <r>   -0.8901    1.0000 </r>
       <r>   -0.7475    1.0000 </r>
       <r>   -0.6027    1.0000 </r>
       <r>   -0.5247    1.0000 </r>
       <r>   -0.3099    1.0000 </r>
       <r>   -0.2431    1.0000 </r>
       <r>   -0.1763    1.0000 </r>
       <r>   -0.1204    1.0000 </r>
       <r>   -0.0522    1.0000 </r>
       <r>    0.0617    1.0000 </r>
       <r>    1.3029    1.0000 </r>
       <r>    1.3371    1.0000 </r>
       <r>    1.3706    1.0000 </r>
       <r>    1.4330    1.0000 </r>
       <r>    1.4470    1.0000 </r>
       <r>    1.4798    1.0000 </r>
       <r>    1.5223    1.0000 </r>
       <r>    1.5474    1.0000 </r>
       <r>    1.6444    1.0000 </r>
       <r>    1.8716    1.0000 </r>
       <r>    1.9766    1.0000 </r>
       <r>    2.0497    1.0000 </r>
       <r>    2.1965    1.0000 </r>
       <r>    2.4768    1.0000 </r>
       <r>    2.5960    1.0000 </r>
       <r>    2.8401    1.0000 </r>
       <r>    2.9633    1.0000 </r>
       <r>    3.1324    1.0000 </r>
       <r>    3.5702    1.0000 </r>
       <r>    3.7252    1.0000 </r>
       <r>    6.4378   -0.0000 </r>
       <r>    6.9566    0.0000 </r>
       <r>    8.1671    0.0000 </r>
       <r>    8.2436    0.0000 </r>
       <r>    8.8361    0.0000 </r>
       <r>    9.1329    0.0000 </r>
       <r>    9.4569    0.0000 </r>
       <r>    9.7972    0.0000 </r>
       <r>   10.0810    0.0000 </r>
       <r>   10.2955    0.0000 </r>
       <r>   10.7403    0.0000 </r>
       <r>   11.0803    0.0000 </r>
       <r>   11.2883    0.0000 </r>
       <r>   11.4261    0.0000 </r>
       <r>   11.6317    0.0000 </r>
       <r>   11.7222    0.0000 </r>
       <r>   12.0879    0.0000 </r>
       <r>   12.2692    0.0000 </r>
       <r>   12.5418    0.0000 </r>
       <r>   12.6636    0.0000 </r>
       <r>   12.9550    0.0000 </r>
       <r>   13.0610    0.0000 </r>
       <r>   13.6380    0.0000 </r>
       <r>   14.6884    0.0000 </r>
      </set>
      <set comment="kpoint 13">
       <r>  -68.6451    1.0000 </r>
       <r>  -68.6448    1.0000 </r>
       <r>  -68.6330    1.0000 </r>
       <r>  -68.6322    1.0000 </r>
       <r>  -68.6127    1.0000 </r>
       <r>  -68.6121    1.0000 </r>
       <r>  -68.5953    1.0000 </r>
       <r>  -68.5952    1.0000 </r>
       <r>  -68.5769    1.0000 </r>
       <r>  -68.5764    1.0000 </r>
       <r>  -68.5594    1.0000 </r>
       <r>  -68.5596    1.0000 </r>
       <r>  -12.3669    1.0000 </r>
       <r>  -11.4148    1.0000 </r>
       <r>  -10.9562    1.0000 </r>
       <r>  -10.6773    1.0000 </r>
       <r>  -10.4720    1.0000 </r>
       <r>  -10.3309    1.0000 </r>
       <r>   -5.7622    1.0000 </r>
       <r>   -4.7244    1.0000 </r>
       <r>   -2.5246    1.0000 </r>
       <r>   -2.1901    1.0000 </r>
       <r>   -1.9511    1.0000 </r>
       <r>   -1.5298    1.0000 </r>
       <r>   -1.2997    1.0000 </r>
       <r>   -1.0917    1.0000 </r>
       <r>   -0.8659    1.0000 </r>
       <r>   -0.7591    1.0000 </r>
       <r>   -0.5532    1.0000 </r>
       <r>   -0.4458    1.0000 </r>
       <r>   -0.2910    1.0000 </r>
       <r>   -0.1773    1.0000 </r>
       <r>   -0.1470    1.0000 </r>
       <r>   -0.1039    1.0000 </r>
       <r>   -0.0442    1.0000 </r>
       <r>    0.0227    1.0000 </r>
       <r>    1.2735    1.0000 </r>
       <r>    1.2986    1.0000 </r>
       <r>    1.3526    1.0000 </r>
       <r>    1.4299    1.0000 </r>
       <r>    1.4533    1.0000 </r>
       <r>    1.4810    1.0000 </r>
       <r>    1.5021    1.0000 </r>
       <r>    1.5898    1.0000 </r>
       <r>    1.7201    1.0000 </r>
       <r>    1.9330    1.0000 </r>
       <r>    2.0755    1.0000 </r>
       <r>    2.1465    1.0000 </r>
       <r>    2.2664    1.0000 </r>
       <r>    2.4013    1.0000 </r>
       <r>    2.5673    1.0000 </r>
       <r>    2.5965    1.0000 </r>
       <r>    2.8999    1.0000 </r>
       <r>    3.0121    1.0000 </r>
       <r>    3.3621    1.0000 </r>
       <r>    3.9007    1.0000 </r>
       <r>    6.3598   -0.0000 </r>
       <r>    6.8960   -0.0000 </r>
       <r>    7.5737    0.0000 </r>
       <r>    8.0965    0.0000 </r>
       <r>    8.5489    0.0000 </r>
       <r>    8.7960    0.0000 </r>
       <r>    9.2792    0.0000 </r>
       <r>    9.6213    0.0000 </r>
       <r>    9.9343    0.0000 </r>
       <r>   10.2658    0.0000 </r>
       <r>   10.6566    0.0000 </r>
       <r>   10.9249    0.0000 </r>
       <r>   10.9706    0.0000 </r>
       <r>   11.2798    0.0000 </r>
       <r>   11.5168    0.0000 </r>
       <r>   11.7882    0.0000 </r>
       <r>   12.2448    0.0000 </r>
       <r>   12.5442    0.0000 </r>
       <r>   13.1008    0.0000 </r>
       <r>   13.5185    0.0000 </r>
       <r>   14.2965    0.0000 </r>
       <r>   14.5714    0.0000 </r>
       <r>   15.1265    0.0000 </r>
       <r>   16.2688    0.0000 </r>
      </set>
      <set comment="kpoint 14">
       <r>  -68.6454    1.0000 </r>
       <r>  -68.6449    1.0000 </r>
       <r>  -68.6331    1.0000 </r>
       <r>  -68.6323    1.0000 </r>
       <r>  -68.6128    1.0000 </r>
       <r>  -68.6122    1.0000 </r>
       <r>  -68.5955    1.0000 </r>
       <r>  -68.5953    1.0000 </r>
       <r>  -68.5770    1.0000 </r>
       <r>  -68.5765    1.0000 </r>
       <r>  -68.5596    1.0000 </r>
       <r>  -68.5598    1.0000 </r>
       <r>  -12.5495    1.0000 </r>
       <r>  -11.3390    1.0000 </r>
       <r>  -10.8808    1.0000 </r>
       <r>  -10.6013    1.0000 </r>
       <r>  -10.3902    1.0000 </r>
       <r>  -10.2773    1.0000 </r>
       <r>   -5.8341    1.0000 </r>
       <r>   -4.9758    1.0000 </r>
       <r>   -2.6683    1.0000 </r>
       <r>   -2.4560    1.0000 </r>
       <r>   -2.0363    1.0000 </r>
       <r>   -1.5766    1.0000 </r>
       <r>   -1.1699    1.0000 </r>
       <r>   -0.9813    1.0000 </r>
       <r>   -0.7973    1.0000 </r>
       <r>   -0.6534    1.0000 </r>
       <r>   -0.5182    1.0000 </r>
       <r>   -0.3884    1.0000 </r>
       <r>   -0.2682    1.0000 </r>
       <r>   -0.2554    1.0000 </r>
       <r>   -0.1897    1.0000 </r>
       <r>   -0.1455    1.0000 </r>
       <r>   -0.0439    1.0000 </r>
       <r>    0.0159    1.0000 </r>
       <r>    1.2914    1.0000 </r>
       <r>    1.3114    1.0000 </r>
       <r>    1.3896    1.0000 </r>
       <r>    1.4097    1.0000 </r>
       <r>    1.4348    1.0000 </r>
       <r>    1.4566    1.0000 </r>
       <r>    1.4928    1.0000 </r>
       <r>    1.5657    1.0000 </r>
       <r>    1.6890    1.0000 </r>
       <r>    1.9157    1.0000 </r>
       <r>    1.9852    1.0000 </r>
       <r>    2.1445    1.0000 </r>
       <r>    2.3368    1.0000 </r>
       <r>    2.5674    1.0000 </r>
       <r>    2.6174    1.0000 </r>
       <r>    2.8305    1.0000 </r>
       <r>    2.9730    1.0000 </r>
       <r>    3.2497    1.0000 </r>
       <r>    3.6846    1.0000 </r>
       <r>    3.9453    1.0003 </r>
       <r>    6.1742   -0.0000 </r>
       <r>    6.6364   -0.0000 </r>
       <r>    7.7749    0.0000 </r>
       <r>    7.9721    0.0000 </r>
       <r>    8.2101    0.0000 </r>
       <r>    8.5629    0.0000 </r>
       <r>    9.3748    0.0000 </r>
       <r>    9.5788    0.0000 </r>
       <r>    9.9136    0.0000 </r>
       <r>   10.2463    0.0000 </r>
       <r>   10.5401    0.0000 </r>
       <r>   10.7876    0.0000 </r>
       <r>   10.8375    0.0000 </r>
       <r>   11.0668    0.0000 </r>
       <r>   11.5655    0.0000 </r>
       <r>   12.0222    0.0000 </r>
       <r>   12.5255    0.0000 </r>
       <r>   12.7527    0.0000 </r>
       <r>   12.9522    0.0000 </r>
       <r>   13.3080    0.0000 </r>
       <r>   13.4132    0.0000 </r>
       <r>   13.7410    0.0000 </r>
       <r>   13.8461    0.0000 </r>
       <r>   14.7267    0.0000 </r>
      </set>
      <set comment="kpoint 15">
       <r>  -68.6453    1.0000 </r>
       <r>  -68.6449    1.0000 </r>
       <r>  -68.6331    1.0000 </r>
       <r>  -68.6323    1.0000 </r>
       <r>  -68.6129    1.0000 </r>
       <r>  -68.6122    1.0000 </r>
       <r>  -68.5955    1.0000 </r>
       <r>  -68.5952    1.0000 </r>
       <r>  -68.5770    1.0000 </r>
       <r>  -68.5765    1.0000 </r>
       <r>  -68.5595    1.0000 </r>
       <r>  -68.5597    1.0000 </r>
       <r>  -12.4675    1.0000 </r>
       <r>  -11.4674    1.0000 </r>
       <r>  -10.8697    1.0000 </r>
       <r>  -10.6872    1.0000 </r>
       <r>  -10.3672    1.0000 </r>
       <r>  -10.2367    1.0000 </r>
       <r>   -5.7756    1.0000 </r>
       <r>   -4.8050    1.0000 </r>
       <r>   -2.4492    1.0000 </r>
       <r>   -2.2342    1.0000 </r>
       <r>   -1.8512    1.0000 </r>
       <r>   -1.7197    1.0000 </r>
       <r>   -1.4333    1.0000 </r>
       <r>   -1.1834    1.0000 </r>
       <r>   -0.8896    1.0000 </r>
       <r>   -0.7410    1.0000 </r>
       <r>   -0.6064    1.0000 </r>
       <r>   -0.5229    1.0000 </r>
       <r>   -0.3073    1.0000 </r>
       <r>   -0.2450    1.0000 </r>
       <r>   -0.1744    1.0000 </r>
       <r>   -0.1221    1.0000 </r>
       <r>   -0.0510    1.0000 </r>
       <r>    0.0602    1.0000 </r>
       <r>    1.3030    1.0000 </r>
       <r>    1.3368    1.0000 </r>
       <r>    1.3702    1.0000 </r>
       <r>    1.4325    1.0000 </r>
       <r>    1.4473    1.0000 </r>
       <r>    1.4800    1.0000 </r>
       <r>    1.5219    1.0000 </r>
       <r>    1.5484    1.0000 </r>
       <r>    1.6438    1.0000 </r>
       <r>    1.8720    1.0000 </r>
       <r>    1.9797    1.0000 </r>
       <r>    2.0471    1.0000 </r>
       <r>    2.1962    1.0000 </r>
       <r>    2.4763    1.0000 </r>
       <r>    2.5955    1.0000 </r>
       <r>    2.8393    1.0000 </r>
       <r>    2.9662    1.0000 </r>
       <r>    3.1350    1.0000 </r>
       <r>    3.5690    1.0000 </r>
       <r>    3.7266    1.0000 </r>
       <r>    6.4363   -0.0000 </r>
       <r>    6.9577    0.0000 </r>
       <r>    8.1695    0.0000 </r>
       <r>    8.2409    0.0000 </r>
       <r>    8.8292    0.0000 </r>
       <r>    9.1366    0.0000 </r>
       <r>    9.4686    0.0000 </r>
       <r>    9.7811    0.0000 </r>
       <r>   10.0859    0.0000 </r>
       <r>   10.2930    0.0000 </r>
       <r>   10.7415    0.0000 </r>
       <r>   11.0816    0.0000 </r>
       <r>   11.2890    0.0000 </r>
       <r>   11.4268    0.0000 </r>
       <r>   11.6326    0.0000 </r>
       <r>   11.7247    0.0000 </r>
       <r>   12.0854    0.0000 </r>
       <r>   12.2650    0.0000 </r>
       <r>   12.5438    0.0000 </r>
       <r>   12.6592    0.0000 </r>
       <r>   12.9538    0.0000 </r>
       <r>   13.0577    0.0000 </r>
       <r>   13.6592    0.0000 </r>
       <r>   14.6940    0.0000 </r>
      </set>
      <set comment="kpoint 16">
       <r>  -68.6453    1.0000 </r>
       <r>  -68.6448    1.0000 </r>
       <r>  -68.6330    1.0000 </r>
       <r>  -68.6321    1.0000 </r>
       <r>  -68.6127    1.0000 </r>
       <r>  -68.6120    1.0000 </r>
       <r>  -68.5953    1.0000 </r>
       <r>  -68.5951    1.0000 </r>
       <r>  -68.5769    1.0000 </r>
       <r>  -68.5763    1.0000 </r>
       <r>  -68.5595    1.0000 </r>
       <r>  -68.5595    1.0000 </r>
       <r>  -12.3377    1.0000 </r>
       <r>  -11.4762    1.0000 </r>
       <r>  -10.8640    1.0000 </r>
       <r>  -10.8543    1.0000 </r>
       <r>  -10.4009    1.0000 </r>
       <r>  -10.2812    1.0000 </r>
       <r>   -5.7575    1.0000 </r>
       <r>   -4.6926    1.0000 </r>
       <r>   -2.2455    1.0000 </r>
       <r>   -2.1427    1.0000 </r>
       <r>   -1.9329    1.0000 </r>
       <r>   -1.8493    1.0000 </r>
       <r>   -1.4500    1.0000 </r>
       <r>   -1.3908    1.0000 </r>
       <r>   -1.0355    1.0000 </r>
       <r>   -0.5190    1.0000 </r>
       <r>   -0.4630    1.0000 </r>
       <r>   -0.3510    1.0000 </r>
       <r>   -0.2470    1.0000 </r>
       <r>   -0.2159    1.0000 </r>
       <r>   -0.1613    1.0000 </r>
       <r>   -0.1126    1.0000 </r>
       <r>   -0.0871    1.0000 </r>
       <r>    0.0786    1.0000 </r>
       <r>    1.2628    1.0000 </r>
       <r>    1.3488    1.0000 </r>
       <r>    1.3984    1.0000 </r>
       <r>    1.4360    1.0000 </r>
       <r>    1.4539    1.0000 </r>
       <r>    1.5110    1.0000 </r>
       <r>    1.5361    1.0000 </r>
       <r>    1.5441    1.0000 </r>
       <r>    1.7542    1.0000 </r>
       <r>    1.8187    1.0000 </r>
       <r>    2.0410    1.0000 </r>
       <r>    2.1334    1.0000 </r>
       <r>    2.2863    1.0000 </r>
       <r>    2.3105    1.0000 </r>
       <r>    2.5216    1.0000 </r>
       <r>    2.7702    1.0000 </r>
       <r>    2.9004    1.0000 </r>
       <r>    3.2636    1.0000 </r>
       <r>    3.4977    1.0000 </r>
       <r>    3.8028    1.0000 </r>
       <r>    6.1794   -0.0000 </r>
       <r>    6.8412   -0.0000 </r>
       <r>    7.8302    0.0000 </r>
       <r>    8.0470    0.0000 </r>
       <r>    8.1838    0.0000 </r>
       <r>    8.7234    0.0000 </r>
       <r>    9.1499    0.0000 </r>
       <r>    9.3033    0.0000 </r>
       <r>   10.2188    0.0000 </r>
       <r>   10.4421    0.0000 </r>
       <r>   10.5908    0.0000 </r>
       <r>   11.0052    0.0000 </r>
       <r>   11.2423    0.0000 </r>
       <r>   11.4866    0.0000 </r>
       <r>   11.8108    0.0000 </r>
       <r>   12.1699    0.0000 </r>
       <r>   12.2090    0.0000 </r>
       <r>   12.5790    0.0000 </r>
       <r>   12.6946    0.0000 </r>
       <r>   13.1123    0.0000 </r>
       <r>   13.4163    0.0000 </r>
       <r>   13.8787    0.0000 </r>
       <r>   14.0071    0.0000 </r>
       <r>   14.5236    0.0000 </r>
      </set>
      <set comment="kpoint 17">
       <r>  -68.6450    1.0000 </r>
       <r>  -68.6448    1.0000 </r>
       <r>  -68.6330    1.0000 </r>
       <r>  -68.6323    1.0000 </r>
       <r>  -68.6126    1.0000 </r>
       <r>  -68.6122    1.0000 </r>
       <r>  -68.5954    1.0000 </r>
       <r>  -68.5952    1.0000 </r>
       <r>  -68.5769    1.0000 </r>
       <r>  -68.5764    1.0000 </r>
       <r>  -68.5594    1.0000 </r>
       <r>  -68.5595    1.0000 </r>
       <r>  -12.3842    1.0000 </r>
       <r>  -11.4698    1.0000 </r>
       <r>  -10.9485    1.0000 </r>
       <r>  -10.6466    1.0000 </r>
       <r>  -10.4099    1.0000 </r>
       <r>  -10.3006    1.0000 </r>
       <r>   -5.8098    1.0000 </r>
       <r>   -4.8370    1.0000 </r>
       <r>   -2.5308    1.0000 </r>
       <r>   -2.2489    1.0000 </r>
       <r>   -1.8704    1.0000 </r>
       <r>   -1.6411    1.0000 </r>
       <r>   -1.5079    1.0000 </r>
       <r>   -1.3034    1.0000 </r>
       <r>   -0.8969    1.0000 </r>
       <r>   -0.5356    1.0000 </r>
       <r>   -0.3786    1.0000 </r>
       <r>   -0.3477    1.0000 </r>
       <r>   -0.2240    1.0000 </r>
       <r>   -0.1783    1.0000 </r>
       <r>   -0.1616    1.0000 </r>
       <r>   -0.0766    1.0000 </r>
       <r>   -0.0244    1.0000 </r>
       <r>    0.0815    1.0000 </r>
       <r>    1.1907    1.0000 </r>
       <r>    1.3649    1.0000 </r>
       <r>    1.3982    1.0000 </r>
       <r>    1.4430    1.0000 </r>
       <r>    1.4644    1.0000 </r>
       <r>    1.5073    1.0000 </r>
       <r>    1.5198    1.0000 </r>
       <r>    1.5856    1.0000 </r>
       <r>    1.7410    1.0000 </r>
       <r>    1.8181    1.0000 </r>
       <r>    2.0385    1.0000 </r>
       <r>    2.2345    1.0000 </r>
       <r>    2.2679    1.0000 </r>
       <r>    2.3632    1.0000 </r>
       <r>    2.4879    1.0000 </r>
       <r>    2.6715    1.0000 </r>
       <r>    3.0540    1.0000 </r>
       <r>    3.4137    1.0000 </r>
       <r>    3.7311    1.0000 </r>
       <r>    3.8667    1.0000 </r>
       <r>    5.9273   -0.0000 </r>
       <r>    6.6115   -0.0000 </r>
       <r>    7.3585    0.0000 </r>
       <r>    7.9466    0.0000 </r>
       <r>    8.0634    0.0000 </r>
       <r>    8.7154    0.0000 </r>
       <r>    8.9049    0.0000 </r>
       <r>    9.1373    0.0000 </r>
       <r>    9.8456    0.0000 </r>
       <r>   10.3274    0.0000 </r>
       <r>   10.5541    0.0000 </r>
       <r>   10.9242    0.0000 </r>
       <r>   11.2220    0.0000 </r>
       <r>   11.4153    0.0000 </r>
       <r>   11.7542    0.0000 </r>
       <r>   12.0021    0.0000 </r>
       <r>   12.4966    0.0000 </r>
       <r>   12.8293    0.0000 </r>
       <r>   13.2064    0.0000 </r>
       <r>   14.1820    0.0000 </r>
       <r>   14.7144    0.0000 </r>
       <r>   15.0896    0.0000 </r>
       <r>   15.9181    0.0000 </r>
       <r>   16.5658    0.0000 </r>
      </set>
      <set comment="kpoint 18">
       <r>  -68.6453    1.0000 </r>
       <r>  -68.6449    1.0000 </r>
       <r>  -68.6331    1.0000 </r>
       <r>  -68.6323    1.0000 </r>
       <r>  -68.6128    1.0000 </r>
       <r>  -68.6121    1.0000 </r>
       <r>  -68.5955    1.0000 </r>
       <r>  -68.5953    1.0000 </r>
       <r>  -68.5769    1.0000 </r>
       <r>  -68.5765    1.0000 </r>
       <r>  -68.5595    1.0000 </r>
       <r>  -68.5597    1.0000 </r>
       <r>  -12.5086    1.0000 </r>
       <r>  -11.4225    1.0000 </r>
       <r>  -10.9590    1.0000 </r>
       <r>  -10.5778    1.0000 </r>
       <r>  -10.3684    1.0000 </r>
       <r>  -10.1993    1.0000 </r>
       <r>   -5.8369    1.0000 </r>
       <r>   -4.9409    1.0000 </r>
       <r>   -2.5760    1.0000 </r>
       <r>   -2.3693    1.0000 </r>
       <r>   -1.9179    1.0000 </r>
       <r>   -1.5945    1.0000 </r>
       <r>   -1.4196    1.0000 </r>
       <r>   -1.1191    1.0000 </r>
       <r>   -0.8135    1.0000 </r>
       <r>   -0.6713    1.0000 </r>
       <r>   -0.5375    1.0000 </r>
       <r>   -0.4692    1.0000 </r>
       <r>   -0.2529    1.0000 </r>
       <r>   -0.1948    1.0000 </r>
       <r>   -0.1670    1.0000 </r>
       <r>   -0.1193    1.0000 </r>
       <r>   -0.0333    1.0000 </r>
       <r>    0.0600    1.0000 </r>
       <r>    1.2815    1.0000 </r>
       <r>    1.3245    1.0000 </r>
       <r>    1.3455    1.0000 </r>
       <r>    1.4356    1.0000 </r>
       <r>    1.4524    1.0000 </r>
       <r>    1.4691    1.0000 </r>
       <r>    1.4938    1.0000 </r>
       <r>    1.5578    1.0000 </r>
       <r>    1.7276    1.0000 </r>
       <r>    1.8431    1.0000 </r>
       <r>    1.9714    1.0000 </r>
       <r>    2.0978    1.0000 </r>
       <r>    2.3383    1.0000 </r>
       <r>    2.4502    1.0000 </r>
       <r>    2.5412    1.0000 </r>
       <r>    2.8529    1.0000 </r>
       <r>    3.0540    1.0000 </r>
       <r>    3.2648    1.0000 </r>
       <r>    3.6753    1.0000 </r>
       <r>    3.7850    1.0000 </r>
       <r>    6.2566   -0.0000 </r>
       <r>    6.7977   -0.0000 </r>
       <r>    7.8195    0.0000 </r>
       <r>    8.1329    0.0000 </r>
       <r>    8.3286    0.0000 </r>
       <r>    8.9403    0.0000 </r>
       <r>    9.3292    0.0000 </r>
[...]
       <r>   11.7059    0.0000 </r>
       <r>   11.8949    0.0000 </r>
       <r>   12.3045    0.0000 </r>
       <r>   12.6575    0.0000 </r>
       <r>   13.0119    0.0000 </r>
       <r>   13.2288    0.0000 </r>
       <r>   13.6672    0.0000 </r>
       <r>   14.0729    0.0000 </r>
       <r>   14.3914    0.0000 </r>
       <r>   16.5131    0.0000 </r>
      </set>
      <set comment="kpoint 42">
       <r>  -68.6453    1.0000 </r>
       <r>  -68.6448    1.0000 </r>
       <r>  -68.6328    1.0000 </r>
       <r>  -68.6321    1.0000 </r>
       <r>  -68.6125    1.0000 </r>
       <r>  -68.6123    1.0000 </r>
       <r>  -68.5952    1.0000 </r>
       <r>  -68.5951    1.0000 </r>
       <r>  -68.5769    1.0000 </r>
       <r>  -68.5764    1.0000 </r>
       <r>  -68.5596    1.0000 </r>
       <r>  -68.5595    1.0000 </r>
       <r>  -12.1870    1.0000 </r>
       <r>  -11.7138    1.0000 </r>
       <r>  -10.7176    1.0000 </r>
       <r>  -10.6894    1.0000 </r>
       <r>  -10.5799    1.0000 </r>
       <r>  -10.3841    1.0000 </r>
       <r>   -5.4525    1.0000 </r>
       <r>   -5.0752    1.0000 </r>
       <r>   -2.5092    1.0000 </r>
       <r>   -2.3809    1.0000 </r>
       <r>   -1.9637    1.0000 </r>
       <r>   -1.3710    1.0000 </r>
       <r>   -1.3301    1.0000 </r>
       <r>   -1.0538    1.0000 </r>
       <r>   -0.8331    1.0000 </r>
       <r>   -0.7615    1.0000 </r>
       <r>   -0.4269    1.0000 </r>
       <r>   -0.3427    1.0000 </r>
       <r>   -0.2723    1.0000 </r>
       <r>   -0.2075    1.0000 </r>
       <r>   -0.1406    1.0000 </r>
       <r>   -0.1347    1.0000 </r>
       <r>   -0.0120    1.0000 </r>
       <r>    0.0277    1.0000 </r>
       <r>    1.1739    1.0000 </r>
       <r>    1.3722    1.0000 </r>
       <r>    1.3981    1.0000 </r>
       <r>    1.4540    1.0000 </r>
       <r>    1.4545    1.0000 </r>
       <r>    1.4996    1.0000 </r>
       <r>    1.5180    1.0000 </r>
       <r>    1.5499    1.0000 </r>
       <r>    1.7456    1.0000 </r>
       <r>    1.8213    1.0000 </r>
       <r>    1.9758    1.0000 </r>
       <r>    2.2272    1.0000 </r>
       <r>    2.3956    1.0000 </r>
       <r>    2.6122    1.0000 </r>
       <r>    2.6561    1.0000 </r>
       <r>    2.9170    1.0000 </r>
       <r>    3.0720    1.0000 </r>
       <r>    3.1182    1.0000 </r>
       <r>    3.2890    1.0000 </r>
       <r>    3.5851    1.0000 </r>
       <r>    6.2898   -0.0000 </r>
       <r>    6.3748   -0.0000 </r>
       <r>    7.3574    0.0000 </r>
       <r>    7.5282    0.0000 </r>
       <r>    8.3055    0.0000 </r>
       <r>    8.3330    0.0000 </r>
       <r>    9.1088    0.0000 </r>
       <r>    9.3604    0.0000 </r>
       <r>    9.7173    0.0000 </r>
       <r>    9.9426    0.0000 </r>
       <r>   10.5252    0.0000 </r>
       <r>   10.9863    0.0000 </r>
       <r>   11.4263    0.0000 </r>
       <r>   11.5615    0.0000 </r>
       <r>   12.0147    0.0000 </r>
       <r>   12.2857    0.0000 </r>
       <r>   12.4293    0.0000 </r>
       <r>   12.4794    0.0000 </r>
       <r>   13.0347    0.0000 </r>
       <r>   13.1465    0.0000 </r>
       <r>   14.1396    0.0000 </r>
       <r>   14.4320    0.0000 </r>
       <r>   15.1677    0.0000 </r>
       <r>   15.8663    0.0000 </r>
      </set>
     </set>
    </set>
   </array>
  </eigenvalues>
  <separator name="orbital magnetization" >
   <v name="MAGDIPOLOUT">      0.00000000      0.00000000      0.00000000</v>
  </separator>
  <dos>
   <i name="efermi">      4.22188634 </i>
   <total>
    <array>
     <dimension dim="1">gridpoints</dimension>
     <dimension dim="2">spin</dimension>
     <field>energy</field>
     <field>total</field>
     <field>integrated</field>
     <set>
      <set comment="spin 1">
       <r>   -72.8301     0.0000     0.0000 </r>
       <r>   -72.5238     0.0000     0.0000 </r>
       <r>   -72.2174     0.0000     0.0000 </r>
       <r>   -71.9110     0.0000     0.0000 </r>
       <r>   -71.6046     0.0000     0.0000 </r>
       <r>   -71.2982     0.0000     0.0000 </r>
       <r>   -70.9918     0.0000     0.0000 </r>
       <r>   -70.6855     0.0000     0.0000 </r>
       <r>   -70.3791     0.0000     0.0000 </r>
       <r>   -70.0727     0.0000     0.0000 </r>
       <r>   -69.7663     0.0000     0.0000 </r>
       <r>   -69.4599    -0.0000    -0.0000 </r>
       <r>   -69.1536    -0.0000    -0.0000 </r>
       <r>   -68.8472    -0.2118    -0.0649 </r>
       <r>   -68.5408    69.9389    21.3631 </r>
       <r>   -68.2344     8.6070    24.0001 </r>
       <r>   -67.9280    -0.0004    24.0000 </r>
       <r>   -67.6217     0.0000    24.0000 </r>
       <r>   -67.3153     0.0000    24.0000 </r>
       <r>   -67.0089     0.0000    24.0000 </r>
       <r>   -66.7025     0.0000    24.0000 </r>
       <r>   -66.3961     0.0000    24.0000 </r>
       <r>   -66.0898     0.0000    24.0000 </r>
       <r>   -65.7834     0.0000    24.0000 </r>
       <r>   -65.4770     0.0000    24.0000 </r>
       <r>   -65.1706     0.0000    24.0000 </r>
       <r>   -64.8642     0.0000    24.0000 </r>
       <r>   -64.5578     0.0000    24.0000 </r>
       <r>   -64.2515     0.0000    24.0000 </r>
       <r>   -63.9451     0.0000    24.0000 </r>
       <r>   -63.6387     0.0000    24.0000 </r>
       <r>   -63.3323     0.0000    24.0000 </r>
       <r>   -63.0259     0.0000    24.0000 </r>
       <r>   -62.7196     0.0000    24.0000 </r>
       <r>   -62.4132     0.0000    24.0000 </r>
       <r>   -62.1068     0.0000    24.0000 </r>
       <r>   -61.8004     0.0000    24.0000 </r>
       <r>   -61.4940     0.0000    24.0000 </r>
       <r>   -61.1877     0.0000    24.0000 </r>
       <r>   -60.8813     0.0000    24.0000 </r>
       <r>   -60.5749     0.0000    24.0000 </r>
       <r>   -60.2685     0.0000    24.0000 </r>
       <r>   -59.9621     0.0000    24.0000 </r>
       <r>   -59.6557     0.0000    24.0000 </r>
       <r>   -59.3494     0.0000    24.0000 </r>
       <r>   -59.0430     0.0000    24.0000 </r>
       <r>   -58.7366     0.0000    24.0000 </r>
       <r>   -58.4302     0.0000    24.0000 </r>
       <r>   -58.1238     0.0000    24.0000 </r>
       <r>   -57.8175     0.0000    24.0000 </r>
       <r>   -57.5111     0.0000    24.0000 </r>
       <r>   -57.2047     0.0000    24.0000 </r>
       <r>   -56.8983     0.0000    24.0000 </r>
       <r>   -56.5919     0.0000    24.0000 </r>
       <r>   -56.2856     0.0000    24.0000 </r>
       <r>   -55.9792     0.0000    24.0000 </r>
       <r>   -55.6728     0.0000    24.0000 </r>
       <r>   -55.3664     0.0000    24.0000 </r>
       <r>   -55.0600     0.0000    24.0000 </r>
       <r>   -54.7537     0.0000    24.0000 </r>
       <r>   -54.4473     0.0000    24.0000 </r>
       <r>   -54.1409     0.0000    24.0000 </r>
       <r>   -53.8345     0.0000    24.0000 </r>
       <r>   -53.5281     0.0000    24.0000 </r>
       <r>   -53.2217     0.0000    24.0000 </r>
       <r>   -52.9154     0.0000    24.0000 </r>
       <r>   -52.6090     0.0000    24.0000 </r>
       <r>   -52.3026     0.0000    24.0000 </r>
       <r>   -51.9962     0.0000    24.0000 </r>
       <r>   -51.6898     0.0000    24.0000 </r>
       <r>   -51.3835     0.0000    24.0000 </r>
       <r>   -51.0771     0.0000    24.0000 </r>
       <r>   -50.7707     0.0000    24.0000 </r>
       <r>   -50.4643     0.0000    24.0000 </r>
       <r>   -50.1579     0.0000    24.0000 </r>
       <r>   -49.8516     0.0000    24.0000 </r>
       <r>   -49.5452     0.0000    24.0000 </r>
       <r>   -49.2388     0.0000    24.0000 </r>
       <r>   -48.9324     0.0000    24.0000 </r>
       <r>   -48.6260     0.0000    24.0000 </r>
       <r>   -48.3197     0.0000    24.0000 </r>
       <r>   -48.0133     0.0000    24.0000 </r>
       <r>   -47.7069     0.0000    24.0000 </r>
       <r>   -47.4005     0.0000    24.0000 </r>
       <r>   -47.0941     0.0000    24.0000 </r>
       <r>   -46.7877     0.0000    24.0000 </r>
       <r>   -46.4814     0.0000    24.0000 </r>
       <r>   -46.1750     0.0000    24.0000 </r>
       <r>   -45.8686     0.0000    24.0000 </r>
       <r>   -45.5622     0.0000    24.0000 </r>
       <r>   -45.2558     0.0000    24.0000 </r>
       <r>   -44.9495     0.0000    24.0000 </r>
       <r>   -44.6431     0.0000    24.0000 </r>
       <r>   -44.3367     0.0000    24.0000 </r>
       <r>   -44.0303     0.0000    24.0000 </r>
       <r>   -43.7239     0.0000    24.0000 </r>
       <r>   -43.4176     0.0000    24.0000 </r>
       <r>   -43.1112     0.0000    24.0000 </r>
       <r>   -42.8048     0.0000    24.0000 </r>
       <r>   -42.4984     0.0000    24.0000 </r>
       <r>   -42.1920     0.0000    24.0000 </r>
       <r>   -41.8856     0.0000    24.0000 </r>
       <r>   -41.5793     0.0000    24.0000 </r>
       <r>   -41.2729     0.0000    24.0000 </r>
       <r>   -40.9665     0.0000    24.0000 </r>
       <r>   -40.6601     0.0000    24.0000 </r>
       <r>   -40.3537     0.0000    24.0000 </r>
       <r>   -40.0474     0.0000    24.0000 </r>
       <r>   -39.7410     0.0000    24.0000 </r>
       <r>   -39.4346     0.0000    24.0000 </r>
       <r>   -39.1282     0.0000    24.0000 </r>
       <r>   -38.8218     0.0000    24.0000 </r>
       <r>   -38.5155     0.0000    24.0000 </r>
       <r>   -38.2091     0.0000    24.0000 </r>
       <r>   -37.9027     0.0000    24.0000 </r>
       <r>   -37.5963     0.0000    24.0000 </r>
       <r>   -37.2899     0.0000    24.0000 </r>
       <r>   -36.9836     0.0000    24.0000 </r>
       <r>   -36.6772     0.0000    24.0000 </r>
       <r>   -36.3708     0.0000    24.0000 </r>
       <r>   -36.0644     0.0000    24.0000 </r>
       <r>   -35.7580     0.0000    24.0000 </r>
       <r>   -35.4516     0.0000    24.0000 </r>
       <r>   -35.1453     0.0000    24.0000 </r>
       <r>   -34.8389     0.0000    24.0000 </r>
       <r>   -34.5325     0.0000    24.0000 </r>
       <r>   -34.2261     0.0000    24.0000 </r>
       <r>   -33.9197     0.0000    24.0000 </r>
       <r>   -33.6134     0.0000    24.0000 </r>
       <r>   -33.3070     0.0000    24.0000 </r>
       <r>   -33.0006     0.0000    24.0000 </r>
       <r>   -32.6942     0.0000    24.0000 </r>
       <r>   -32.3878     0.0000    24.0000 </r>
       <r>   -32.0815     0.0000    24.0000 </r>
       <r>   -31.7751     0.0000    24.0000 </r>
       <r>   -31.4687     0.0000    24.0000 </r>
       <r>   -31.1623     0.0000    24.0000 </r>
       <r>   -30.8559     0.0000    24.0000 </r>
       <r>   -30.5496     0.0000    24.0000 </r>
       <r>   -30.2432     0.0000    24.0000 </r>
       <r>   -29.9368     0.0000    24.0000 </r>
       <r>   -29.6304     0.0000    24.0000 </r>
       <r>   -29.3240     0.0000    24.0000 </r>
       <r>   -29.0176     0.0000    24.0000 </r>
       <r>   -28.7113     0.0000    24.0000 </r>
       <r>   -28.4049     0.0000    24.0000 </r>
       <r>   -28.0985     0.0000    24.0000 </r>
       <r>   -27.7921     0.0000    24.0000 </r>
       <r>   -27.4857     0.0000    24.0000 </r>
       <r>   -27.1794     0.0000    24.0000 </r>
       <r>   -26.8730     0.0000    24.0000 </r>
       <r>   -26.5666     0.0000    24.0000 </r>
       <r>   -26.2602     0.0000    24.0000 </r>
       <r>   -25.9538     0.0000    24.0000 </r>
       <r>   -25.6475     0.0000    24.0000 </r>
       <r>   -25.3411     0.0000    24.0000 </r>
       <r>   -25.0347     0.0000    24.0000 </r>
       <r>   -24.7283     0.0000    24.0000 </r>
       <r>   -24.4219     0.0000    24.0000 </r>
       <r>   -24.1155     0.0000    24.0000 </r>
       <r>   -23.8092     0.0000    24.0000 </r>
       <r>   -23.5028     0.0000    24.0000 </r>
       <r>   -23.1964     0.0000    24.0000 </r>
       <r>   -22.8900     0.0000    24.0000 </r>
       <r>   -22.5836     0.0000    24.0000 </r>
       <r>   -22.2773     0.0000    24.0000 </r>
       <r>   -21.9709     0.0000    24.0000 </r>
       <r>   -21.6645     0.0000    24.0000 </r>
       <r>   -21.3581     0.0000    24.0000 </r>
       <r>   -21.0517     0.0000    24.0000 </r>
       <r>   -20.7454     0.0000    24.0000 </r>
       <r>   -20.4390     0.0000    24.0000 </r>
       <r>   -20.1326     0.0000    24.0000 </r>
       <r>   -19.8262     0.0000    24.0000 </r>
       <r>   -19.5198     0.0000    24.0000 </r>
       <r>   -19.2135     0.0000    24.0000 </r>
       <r>   -18.9071     0.0000    24.0000 </r>
       <r>   -18.6007     0.0000    24.0000 </r>
       <r>   -18.2943     0.0000    24.0000 </r>
       <r>   -17.9879     0.0000    24.0000 </r>
       <r>   -17.6815     0.0000    24.0000 </r>
       <r>   -17.3752     0.0000    24.0000 </r>
       <r>   -17.0688     0.0000    24.0000 </r>
       <r>   -16.7624     0.0000    24.0000 </r>
       <r>   -16.4560     0.0000    24.0000 </r>
       <r>   -16.1496     0.0000    24.0000 </r>
       <r>   -15.8433     0.0000    24.0000 </r>
       <r>   -15.5369     0.0000    24.0000 </r>
       <r>   -15.2305     0.0000    24.0000 </r>
       <r>   -14.9241     0.0000    24.0000 </r>
       <r>   -14.6177     0.0000    24.0000 </r>
       <r>   -14.3114     0.0000    24.0000 </r>
       <r>   -14.0050     0.0000    24.0000 </r>
       <r>   -13.6986    -0.0000    24.0000 </r>
       <r>   -13.3922    -0.0000    24.0000 </r>
       <r>   -13.0858    -0.0000    24.0000 </r>
       <r>   -12.7795    -0.0034    23.9990 </r>
       <r>   -12.4731     1.6628    24.5084 </r>
       <r>   -12.1667     3.5512    25.5964 </r>
       <r>   -11.8603     1.8545    26.1646 </r>
       <r>   -11.5539     2.0942    26.8062 </r>
       <r>   -11.2475     3.1759    27.7793 </r>
       <r>   -10.9412     2.7494    28.6216 </r>
       <r>   -10.6348     9.0565    31.3964 </r>
       <r>   -10.3284     9.1010    34.1848 </r>
       <r>   -10.0220     5.9481    36.0071 </r>
       <r>    -9.7156    -0.0233    36.0000 </r>
       <r>    -9.4093    -0.0000    36.0000 </r>
       <r>    -9.1029     0.0000    36.0000 </r>
       <r>    -8.7965     0.0000    36.0000 </r>
       <r>    -8.4901     0.0000    36.0000 </r>
       <r>    -8.1837     0.0000    36.0000 </r>
       <r>    -7.8774     0.0000    36.0000 </r>
       <r>    -7.5710     0.0000    36.0000 </r>
       <r>    -7.2646     0.0000    36.0000 </r>
       <r>    -6.9582    -0.0000    36.0000 </r>
       <r>    -6.6518    -0.0000    36.0000 </r>
       <r>    -6.3454    -0.0000    36.0000 </r>
       <r>    -6.0391     0.0886    36.0271 </r>
       <r>    -5.7327     3.5696    37.1208 </r>
       <r>    -5.4263     2.0484    37.7484 </r>
       <r>    -5.1199     1.8045    38.3013 </r>
       <r>    -4.8135     3.2621    39.3007 </r>
       <r>    -4.5072     2.2160    39.9797 </r>
       <r>    -4.2008     0.0664    40.0000 </r>
       <r>    -3.8944    -0.0000    40.0000 </r>
       <r>    -3.5880    -0.0000    40.0000 </r>
       <r>    -3.2816    -0.0000    40.0000 </r>
       <r>    -2.9753    -0.0005    39.9999 </r>
       <r>    -2.6689     0.3996    40.1223 </r>
       <r>    -2.3625     6.1836    42.0168 </r>
       <r>    -2.0561     6.6850    44.0650 </r>
       <r>    -1.7497     7.3296    46.3106 </r>
       <r>    -1.4434     6.3851    48.2669 </r>
       <r>    -1.1370     8.7241    50.9398 </r>
       <r>    -0.8306     9.0536    53.7137 </r>
       <r>    -0.5242    11.4599    57.2248 </r>
       <r>    -0.2178    18.0481    62.7544 </r>
       <r>     0.0886    29.0161    71.6444 </r>
       <r>     0.3949     1.1615    72.0002 </r>
       <r>     0.7013    -0.0007    72.0000 </r>
       <r>     1.0077    -0.0196    71.9940 </r>
       <r>     1.3141     7.3270    74.2388 </r>
       <r>     1.6205    44.9025    87.9961 </r>
       <r>     1.9268    13.7992    92.2239 </r>
       <r>     2.2332    13.1728    96.2598 </r>
       <r>     2.5396    12.8338   100.1918 </r>
       <r>     2.8460    11.1446   103.6063 </r>
       <r>     3.1524     9.1054   106.3961 </r>
       <r>     3.4587     7.9047   108.8179 </r>
       <r>     3.7651     6.9260   110.9399 </r>
       <r>     4.0715     3.2055   111.9220 </r>
       <r>     4.3779     0.2551   112.0002 </r>
       <r>     4.6843    -0.0006   112.0000 </r>
       <r>     4.9907    -0.0000   112.0000 </r>
       <r>     5.2970    -0.0002   112.0000 </r>
       <r>     5.6034     0.0779   112.0238 </r>
       <r>     5.9098     0.1837   112.0801 </r>
       <r>     6.2162     2.6682   112.8976 </r>
       <r>     6.5226     4.3722   114.2372 </r>
       <r>     6.8289     3.4013   115.2793 </r>
       <r>     7.1353     2.4179   116.0201 </r>
       <r>     7.4417     1.4369   116.4603 </r>
       <r>     7.7481     3.1776   117.4338 </r>
       <r>     8.0545     5.6164   119.1546 </r>
       <r>     8.3608     5.5485   120.8545 </r>
       <r>     8.6672     4.5456   122.2472 </r>
       <r>     8.9736     4.4383   123.6070 </r>
       <r>     9.2800     5.6769   125.3463 </r>
       <r>     9.5864     5.6780   127.0860 </r>
       <r>     9.8927     4.7761   128.5493 </r>
       <r>    10.1991     4.4641   129.9170 </r>
       <r>    10.5055     6.5063   131.9104 </r>
       <r>    10.8119     8.2707   134.4444 </r>
       <r>    11.1183     8.2409   136.9693 </r>
       <r>    11.4247     7.9570   139.4072 </r>
       <r>    11.7310     7.8990   141.8273 </r>
       <r>    12.0374     6.5891   143.8460 </r>
       <r>    12.3438     5.8629   145.6423 </r>
       <r>    12.6502     6.6301   147.6737 </r>
       <r>    12.9566     5.7896   149.4475 </r>
       <r>    13.2629     6.2252   151.3548 </r>
       <r>    13.5693     5.3380   152.9903 </r>
       <r>    13.8757     4.0607   154.2344 </r>
       <r>    14.1821     3.1537   155.2006 </r>
       <r>    14.4885     4.6255   156.6178 </r>
       <r>    14.7948     3.4561   157.6767 </r>
       <r>    15.1012     1.4987   158.1359 </r>
       <r>    15.4076     1.5278   158.6040 </r>
       <r>    15.7140     1.2137   158.9758 </r>
       <r>    16.0204     1.6828   159.4914 </r>
       <r>    16.3267     0.3307   159.5927 </r>
       <r>    16.6331     0.6893   159.8039 </r>
       <r>    16.9395     0.5195   159.9631 </r>
       <r>    17.2459     0.1206   160.0000 </r>
       <r>    17.5523    -0.0000   160.0000 </r>
       <r>    17.8587     0.0000   160.0000 </r>
       <r>    18.1650     0.0000   160.0000 </r>
       <r>    18.4714     0.0000   160.0000 </r>
       <r>    18.7778     0.0000   160.0000 </r>
       <r>    19.0842     0.0000   160.0000 </r>
      </set>
     </set>
    </array>
   </total>
  </dos>
 </calculation>
 <structure name="finalpos" >
  <crystal>
   <varray name="basis" >
    <v>       3.22479600      -5.64383000       0.03157200 </v>
    <v>       3.22479600       5.64383000       0.03157200 </v>
    <v>      -2.10194600       0.00000000       6.07553700 </v>
   </varray>
   <i name="volume">    221.90106089 </i>
   <varray name="rec_basis" >
    <v>       0.15452516      -0.08859232       0.05346088 </v>
    <v>       0.15452516       0.08859232       0.05346088 </v>
    <v>      -0.00160600       0.00000000       0.16403888 </v>
   </varray>
  </crystal>
  <varray name="positions" >
   <v>       0.61844300       0.12117100       0.11953300 </v>
   <v>       0.12117100       0.61844300       0.61953300 </v>
   <v>       0.96295700       0.79032200       0.11881300 </v>
   <v>       0.79032200       0.96295700       0.61881300 </v>
   <v>       0.43973200       0.26881940       0.59904700 </v>
   <v>       0.26728100       0.43973200       0.09904700 </v>
   <v>       0.07949800       0.91167500       0.49736300 </v>
   <v>       0.57140300       0.41236400       0.98018400 </v>
   <v>       0.73711100       0.25006200       0.49504900 </v>
   <v>       0.41236400       0.57140300       0.48018400 </v>
   <v>       0.91167500       0.07949800       0.99736300 </v>
   <v>       0.25006200       0.73711100       0.99504900 </v>
  </varray>
 </structure>
</modeling>
