   12   12    1    1
  0.1849176E+02  0.6500240E-09  0.6500240E-09  0.6428867E-09  0.5000000E-15
  1.000000000000000E-004
  CAR 
 CGS                                     
  112   42   80
 
  0.0000000E+00  0.0000000E+00  0.0000000E+00  0.1250000E-01
   1      -68.645989
   2      -68.645589
   3      -68.634935
   4      -68.633502
   5      -68.614711
   6      -68.614013
   7      -68.596829
   8      -68.596609
   9      -68.579211
  10      -68.578080
  11      -68.561969
  12      -68.561921
  13      -12.714620
  14      -11.133229
  15      -10.909967
  16      -10.601359
  17      -10.263014
  18      -10.239190
  19       -5.974441
  20       -4.985355
  21       -2.758110
  22       -2.202552
  23       -2.070743
  24       -1.923950
  25       -1.576443
  26       -0.985235
  27       -0.951511
  28       -0.685769
  29       -0.400805
  30       -0.275713
  31       -0.262543
  32       -0.235314
  33       -0.189184
  34       -0.154880
  35       -0.045131
  36        0.030667
  37        1.349395
  38        1.361973
  39        1.412707
  40        1.455880
  41        1.470353
  42        1.472627
  43        1.519045
  44        1.531715
  45        1.574056
  46        1.710872
  47        1.890857
  48        1.927518
  49        2.059636
  50        2.648411
  51        2.726378
  52        3.092056
  53        3.216646
  54        4.005501
  55        4.034765
  56        4.170311
  57        5.540724
  58        6.359556
  59        7.626754
  60        7.991276
  61        8.615794
  62        8.788303
  63        9.579448
  64        9.740304
  65        9.827048
  66       10.417381
  67       10.578922
  68       10.699819
  69       10.717162
  70       11.281881
  71       11.709027
  72       12.390878
  73       12.452524
  74       12.728945
  75       13.317748
  76       13.383884
  77       13.836496
  78       13.882597
  79       14.143899
  80       14.182189
 
  0.2500000E+00  0.7372575E-17  0.1387779E-16  0.2500000E-01
   1      -68.645968
   2      -68.645539
   3      -68.634910
   4      -68.633464
   5      -68.614592
   6      -68.613915
   7      -68.596841
   8      -68.596628
   9      -68.579141
  10      -68.578029
  11      -68.561894
  12      -68.561924
  13      -12.588418
  14      -11.133259
  15      -10.972983
  16      -10.679931
  17      -10.372151
  18      -10.284016
  19       -5.922631
  20       -4.773792
  21       -2.641545
  22       -2.247816
  23       -2.087638
  24       -1.689789
  25       -1.349324
  26       -1.002844
  27       -0.768905
  28       -0.622094
  29       -0.550774
  30       -0.438734
  31       -0.366149
  32       -0.239601
  33       -0.191980
  34       -0.169316
  35       -0.048743
  36        0.038855
  37        1.278219
  38        1.334506
  39        1.353516
  40        1.390928
  41        1.426212
  42        1.471087
  43        1.497234
  44        1.528834
  45        1.724526
  46        1.857766
  47        2.057010
  48        2.095966
  49        2.229558
  50        2.411968
  51        2.554095
  52        2.825639
  53        2.948123
  54        3.240632
  55        3.661449
  56        4.038609
  57        6.175026
  58        6.907060
  59        8.127548
  60        8.273641
  61        8.600424
  62        9.006114
  63        9.244367
  64        9.534505
  65        9.873809
  66       10.381246
  67       10.635237
  68       10.816377
  69       10.934830
  70       11.190142
  71       11.658131
  72       11.770684
  73       12.113800
  74       12.442170
  75       12.617657
  76       13.006605
  77       13.504104
  78       13.873629
  79       14.215921
  80       14.708994
 
  0.5000000E+00  0.1474515E-16  0.2775558E-16  0.1250000E-01
   1      -68.645794
   2      -68.645429
   3      -68.634840
   4      -68.633376
   5      -68.614578
   6      -68.613860
   7      -68.596762
   8      -68.596556
   9      -68.579090
  10      -68.578017
  11      -68.561930
  12      -68.561600
  13      -12.426804
  14      -11.254765
  15      -10.946196
  16      -10.775435
  17      -10.428177
  18      -10.365423
  19       -5.860017
  20       -4.547287
  21       -2.487532
  22       -2.242742
  23       -1.945526
  24       -1.472354
  25       -1.230036
  26       -1.106358
  27       -0.899497
  28       -0.867915
  29       -0.597394
  30       -0.535143
  31       -0.275640
  32       -0.205802
  33       -0.200434
  34       -0.145305
  35       -0.030697
  36        0.081601
  37        1.253038
  38        1.326317
  39        1.345972
  40        1.396374
  41        1.470268
  42        1.477892
  43        1.499333
  44        1.550890
  45        1.751943
  46        1.789706
  47        1.968218
  48        2.146865
  49        2.323266
  50        2.364694
  51        2.553786
  52        2.667636
  53        2.936637
  54        3.080128
  55        3.247319
  56        3.860458
  57        6.390823
  58        7.097790
  59        7.983938
  60        8.183514
  61        8.519484
  62        8.828138
  63        9.332669
  64        9.883942
  65       10.020476
  66       10.521692
  67       10.701506
  68       10.800838
  69       11.135132
  70       11.409742
  71       11.609037
  72       11.772990
  73       11.944776
  74       12.503170
  75       12.783046
  76       12.999594
  77       13.392691
  78       13.537636
  79       13.939548
  80       14.262874
 
  0.7372575E-17  0.2500000E+00  0.1387779E-16  0.2500000E-01
   1      -68.645946
   2      -68.645562
   3      -68.634895
   4      -68.633479
   5      -68.614588
   6      -68.613919
   7      -68.596866
   8      -68.596603
   9      -68.579155
  10      -68.578012
  11      -68.561891
  12      -68.561931
  13      -12.588492
  14      -11.139212
  15      -10.966809
  16      -10.676240
  17      -10.374661
  18      -10.285208
  19       -5.922877
  20       -4.775220
  21       -2.643292
  22       -2.249014
  23       -2.085977
  24       -1.686577
  25       -1.345030
  26       -1.001112
  27       -0.769158
  28       -0.624123
  29       -0.555382
  30       -0.437187
  31       -0.360329
  32       -0.242032
  33       -0.194405
  34       -0.170406
  35       -0.049169
  36        0.040654
  37        1.278279
  38        1.335060
  39        1.353511
  40        1.391288
  41        1.426299
  42        1.470801
  43        1.496668
  44        1.530028
  45        1.724485
  46        1.857038
  47        2.056792
  48        2.093278
  49        2.231495
  50        2.412545
  51        2.555461
  52        2.823086
  53        2.945688
  54        3.241041
  55        3.660261
  56        4.037033
  57        6.175622
  58        6.906697
  59        8.139834
  60        8.267919
  61        8.590803
  62        9.013785
  63        9.246322
  64        9.541821
  65        9.864345
  66       10.379004
  67       10.637273
  68       10.812367
  69       10.936748
  70       11.192234
  71       11.656483
  72       11.769457
  73       12.116481
  74       12.441218
  75       12.617029
  76       13.007648
  77       13.518857
  78       13.900285
  79       14.274701
  80       14.833349
 
  0.2500000E+00  0.2500000E+00  0.0000000E+00  0.2500000E-01
   1      -68.645964
   2      -68.645567
   3      -68.634804
   4      -68.633356
   5      -68.614728
   6      -68.614046
   7      -68.596756
   8      -68.596493
   9      -68.579273
  10      -68.578144
  11      -68.561957
  12      -68.561899
  13      -12.430820
  14      -11.199753
  15      -10.931399
  16      -10.881254
  17      -10.398740
  18      -10.355682
  19       -5.865525
  20       -4.522313
  21       -2.413088
  22       -2.242530
  23       -1.792475
  24       -1.679300
  25       -1.359970
  26       -1.302614
  27       -1.082729
  28       -0.686289
  29       -0.523772
  30       -0.296597
  31       -0.281724
  32       -0.224161
  33       -0.190265
  34       -0.124498
  35       -0.095208
  36        0.082430
  37        1.292336
  38        1.309961
  39        1.414489
  40        1.425184
  41        1.462459
  42        1.481399
  43        1.494032
  44        1.569117
  45        1.670794
  46        1.880484
  47        1.939331
  48        2.134437
  49        2.279291
  50        2.319965
  51        2.559605
  52        2.648998
  53        2.901196
  54        2.943168
  55        3.696457
  56        3.829823
  57        6.176786
  58        6.989216
  59        8.010476
  60        8.317712
  61        8.444735
  62        8.566886
  63        9.149351
  64        9.252722
  65       10.366158
  66       10.502040
  67       10.919554
  68       11.184837
  69       11.328577
  70       11.556898
  71       11.809987
  72       11.961287
  73       12.313075
  74       12.506599
  75       12.709145
  76       12.912138
  77       13.337279
  78       13.444396
  79       14.256342
  80       14.364620
 
  0.5000000E+00  0.2500000E+00 -0.2775558E-16  0.2500000E-01
   1      -68.645719
   2      -68.645365
   3      -68.634846
   4      -68.633467
   5      -68.614476
   6      -68.613850
   7      -68.596577
   8      -68.596774
   9      -68.578913
  10      -68.578103
  11      -68.561629
  12      -68.561931
  13      -12.430930
  14      -11.362019
  15      -10.925524
  16      -10.744840
  17      -10.394540
  18      -10.277822
  19       -5.937482
  20       -4.643739
  21       -2.386699
  22       -2.223775
  23       -2.051767
  24       -1.644625
  25       -1.366450
  26       -1.281614
  27       -1.027255
  28       -0.513341
  29       -0.483420
  30       -0.329846
  31       -0.283877
  32       -0.215581
  33       -0.150008
  34       -0.134333
  35       -0.011607
  36        0.112336
  37        1.245502
  38        1.314104
  39        1.381695
  40        1.436190
  41        1.460850
  42        1.490876
  43        1.495749
  44        1.548804
  45        1.747989
  46        1.826877
  47        1.921437
  48        2.133213
  49        2.221913
  50        2.384965
  51        2.561262
  52        2.789440
  53        2.977198
  54        3.310144
  55        3.600866
  56        3.746525
  57        6.092584
  58        6.940077
  59        7.609245
  60        8.075341
  61        8.406600
  62        8.611155
  63        8.988012
  64        9.158293
  65       10.088241
  66       10.336504
  67       10.736698
  68       11.112652
  69       11.460442
  70       11.595140
  71       11.796824
  72       12.088301
  73       12.475178
  74       12.919360
  75       13.031397
  76       13.824586
  77       14.195672
  78       14.655104
  79       15.428459
  80       15.643064
 
 -0.2500000E+00  0.2500000E+00  0.0000000E+00  0.2500000E-01
   1      -68.645958
   2      -68.645552
   3      -68.634877
   4      -68.633442
   5      -68.614524
   6      -68.613848
   7      -68.596833
   8      -68.596605
   9      -68.579099
  10      -68.577967
  11      -68.561862
  12      -68.561960
  13      -12.591336
  14      -11.260381
  15      -10.978166
  16      -10.572169
  17      -10.373396
  18      -10.187586
  19       -6.000031
  20       -4.897118
  21       -2.644839
  22       -2.311315
  23       -1.964778
  24       -1.650090
  25       -1.492260
  26       -1.186479
  27       -0.792873
  28       -0.587240
  29       -0.445203
  30       -0.333116
  31       -0.295676
  32       -0.232353
  33       -0.174520
  34       -0.131361
  35       -0.010389
  36        0.068316
  37        1.258085
  38        1.319882
  39        1.364187
  40        1.422263
  41        1.429702
  42        1.474613
  43        1.502672
  44        1.542354
  45        1.724258
  46        1.812192
  47        1.994261
  48        2.071472
  49        2.416353
  50        2.462457
  51        2.527356
  52        2.871277
  53        3.141700
  54        3.226576
  55        3.780322
  56        4.067210
  57        5.983691
  58        6.691168
  59        7.530850
  60        8.226772
  61        8.617369
  62        8.904873
  63        9.314413
  64        9.438306
  65        9.807731
  66       10.275331
  67       10.542701
  68       10.831980
  69       10.975715
  70       11.379842
  71       11.469317
  72       11.733756
  73       12.100383
  74       12.663338
  75       12.943456
  76       13.103323
  77       13.350080
  78       13.518994
  79       14.473786
  80       14.755134
 
  0.1474515E-16  0.5000000E+00  0.2775558E-16  0.1250000E-01
   1      -68.645820
   2      -68.645395
   3      -68.634819
   4      -68.633398
   5      -68.614527
   6      -68.613914
   7      -68.596738
   8      -68.596580
   9      -68.579139
  10      -68.577956
  11      -68.561681
  12      -68.561866
  13      -12.426923
  14      -11.261645
  15      -10.941838
  16      -10.763286
  17      -10.437828
  18      -10.364985
  19       -5.860786
  20       -4.550602
  21       -2.489821
  22       -2.243704
  23       -1.943888
  24       -1.463130
  25       -1.226017
  26       -1.095891
  27       -0.904405
  28       -0.866874
  29       -0.601916
  30       -0.539397
  31       -0.273686
  32       -0.206456
  33       -0.203656
  34       -0.144989
  35       -0.030588
  36        0.083551
  37        1.253331
  38        1.326776
  39        1.346289
  40        1.396214
  41        1.469861
  42        1.477557
  43        1.498712
  44        1.552747
  45        1.752713
  46        1.790669
  47        1.967573
  48        2.144717
  49        2.320100
  50        2.361711
  51        2.550698
  52        2.668094
  53        2.936276
  54        3.077545
  55        3.247555
  56        3.858076
  57        6.391566
  58        7.097093
  59        7.984097
  60        8.211112
  61        8.515037
  62        8.826192
  63        9.329895
  64        9.894230
  65       10.009062
  66       10.517483
  67       10.693581
  68       10.792483
  69       11.142168
  70       11.407902
  71       11.608946
  72       11.770041
  73       11.942503
  74       12.504470
  75       12.820328
  76       13.028641
  77       13.552306
  78       13.686947
  79       14.550352
  80       15.251973
 
  0.2500000E+00  0.5000000E+00 -0.2775558E-16  0.2500000E-01
   1      -68.645745
   2      -68.645346
   3      -68.634773
   4      -68.633499
   5      -68.614388
   6      -68.613958
   7      -68.596650
   8      -68.596720
   9      -68.578945
  10      -68.578060
  11      -68.561745
  12      -68.561819
  13      -12.431026
  14      -11.363593
  15      -10.924932
  16      -10.741032
  17      -10.394727
  18      -10.280231
  19       -5.937784
  20       -4.645024
  21       -2.389352
  22       -2.223341
  23       -2.055915
  24       -1.637041
  25       -1.361960
  26       -1.280371
  27       -1.025496
  28       -0.510529
  29       -0.488078
  30       -0.332720
  31       -0.282953
  32       -0.213732
  33       -0.153928
  34       -0.135002
  35       -0.009797
  36        0.112783
  37        1.245388
  38        1.314383
  39        1.381698
  40        1.436125
  41        1.460844
  42        1.491097
  43        1.495911
  44        1.549240
  45        1.747679
  46        1.827199
  47        1.921185
  48        2.132772
  49        2.221237
  50        2.383753
  51        2.559267
  52        2.786934
  53        2.978006
  54        3.310447
  55        3.601517
  56        3.745006
  57        6.093000
  58        6.940063
  59        7.612564
  60        8.075915
  61        8.406419
  62        8.610651
  63        8.988226
  64        9.157753
  65       10.089479
  66       10.336584
  67       10.734343
  68       11.109496
  69       11.458008
  70       11.576002
  71       11.787878
  72       12.033775
  73       12.525708
  74       12.684440
  75       12.919204
  76       13.206477
  77       14.226923
  78       14.769116
  79       15.252079
  80       15.912720
 
  0.5000000E+00  0.5000000E+00  0.0000000E+00  0.1250000E-01
   1      -68.645644
   2      -68.645103
   3      -68.634620
   4      -68.633303
   5      -68.614275
   6      -68.613847
   7      -68.596598
   8      -68.596371
   9      -68.578983
  10      -68.577841
  11      -68.561315
  12      -68.561844
  13      -12.422316
  14      -11.510654
  15      -10.899885
  16      -10.622448
  17      -10.404216
  18      -10.206717
  19       -6.016499
  20       -4.813628
  21       -2.308567
  22       -2.260747
  23       -2.090886
  24       -1.700374
  25       -1.245692
  26       -1.110920
  27       -0.844413
  28       -0.782841
  29       -0.730272
  30       -0.245903
  31       -0.198222
  32       -0.180198
  33       -0.151708
  34       -0.040743
  35       -0.003088
  36        0.182885
  37        1.265079
  38        1.317021
  39        1.374618
  40        1.412518
  41        1.432305
  42        1.491169
  43        1.507413
  44        1.549267
  45        1.787009
  46        1.846487
  47        1.994160
  48        2.149533
  49        2.251726
  50        2.336937
  51        2.559673
  52        2.758104
  53        2.772781
  54        3.367729
  55        3.761037
  56        4.004272
  57        5.859500
  58        6.768061
  59        7.081907
  60        8.413536
  61        8.566166
  62        8.768551
  63        9.146551
  64        9.239771
  65        9.961716
  66       10.285393
  67       10.726932
  68       10.829932
  69       10.879131
  70       11.274299
  71       11.751673
  72       11.914502
  73       11.975739
  74       12.364226
  75       12.538712
  76       13.452962
  77       14.284050
  78       14.673380
  79       16.742940
  80       16.755855
 
 -0.2168404E-18 -0.2168404E-18  0.2000000E+00  0.2500000E-01
   1      -68.646001
   2      -68.645579
   3      -68.634904
   4      -68.633472
   5      -68.614623
   6      -68.613938
   7      -68.596871
   8      -68.596615
   9      -68.579183
  10      -68.578054
  11      -68.561971
  12      -68.561921
  13      -12.611575
  14      -11.423301
  15      -10.776581
  16      -10.606698
  17      -10.262429
  18      -10.240581
  19       -5.821819
  20       -5.047329
  21       -2.597714
  22       -2.368024
  23       -1.963504
  24       -1.775457
  25       -1.444047
  26       -1.125782
  27       -1.064583
  28       -0.772873
  29       -0.471021
  30       -0.293752
  31       -0.238835
  32       -0.234126
  33       -0.190928
  34       -0.145855
  35       -0.021540
  36        0.022577
  37        1.332399
  38        1.380850
  39        1.415140
  40        1.438329
  41        1.463809
  42        1.465258
  43        1.513627
  44        1.545138
  45        1.632475
  46        1.756990
  47        1.786403
  48        1.949106
  49        2.088663
  50        2.657548
  51        2.716579
  52        3.196095
  53        3.251667
  54        3.518488
  55        3.894094
  56        3.974007
  57        6.048016
  58        6.417645
  59        7.831970
  60        7.905261
  61        8.368741
  62        8.811325
  63        9.777032
  64        9.802088
  65       10.063245
  66       10.588384
  67       10.644412
  68       10.813222
  69       10.859513
  70       11.495530
  71       11.556738
  72       12.023412
  73       12.581764
  74       12.777667
  75       12.911981
  76       13.200914
  77       13.537124
  78       13.821697
  79       14.197760
  80       14.707325
 
  0.2500000E+00  0.1517883E-17  0.2000000E+00  0.2500000E-01
   1      -68.645935
   2      -68.645521
   3      -68.634889
   4      -68.633457
   5      -68.614655
   6      -68.613994
   7      -68.596851
   8      -68.596546
   9      -68.579198
  10      -68.578058
  11      -68.561796
  12      -68.561972
  13      -12.451029
  14      -11.463687
  15      -10.867581
  16      -10.688332
  17      -10.380756
  18      -10.250575
  19       -5.756506
  20       -4.803593
  21       -2.441289
  22       -2.230208
  23       -1.850965
  24       -1.711981
  25       -1.440814
  26       -1.191205
  27       -0.889979
  28       -0.743930
  29       -0.609184
  30       -0.521272
  31       -0.311799
  32       -0.244492
  33       -0.170419
  34       -0.124480
  35       -0.054045
  36        0.060817
  37        1.301111
  38        1.335037
  39        1.368143
  40        1.430184
  41        1.445351
  42        1.478510
  43        1.519791
  44        1.546244
  45        1.641949
  46        1.870523
  47        1.980742
  48        2.046200
  49        2.193235
  50        2.474135
  51        2.594033
  52        2.837346
  53        2.963553
  54        3.133519
  55        3.565025
  56        3.723855
  57        6.445302
  58        6.957824
  59        8.172621
  60        8.250627
  61        8.831027
  62        9.124222
  63        9.473161
  64        9.795377
  65       10.088033
  66       10.302936
  67       10.740333
  68       11.076057
  69       11.292007
  70       11.422355
  71       11.633407
  72       11.726377
  73       12.083773
  74       12.263760
  75       12.542068
  76       12.653426
  77       12.954294
  78       13.059840
  79       13.641369
  80       14.693485
 
  0.5000000E+00  0.9107298E-17  0.2000000E+00  0.2500000E-01
   1      -68.645711
   2      -68.645396
   3      -68.634767
   4      -68.633421
   5      -68.614508
   6      -68.613855
   7      -68.596670
   8      -68.596560
   9      -68.578989
  10      -68.578071
  11      -68.561667
  12      -68.561956
  13      -12.346783
  14      -11.413352
  15      -10.950952
  16      -10.690664
  17      -10.484726
  18      -10.337643
  19       -5.742085
  20       -4.720242
  21       -2.520772
  22       -2.180319
  23       -1.954588
  24       -1.539971
  25       -1.302682
  26       -1.103390
  27       -0.874061
  28       -0.754025
  29       -0.545586
  30       -0.445189
  31       -0.289054
  32       -0.182683
  33       -0.142882
  34       -0.108398
  35       -0.045059
  36        0.023066
  37        1.271102
  38        1.296851
  39        1.350441
  40        1.428629
  41        1.451575
  42        1.479477
  43        1.500406
  44        1.586044
  45        1.718565
  46        1.930561
  47        2.077251
  48        2.145545
  49        2.268092
  50        2.405500
  51        2.569493
  52        2.598480
  53        2.897429
  54        3.006623
  55        3.355763
  56        3.898034
  57        6.370650
  58        6.898229
  59        7.574221
  60        8.071259
  61        8.547659
  62        8.799668
  63        9.279157
  64        9.636015
  65        9.927450
  66       10.284875
  67       10.660764
  68       10.931789
  69       10.973448
  70       11.280897
  71       11.522518
  72       11.787016
  73       12.250438
  74       12.547440
  75       13.097157
  76       13.514574
  77       14.301775
  78       14.613999
  79       15.126820
  80       16.268174
 
 -0.2500000E+00 -0.4098284E-16  0.2000000E+00  0.2500000E-01
   1      -68.645982
   2      -68.645586
   3      -68.634880
   4      -68.633448
   5      -68.614633
   6      -68.613941
   7      -68.596867
   8      -68.596591
   9      -68.579193
  10      -68.578079
  11      -68.561973
  12      -68.561906
  13      -12.534249
  14      -11.337151
  15      -10.866458
  16      -10.610766
  17      -10.407704
  18      -10.287648
  19       -5.815887
  20       -4.974153
  21       -2.662669
  22       -2.450638
  23       -2.040455
  24       -1.577230
  25       -1.172230
  26       -0.985743
  27       -0.790743
  28       -0.657753
  29       -0.514202
  30       -0.390850
  31       -0.270572
  32       -0.252482
  33       -0.193016
  34       -0.143041
  35       -0.049110
  36        0.012318
  37        1.288536
  38        1.310086
  39        1.388324
  40        1.407607
  41        1.433247
  42        1.454638
  43        1.491325
  44        1.564224
  45        1.686251
  46        1.915684
  47        1.987598
  48        2.146104
  49        2.332458
  50        2.562452
  51        2.616238
  52        2.828022
  53        2.972940
  54        3.247037
  55        3.681459
  56        3.942620
  57        6.183540
  58        6.639749
  59        7.757181
  60        7.974338
  61        8.219274
  62        8.562549
  63        9.383852
  64        9.576016
  65        9.901726
  66       10.255353
  67       10.548012
  68       10.788004
  69       10.845595
  70       11.070794
  71       11.566227
  72       12.021051
  73       12.530956
  74       12.751626
  75       12.954095
  76       13.308795
  77       13.411521
  78       13.739979
  79       13.848986
  80       14.724816
 
  0.1517883E-17  0.2500000E+00  0.2000000E+00  0.2500000E-01
   1      -68.645932
   2      -68.645523
   3      -68.634889
   4      -68.633458
   5      -68.614664
   6      -68.613985
   7      -68.596846
   8      -68.596551
   9      -68.579189
  10      -68.578070
  11      -68.561905
  12      -68.561861
  13      -12.450767
  14      -11.467580
  15      -10.858414
  16      -10.691338
  17      -10.380562
  18      -10.253047
  19       -5.758227
  20       -4.803719
  21       -2.441446
  22       -2.232039
  23       -1.849993
  24       -1.707065
  25       -1.433391
  26       -1.193513
  27       -0.890485
  28       -0.750540
  29       -0.605471
  30       -0.523166
  31       -0.314273
  32       -0.242569
  33       -0.172312
  34       -0.122539
  35       -0.055523
  36        0.062250
  37        1.300979
  38        1.335472
  39        1.368572
  40        1.430431
  41        1.444994
  42        1.478189
  43        1.520206
  44        1.545145
  45        1.642704
  46        1.870304
  47        1.977489
  48        2.048843
  49        2.193572
  50        2.474626
  51        2.594452
  52        2.838186
  53        2.960832
  54        3.130858
  55        3.566129
  56        3.722526
  57        6.446766
  58        6.956769
  59        8.170862
  60        8.252708
  61        8.837704
  62        9.120447
  63        9.462006
  64        9.811389
  65       10.083428
  66       10.304971
  67       10.739005
  68       11.074709
  69       11.291371
  70       11.421322
  71       11.632688
  72       11.723608
  73       12.086111
  74       12.267695
  75       12.539952
  76       12.656530
  77       12.954658
  78       13.058753
  79       13.653245
  80       14.698102
 
  0.2500000E+00  0.2500000E+00  0.2000000E+00  0.2500000E-01
   1      -68.645837
   2      -68.645436
   3      -68.634748
   4      -68.633298
   5      -68.614500
   6      -68.613825
   7      -68.596698
   8      -68.596458
   9      -68.579070
  10      -68.577927
  11      -68.561876
  12      -68.561712
  13      -12.317046
  14      -11.475528
  15      -10.869562
  16      -10.852700
  17      -10.412832
  18      -10.292528
  19       -5.738825
  20       -4.691035
  21       -2.238635
  22       -2.134359
  23       -1.923920
  24       -1.851194
  25       -1.457688
  26       -1.400715
  27       -1.043193
  28       -0.521213
  29       -0.460807
  30       -0.346986
  31       -0.251781
  32       -0.218078
  33       -0.160426
  34       -0.111513
  35       -0.092835
  36        0.082180
  37        1.260570
  38        1.346040
  39        1.396659
  40        1.434514
  41        1.451828
  42        1.509098
  43        1.534945
  44        1.542601
  45        1.752094
  46        1.817099
  47        2.039758
  48        2.136183
  49        2.283998
  50        2.310734
  51        2.520835
  52        2.768203
  53        2.896901
  54        3.260535
  55        3.494548
  56        3.798496
  57        6.187564
  58        6.841103
  59        7.822438
  60        8.041900
  61        8.195901
  62        8.730893
  63        9.157194
  64        9.309816
  65       10.220869
  66       10.440536
  67       10.592643
  68       11.006459
  69       11.236342
  70       11.490096
  71       11.814247
  72       12.173602
  73       12.205632
  74       12.570101
  75       12.688935
  76       13.114849
  77       13.416084
  78       13.883774
  79       14.003307
  80       14.527398
 
  0.5000000E+00  0.2500000E+00  0.2000000E+00  0.2500000E-01
   1      -68.645730
   2      -68.645274
   3      -68.634782
   4      -68.633494
   5      -68.614364
   6      -68.614009
   7      -68.596669
   8      -68.596620
   9      -68.578900
  10      -68.578150
  11      -68.561723
  12      -68.561801
  13      -12.363870
  14      -11.478633
  15      -10.925666
  16      -10.659734
  17      -10.428968
  18      -10.308350
  19       -5.792180
  20       -4.836330
  21       -2.522917
  22       -2.239894
  23       -1.874242
  24       -1.645077
  25       -1.501483
  26       -1.312099
  27       -0.904870
  28       -0.531823
  29       -0.377791
  30       -0.351091
  31       -0.222333
  32       -0.179430
  33       -0.159095
  34       -0.077471
  35       -0.027622
  36        0.078292
  37        1.188811
  38        1.362830
  39        1.396730
  40        1.441319
  41        1.462082
  42        1.505612
  43        1.518002
  44        1.584894
  45        1.738679
  46        1.818146
  47        2.035253
  48        2.236111
  49        2.270637
  50        2.362638
  51        2.486196
  52        2.670164
  53        3.051513
  54        3.408615
  55        3.725621
  56        3.861908
  57        5.936236
  58        6.615305
  59        7.348052
  60        7.937604
  61        8.069312
  62        8.732629
  63        8.907809
  64        9.140100
  65        9.843045
  66       10.328228
  67       10.557294
  68       10.928679
  69       11.224594
  70       11.417503
  71       11.745383
  72       12.003788
  73       12.497107
  74       12.833030
  75       13.204991
  76       14.182716
  77       14.714335
  78       15.174146
  79       15.915000
  80       16.567284
 
 -0.2500000E+00  0.2500000E+00  0.2000000E+00  0.2500000E-01
   1      -68.645930
   2      -68.645491
   3      -68.634940
   4      -68.633496
   5      -68.614574