 vasp.5.3.3 18Dez12 (build Nov 13 2015 09:58:40) complex                        
  
 executed on             LinuxIFC date 2017.10.18  13:05:35
 running on   48 total cores
 distrk:  each k-point on   16 cores,    3 groups
 distr:  one band on NCORES_PER_BAND=   1 cores,   16 groups


--------------------------------------------------------------------------------------------------------


 INCAR:
 POTCAR:    PAW_PBE Cu_pv 06Sep2000               
 POTCAR:    PAW_PBE Ge 05Jan2001                  
 POTCAR:    PAW_PBE S 17Jan2003                   

 ----------------------------------------------------------------------------- 
|                                                                             |
|           W    W    AA    RRRRR   N    N  II  N    N   GGGG   !!!           |
|           W    W   A  A   R    R  NN   N  II  NN   N  G    G  !!!           |
|           W    W  A    A  R    R  N N  N  II  N N  N  G       !!!           |
|           W WW W  AAAAAA  RRRRR   N  N N  II  N  N N  G  GGG   !            |
|           WW  WW  A    A  R   R   N   NN  II  N   NN  G    G                |
|           W    W  A    A  R    R  N    N  II  N    N   GGGG   !!!           |
|                                                                             |
|      For optimal performance we recommend that you set                      |
|        NPAR = 4 - approx SQRT( number of cores)                             |
|      (number of cores/NPAR must be integer)                                 |
|      This setting will greatly improve the performance of VASP for DFT.     |
|      The default NPAR=number of cores might be grossly inefficient          |
|      on modern multi-core architectures or massively parallel machines.     |
|      Do your own testing.                                                   |
|      Unfortunately you need to use the default for hybrid, GW and RPA       |
|      calculations.                                                          |
|                                                                             |
 ----------------------------------------------------------------------------- 


 ----------------------------------------------------------------------------- 
|                                                                             |
|           W    W    AA    RRRRR   N    N  II  N    N   GGGG   !!!           |
|           W    W   A  A   R    R  NN   N  II  NN   N  G    G  !!!           |
|           W    W  A    A  R    R  N N  N  II  N N  N  G       !!!           |
|           W WW W  AAAAAA  RRRRR   N  N N  II  N  N N  G  GGG   !            |
|           WW  WW  A    A  R   R   N   NN  II  N   NN  G    G                |
|           W    W  A    A  R    R  N    N  II  N    N   GGGG   !!!           |
|                                                                             |
|      You have enabled k-point parallelism (KPAR>1).                         |
|      This developmental code was originally  written by Paul Kent at ORNL,  |
|      and carefully double checked in Vienna.                                |
|      GW as well as linear response parallelism added by Martijn Marsman     |
|      and Georg Kresse.                                                      |
|      Carefully verify results versus KPAR=1.                                |
|      Report problems to Paul Kent and Vienna.                               |
|                                                                             |
 ----------------------------------------------------------------------------- 

 POTCAR:    PAW_PBE Cu_pv 06Sep2000               
   VRHFIN =Cu: d10 p1                                                           
   LEXCH  = PE                                                                  
   EATOM  =  4120.1201 eV,  302.8203 Ry                                         
                                                                                
   TITEL  = PAW_PBE Cu_pv 06Sep2000                                             
   LULTRA =        F    use ultrasoft PP ?                                      
   IUNSCR =        1    unscreen: 0-lin 1-nonlin 2-no                           
   RPACOR =    1.500    partial core radius                                     
   POMASS =   63.546; ZVAL   =   17.000    mass and valenz                      
   RCORE  =    2.000    outmost cutoff radius                                   
   RWIGS  =    2.000; RWIGS  =    1.058    wigner-seitz radius (au A)           
   ENMAX  =  368.648; ENMIN  =  276.486 eV                                      
   RCLOC  =    1.304    cutoff for local pot                                    
   LCOR   =        T    correct aug charges                                     
   LPAW   =        T    paw PP                                                  
   EAUG   =  758.233                                                            
   DEXC   =    0.000                                                            
   RMAX   =    2.046    core radius for proj-oper                               
   RAUG   =    1.300    factor for augmentation sphere                          
   RDEP   =    2.025    radius for radial grids                                 
   RDEPT  =    1.558    core radius for aug-charge                              
                                                                                
   Atomic configuration                                                         
    8 entries                                                                   
     n  l   j            E        occ.                                          
     1  0  0.50     -8850.2467   2.0000                                         
     2  0  0.50     -1062.3498   2.0000                                         
     2  1  1.50      -916.8226   6.0000                                         
     3  0  0.50      -114.6929   2.0000                                         
     3  1  1.50       -72.1325   6.0000                                         
     3  2  2.50        -5.0394  10.0000                                         
     4  0  0.50        -4.6097   1.0000                                         
     4  3  2.50        -1.3606   0.0000                                         
   Description                                                                  
     l       E           TYP  RCUT    TYP  RCUT                                 
     1    -72.1324777     23  1.700                                             
     1     -1.3605826     23  1.700                                             
     2     -5.0393776     23  2.000                                             
     2     -6.3999602     23  2.000                                             
     0     -4.6097062     23  1.800                                             
     0     14.1620818     23  1.800                                             
  local pseudopotential read in
  partial core-charges read in
  partial kinetic energy density read in
  atomic valenz-charges read in
  non local Contribution for L=           1  read in
    real space projection operators read in
  non local Contribution for L=           1  read in
    real space projection operators read in
  non local Contribution for L=           2  read in
    real space projection operators read in
  non local Contribution for L=           2  read in
    real space projection operators read in
  non local Contribution for L=           0  read in
    real space projection operators read in
  non local Contribution for L=           0  read in
    real space projection operators read in
    PAW grid and wavefunctions read in
 
   number of l-projection  operators is LMAX  =           6
   number of lm-projection operators is LMMAX =          18
 
 POTCAR:    PAW_PBE Ge 05Jan2001                  
   VRHFIN =Ge: s2p2                                                             
   LEXCH  = PE                                                                  
   EATOM  =   104.9960 eV,    7.7170 Ry                                         
                                                                                
   TITEL  = PAW_PBE Ge 05Jan2001                                                
   LULTRA =        F    use ultrasoft PP ?                                      
   IUNSCR =        1    unscreen: 0-lin 1-nonlin 2-no                           
   RPACOR =    2.170    partial core radius                                     
   POMASS =   72.610; ZVAL   =    4.000    mass and valenz                      
   RCORE  =    2.300    outmost cutoff radius                                   
   RWIGS  =    2.300; RWIGS  =    1.217    wigner-seitz radius (au A)           
   ENMAX  =  173.807; ENMIN  =  130.355 eV                                      
   ICORE  =        3    local potential                                         
   LCOR   =        T    correct aug charges                                     
   LPAW   =        T    paw PP                                                  
   EAUG   =  385.843                                                            
   DEXC   =    0.000                                                            
   RMAX   =    2.342    core radius for proj-oper                               
   RAUG   =    1.300    factor for augmentation sphere                          
   RDEP   =    2.318    radius for radial grids                                 
   RDEPT  =    2.103    core radius for aug-charge                              
                                                                                
   Atomic configuration                                                         
   10 entries                                                                   
     n  l   j            E        occ.                                          
     1  0  0.50    -10959.8463   2.0000                                         
     2  0  0.50     -1371.6056   2.0000                                         
     2  1  1.50     -1198.4791   6.0000                                         
     3  0  0.50      -168.4733   2.0000                                         
     3  1  1.50      -115.6019   6.0000                                         
     3  2  2.50       -29.3106  10.0000                                         
     4  0  0.50       -11.7309   2.0000                                         
     4  1  0.50        -3.8952   2.0000                                         
     4  2  1.50        -4.0817   0.0000                                         
     4  3  2.50        -4.0817   0.0000                                         
   Description                                                                  
     l       E           TYP  RCUT    TYP  RCUT                                 
     0    -11.7309493     23  2.300                                             
     0     -7.4578696     23  2.300                                             
     1     -3.8952261     23  2.300                                             
     1      6.1178114     23  2.300                                             
     2     -4.0817478     23  2.300                                             
     3     -1.3605826      7  2.300                                             
  local pseudopotential read in
  partial core-charges read in
  partial kinetic energy density read in
  atomic valenz-charges read in
  non local Contribution for L=           0  read in
    real space projection operators read in
  non local Contribution for L=           0  read in
    real space projection operators read in
  non local Contribution for L=           1  read in
    real space projection operators read in
  non local Contribution for L=           1  read in
    real space projection operators read in
  non local Contribution for L=           2  read in
    real space projection operators read in
    PAW grid and wavefunctions read in
 
   number of l-projection  operators is LMAX  =           5
   number of lm-projection operators is LMMAX =          13
 
 POTCAR:    PAW_PBE S 17Jan2003                   
   VRHFIN =S : s2p4                                                             
   LEXCH  = PE                                                                  
   EATOM  =   276.8230 eV,   20.3459 Ry                                         
                                                                                
   TITEL  = PAW_PBE S 17Jan2003                                                 
   LULTRA =        F    use ultrasoft PP ?                                      
   IUNSCR =        1    unscreen: 0-lin 1-nonlin 2-no                           
   RPACOR =    1.500    partial core radius                                     
   POMASS =   32.066; ZVAL   =    6.000    mass and valenz                      
   RCORE  =    1.900    outmost cutoff radius                                   
   RWIGS  =    2.200; RWIGS  =    1.164    wigner-seitz radius (au A)           
   ENMAX  =  280.000; ENMIN  =  194.016 eV                                      
   ICORE  =        2    local potential                                         
   LCOR   =        T    correct aug charges                                     
   LPAW   =        T    paw PP                                                  
   EAUG   =  335.092                                                            
   DEXC   =     .000                                                            
   RMAX   =    2.867    core radius for proj-oper                               
   RAUG   =    1.300    factor for augmentation sphere                          
   RDEP   =    1.954    radius for radial grids                                 
   QCUT   =   -4.360; QGAM   =    8.721    optimization parameters              
                                                                                
   Description                                                                  
     l     E      TYP  RCUT    TYP  RCUT                                        
     0   .000     23  1.900                                                     
     0   .000     23  1.900                                                     
     1   .000     23  1.900                                                     
     1   .000     23  1.900                                                     
     2   .000     23  1.900                                                     
  local pseudopotential read in
  partial core-charges read in
  atomic valenz-charges read in
  non local Contribution for L=           0  read in
    real space projection operators read in
  non local Contribution for L=           0  read in
    real space projection operators read in
  non local Contribution for L=           1  read in
    real space projection operators read in
  non local Contribution for L=           1  read in
    real space projection operators read in
    PAW grid and wavefunctions read in
 
   number of l-projection  operators is LMAX  =           4
   number of lm-projection operators is LMMAX =           8
 
  PAW_PBE Cu_pv 06Sep2000               :
 energy of atom  1       EATOM=-4120.1201
 kinetic energy error for atom=    0.0996 (will be added to EATOM!!)
  PAW_PBE Ge 05Jan2001                  :
 energy of atom  2       EATOM= -104.9960
 kinetic energy error for atom=    0.0003 (will be added to EATOM!!)
  PAW_PBE S 17Jan2003                   :
 energy of atom  3       EATOM= -276.8230
 kinetic energy error for atom=    0.0046 (will be added to EATOM!!)
 
 
 POSCAR: Cu Ge S                                 
  positions in direct lattice
  No initial velocities read in
 exchange correlation table for  LEXCH =        8
   RHO(1)=    0.500       N(1)  =     2000
   RHO(2)=  100.500       N(2)  =     4000
 


--------------------------------------------------------------------------------------------------------


 ion  position               nearest neighbor table
   1  0.618  0.121  0.120-   9 2.29  11 2.29  12 2.30   8 2.35
   2  0.121  0.618  0.620-  12 2.29   7 2.29   9 2.30  10 2.35
   3  0.963  0.790  0.119-  11 2.30  12 2.30   7 2.31   8 2.36
   4  0.790  0.963  0.619-   7 2.30   9 2.30  11 2.31  10 2.36
   5  0.440  0.266  0.599-   7 2.19   9 2.19  10 2.31   8 2.33
   6  0.267  0.440  0.099-  11 2.19  12 2.19   8 2.31  10 2.33
   7  0.079  0.912  0.497-   5 2.19   2 2.29   4 2.30   3 2.31
   8  0.571  0.412  0.980-   6 2.31   5 2.33   1 2.35   3 2.36
   9  0.737  0.250  0.495-   5 2.19   1 2.29   4 2.30   2 2.30
  10  0.412  0.571  0.480-   5 2.31   6 2.33   2 2.35   4 2.36
  11  0.912  0.079  0.997-   6 2.19   1 2.29   3 2.30   4 2.31
  12  0.250  0.737  0.995-   6 2.19   2 2.29   3 2.30   1 2.30
 
  Warning from LATTYP: Got some problem with cell dimensions!
  Tried to take original basis but could not verify dimensions!
  LATTYP: Found a base centered monoclinic cell.
 ALAT       =     6.4499010947
 B/A-ratio  =     1.7500516418
 C/A-ratio  =     1.9305142024
 COS(beta)  =    -0.4326083233
  
  Lattice vectors:
  
 A1 = (   3.2247960000,   5.6438300000,   0.0315720000)
 A2 = (   3.2247960000,  -5.6438300000,   0.0315720000)
 A3 = ( -10.7972380000,   0.0000000000,  -6.2018250000)


Analysis of symmetry for initial positions (statically):
=====================================================================
 Subroutine PRICEL returns:
 Original cell was already a primitive cell.
 

 Routine SETGRP: Setting up the symmetry group for a 
 base centered monoclinic supercell.


 Subroutine GETGRP returns: Found  1 space group operations
 (whereof  1 operations were pure point group operations)
 out of a pool of  4 trial point group operations.


The static configuration has the point symmetry C_1 .


Analysis of symmetry for dynamics (positions and initial velocities):
=====================================================================
 Subroutine PRICEL returns:
 Original cell was already a primitive cell.
 

 Routine SETGRP: Setting up the symmetry group for a 
 base centered monoclinic supercell.


 Subroutine GETGRP returns: Found  1 space group operations
 (whereof  1 operations were pure point group operations)
 out of a pool of  4 trial point group operations.


The dynamic configuration has the point symmetry C_1 .


 irot  :   1
 --------------------------------------------------------------------
 isymop:   1   0   0
           0   1   0
           0   0   1

 gtrans:     0.0000000     0.0000000     0.0000000

 ptrans:     0.0000000     0.0000000     0.0000000
 rotmap:
 (   1->   1)  (   2->   2)  (   3->   3)  (   4->   4)  (   5->   5) 
 (   6->   6)  (   7->   7)  (   8->   8)  (   9->   9)  (  10->  10) 
 (  11->  11)  (  12->  12) 
 
 
 KPOINTS: pymatgen 4.7.6+ generated KPOINTS with g

Automatic generation of k-mesh.
Space group operators:
 irot       det(A)        alpha          n_x          n_y          n_z        tau_x        tau_y        tau_z
    1     1.000000     0.000000     1.000000     0.000000     0.000000     0.000000     0.000000     0.000000
 
 Subroutine IBZKPT returns following result:
 ===========================================
 
 Found     42 irreducible k-points:
 
 Following reciprocal coordinates:
            Coordinates               Weight
  0.000000  0.000000  0.000000      1.000000
  0.250000  0.000000  0.000000      2.000000
  0.500000  0.000000  0.000000      1.000000
  0.000000  0.250000  0.000000      2.000000
  0.250000  0.250000  0.000000      2.000000
  0.500000  0.250000 -0.000000      2.000000
 -0.250000  0.250000  0.000000      2.000000
  0.000000  0.500000  0.000000      1.000000
  0.250000  0.500000 -0.000000      2.000000
  0.500000  0.500000  0.000000      1.000000
 -0.000000 -0.000000  0.200000      2.000000
  0.250000  0.000000  0.200000      2.000000
  0.500000  0.000000  0.200000      2.000000
 -0.250000 -0.000000  0.200000      2.000000
  0.000000  0.250000  0.200000      2.000000
  0.250000  0.250000  0.200000      2.000000
  0.500000  0.250000  0.200000      2.000000
 -0.250000  0.250000  0.200000      2.000000
  0.000000  0.500000  0.200000      2.000000
  0.250000  0.500000  0.200000      2.000000
  0.500000  0.500000  0.200000      2.000000
 -0.250000  0.500000  0.200000      2.000000
 -0.000000 -0.250000  0.200000      2.000000
  0.250000 -0.250000  0.200000      2.000000
  0.500000 -0.250000  0.200000      2.000000
 -0.250000 -0.250000  0.200000      2.000000
 -0.000000 -0.000000  0.400000      2.000000
  0.250000  0.000000  0.400000      2.000000
  0.500000  0.000000  0.400000      2.000000
 -0.250000  0.000000  0.400000      2.000000
  0.000000  0.250000  0.400000      2.000000
  0.250000  0.250000  0.400000      2.000000
  0.500000  0.250000  0.400000      2.000000
 -0.250000  0.250000  0.400000      2.000000
  0.000000  0.500000  0.400000      2.000000
  0.250000  0.500000  0.400000      2.000000
  0.500000  0.500000  0.400000      2.000000
 -0.250000  0.500000  0.400000      2.000000
  0.000000 -0.250000  0.400000      2.000000
  0.250000 -0.250000  0.400000      2.000000
  0.500000 -0.250000  0.400000      2.000000
 -0.250000 -0.250000  0.400000      2.000000
 
 Following cartesian coordinates:
            Coordinates               Weight
  0.000000  0.000000  0.000000      1.000000
  0.038631 -0.022148  0.013365      2.000000
  0.077263 -0.044296  0.026730      1.000000
  0.038631  0.022148  0.013365      2.000000
  0.077263  0.000000  0.026730      2.000000
  0.115894 -0.022148  0.040096      2.000000
  0.000000  0.044296  0.000000      2.000000
  0.077263  0.044296  0.026730      1.000000
  0.115894  0.022148  0.040096      2.000000
  0.154525  0.000000  0.053461      1.000000
 -0.000321  0.000000  0.032808      2.000000
  0.038310 -0.022148  0.046173      2.000000
  0.076941 -0.044296  0.059538      2.000000
 -0.038952  0.022148  0.019443      2.000000
  0.038310  0.022148  0.046173      2.000000
  0.076941  0.000000  0.059538      2.000000
  0.115573 -0.022148  0.072903      2.000000
 -0.000321  0.044296  0.032808      2.000000
  0.076941  0.044296  0.059538      2.000000
  0.115573  0.022148  0.072903      2.000000
  0.154204  0.000000  0.086269      2.000000
  0.038310  0.066444  0.046173      2.000000
 -0.038952 -0.022148  0.019443      2.000000
 -0.000321 -0.044296  0.032808      2.000000
  0.038310 -0.066444  0.046173      2.000000
 -0.077584  0.000000  0.006077      2.000000
 -0.000642  0.000000  0.065616      2.000000
  0.037989 -0.022148  0.078981      2.000000
  0.076620 -0.044296  0.092346      2.000000
 -0.039274  0.022148  0.052250      2.000000
  0.037989  0.022148  0.078981      2.000000
  0.076620  0.000000  0.092346      2.000000
  0.115251 -0.022148  0.105711      2.000000
 -0.000642  0.044296  0.065616      2.000000
  0.076620  0.044296  0.092346      2.000000
  0.115251  0.022148  0.105711      2.000000
  0.153883  0.000000  0.119076      2.000000
  0.037989  0.066444  0.078981      2.000000
 -0.039274 -0.022148  0.052250      2.000000
 -0.000642 -0.044296  0.065616      2.000000
  0.037989 -0.066444  0.078981      2.000000
 -0.077905  0.000000  0.038885      2.000000
 
 
 Subroutine IBZKPT_HF returns following result:
 ==============================================
 
 Found     80 k-points in 1st BZ
 the following     80 k-points will be used (e.g. in the exchange kernel)
 Following reciprocal coordinates:   # in IRBZ
  0.000000  0.000000  0.000000       1 t-inv F
  0.250000  0.000000  0.000000       2 t-inv F
  0.500000  0.000000  0.000000       3 t-inv F
  0.000000  0.250000  0.000000       4 t-inv F
  0.250000  0.250000  0.000000       5 t-inv F
  0.500000  0.250000 -0.000000       6 t-inv F
 -0.250000  0.250000  0.000000       7 t-inv F
  0.000000  0.500000  0.000000       8 t-inv F
  0.250000  0.500000 -0.000000       9 t-inv F
  0.500000  0.500000  0.000000      10 t-inv F
 -0.000000 -0.000000  0.200000      11 t-inv F
  0.250000  0.000000  0.200000      12 t-inv F
  0.500000  0.000000  0.200000      13 t-inv F
 -0.250000 -0.000000  0.200000      14 t-inv F
  0.000000  0.250000  0.200000      15 t-inv F
  0.250000  0.250000  0.200000      16 t-inv F
  0.500000  0.250000  0.200000      17 t-inv F
 -0.250000  0.250000  0.200000      18 t-inv F
  0.000000  0.500000  0.200000      19 t-inv F
  0.250000  0.500000  0.200000      20 t-inv F
  0.500000  0.500000  0.200000      21 t-inv F
 -0.250000  0.500000  0.200000      22 t-inv F
 -0.000000 -0.250000  0.200000      23 t-inv F
  0.250000 -0.250000  0.200000      24 t-inv F
  0.500000 -0.250000  0.200000      25 t-inv F
 -0.250000 -0.250000  0.200000      26 t-inv F
 -0.000000 -0.000000  0.400000      27 t-inv F
  0.250000  0.000000  0.400000      28 t-inv F
  0.500000  0.000000  0.400000      29 t-inv F
 -0.250000  0.000000  0.400000      30 t-inv F
  0.000000  0.250000  0.400000      31 t-inv F
  0.250000  0.250000  0.400000      32 t-inv F
  0.500000  0.250000  0.400000      33 t-inv F
 -0.250000  0.250000  0.400000      34 t-inv F
  0.000000  0.500000  0.400000      35 t-inv F
  0.250000  0.500000  0.400000      36 t-inv F
  0.500000  0.500000  0.400000      37 t-inv F
 -0.250000  0.500000  0.400000      38 t-inv F
  0.000000 -0.250000  0.400000      39 t-inv F
  0.250000 -0.250000  0.400000      40 t-inv F
  0.500000 -0.250000  0.400000      41 t-inv F
 -0.250000 -0.250000  0.400000      42 t-inv F
 -0.250000 -0.000000 -0.000000       2 t-inv T
 -0.000000 -0.250000 -0.000000       4 t-inv T
 -0.250000 -0.250000  0.000000       5 t-inv T
 -0.500000 -0.250000  0.000000       6 t-inv T
  0.250000 -0.250000  0.000000       7 t-inv T
 -0.250000 -0.500000  0.000000       9 t-inv T
  0.000000  0.000000 -0.200000      11 t-inv T
 -0.250000 -0.000000 -0.200000      12 t-inv T
 -0.500000 -0.000000 -0.200000      13 t-inv T
  0.250000  0.000000 -0.200000      14 t-inv T
 -0.000000 -0.250000 -0.200000      15 t-inv T
 -0.250000 -0.250000 -0.200000      16 t-inv T
 -0.500000 -0.250000 -0.200000      17 t-inv T
  0.250000 -0.250000 -0.200000      18 t-inv T
 -0.000000 -0.500000 -0.200000      19 t-inv T
 -0.250000 -0.500000 -0.200000      20 t-inv T
 -0.500000 -0.500000 -0.200000      21 t-inv T
  0.250000 -0.500000 -0.200000      22 t-inv T
  0.000000  0.250000 -0.200000      23 t-inv T
 -0.250000  0.250000 -0.200000      24 t-inv T
 -0.500000  0.250000 -0.200000      25 t-inv T
  0.250000  0.250000 -0.200000      26 t-inv T
  0.000000  0.000000 -0.400000      27 t-inv T
 -0.250000 -0.000000 -0.400000      28 t-inv T
 -0.500000 -0.000000 -0.400000      29 t-inv T
  0.250000 -0.000000 -0.400000      30 t-inv T
 -0.000000 -0.250000 -0.400000      31 t-inv T
 -0.250000 -0.250000 -0.400000      32 t-inv T
 -0.500000 -0.250000 -0.400000      33 t-inv T
  0.250000 -0.250000 -0.400000      34 t-inv T
 -0.000000 -0.500000 -0.400000      35 t-inv T
 -0.250000 -0.500000 -0.400000      36 t-inv T
 -0.500000 -0.500000 -0.400000      37 t-inv T
  0.250000 -0.500000 -0.400000      38 t-inv T
 -0.000000  0.250000 -0.400000      39 t-inv T
 -0.250000  0.250000 -0.400000      40 t-inv T
 -0.500000  0.250000 -0.400000      41 t-inv T
  0.250000  0.250000 -0.400000      42 t-inv T


--------------------------------------------------------------------------------------------------------




 Dimension of arrays:
   k-points           NKPTS =     42   k-points in BZ     NKDIM =     80   number of bands    NBANDS=     80
   number of dos      NEDOS =    301   number of ions     NIONS =     12
   non local maximal  LDIM  =      6   non local SUM 2l+1 LMDIM =     18
   total plane-waves  NPLWV =  32768
   max r-space proj   IRMAX =      1   max aug-charges    IRDMAX=   8224
   dimension x,y,z NGX =    32 NGY =   32 NGZ =   32
   dimension x,y,z NGXF=    64 NGYF=   64 NGZF=   64
   support grid    NGXF=    64 NGYF=   64 NGZF=   64
   ions per type =               4   2   6
 NGX,Y,Z   is equivalent  to a cutoff of   8.18,  8.18,  8.27 a.u.
 NGXF,Y,Z  is equivalent  to a cutoff of  16.37, 16.37, 16.55 a.u.


 I would recommend the setting:
   dimension x,y,z NGX =    32 NGY =   32 NGZ =   31
 SYSTEM =  CGS                                     
 POSCAR =  Cu Ge S                                 

 Startparameter for this run:
   NWRITE =      2    write-flag & timer
   PREC   = normal    normal or accurate (medium, high low for compatibility)
   ISTART =      1    job   : 0-new  1-cont  2-samecut
   ICHARG =      0    charge: 1-file 2-atom 10-const
   ISPIN  =      1    spin polarized calculation?
   LNONCOLLINEAR =      F non collinear calculations
   LSORBIT =      F    spin-orbit coupling
   INIWAV =      1    electr: 0-lowe 1-rand  2-diag
   LASPH  =      F    aspherical Exc in radial PAW
   METAGGA=      F    non-selfconsistent MetaGGA calc.

 Electronic Relaxation 1
   ENCUT  =  400.0 eV  29.40 Ry    5.42 a.u.  10.60 10.60 10.48*2*pi/ulx,y,z
   ENINI  =  400.0     initial cutoff
   ENAUG  =  758.2 eV  augmentation charge cutoff
   NELM   =     60;   NELMIN=  2; NELMDL=  0     # of ELM steps 
   EDIFF  = 0.1E-04   stopping-criterion for ELM
   LREAL  =      F    real-space projection
   NLSPLINE    = F    spline interpolate recip. space projectors
   LCOMPAT=      F    compatible to vasp.4.4
   GGA_COMPAT  = T    GGA compatible to vasp.4.4-vasp.4.6
   LMAXPAW     = -100 max onsite density
   LMAXMIX     =    2 max onsite mixed and CHGCAR
   VOSKOWN=      0    Vosko Wilk Nusair interpolation
   ROPT   =    0.00000   0.00000   0.00000
 Ionic relaxation
   EDIFFG = 0.1E-03   stopping-criterion for IOM
   NSW    =      0    number of steps for IOM
   NBLOCK =      1;   KBLOCK =      1    inner block; outer block 
   IBRION =     -1    ionic relax: 0-MD 1-quasi-New 2-CG
   NFREE  =      0    steps in history (QN), initial steepest desc. (CG)
   ISIF   =      0    stress and relaxation
   IWAVPR =     10    prediction:  0-non 1-charg 2-wave 3-comb
   ISYM   =      3    0-nonsym 1-usesym 2-fastsym
   LCORR  =      T    Harris-Foulkes like correction to forces

   POTIM  = 0.5000    time-step for ionic-motion
   TEIN   =    0.0    initial temperature
   TEBEG  =    0.0;   TEEND  =   0.0 temperature during run
   SMASS  =  -3.00    Nose mass-parameter (am)
   estimated Nose-frequenzy (Omega)   =  0.10E-29 period in steps =****** mass=  -0.966E-27a.u.
   SCALEE = 1.0000    scale energy and forces
   NPACO  =    256;   APACO  = 16.0  distance and # of slots for P.C.
   PSTRESS=    0.0 pullay stress

  Mass of Ions in am
   POMASS =  63.55 72.61 32.07
  Ionic Valenz
   ZVAL   =  17.00  4.00  6.00
  Atomic Wigner-Seitz radii
   RWIGS  =  -1.00 -1.00 -1.00
  virtual crystal weights 
   VCA    =   1.00  1.00  1.00
   NELECT =     112.0000    total number of electrons
   NUPDOWN=      -1.0000    fix difference up-down

 DOS related values:
   EMIN   =  10.00;   EMAX   =-10.00  energy-range for DOS
   EFERMI =   0.00
   ISMEAR =     1;   SIGMA  =   0.10  broadening in eV -4-tet -1-fermi 0-gaus

 Electronic relaxation 2 (details)
   IALGO  =     53    algorithm
   LDIAG  =      T    sub-space diagonalisation (order eigenvalues)
   LSUBROT=      T    optimize rotation matrix (better conditioning)
   TURBO    =      0    0=normal 1=particle mesh
   IRESTART =      0    0=no restart 2=restart with 2 vectors
   NREBOOT  =      0    no. of reboots
   NMIN     =      0    reboot dimension
   EREF     =   0.00    reference energy to select bands
   IMIX   =      4    mixing-type and parameters
     AMIX     =   0.40;   BMIX     =  1.00
     AMIX_MAG =   1.60;   BMIX_MAG =  1.00
     AMIN     =   0.10
     WC   =   100.;   INIMIX=   1;  MIXPRE=   1;  MAXMIX= -45

 Intra band minimization:
   WEIMIN = 0.0000     energy-eigenvalue tresh-hold
   EBREAK =  0.31E-07  absolut break condition
   DEPER  =   0.30     relativ break condition  

   TIME   =   0.40     timestep for ELM

  volume/ion in A,a.u.               =      18.49       124.79
  Fermi-wavevector in a.u.,A,eV,Ry     =   1.303450  2.463163 23.116052  1.698982
  Thomas-Fermi vector in A             =   2.434451
 
 Write flags
   LWAVE  =      T    write WAVECAR
   LCHARG =      T    write CHGCAR
   LVTOT  =      F    write LOCPOT, total local potential
   LVHAR  =      F    write LOCPOT, Hartree potential only
   LELF   =      F    write electronic localiz. function (ELF)
   LORBIT =      0    0 simple, 1 ext, 2 COOP (PROOUT)


 Dipole corrections
   LMONO  =      F    monopole corrections only (constant potential shift)
   LDIPOL =      F    correct potential (dipole corrections)
   IDIPOL =      0    1-x, 2-y, 3-z, 4-all directions 
   EPSILON=  1.0000000 bulk dielectric constant

 Exchange correlation treatment:
   GGA     =    PE    GGA type
   LEXCH   =     8    internal setting for exchange type
   VOSKOWN=      0    Vosko Wilk Nusair interpolation
   EXXOEP  =     0    0=HF, 1=EXX-LHF (local Hartree Fock) 2=EXX OEP
   LHFCALC =     T    Hartree Fock is set to
   LSYMGRAD=     F    symmetrize gradient (conserves proper symmetry)
   PRECFOCK=fast      Normal, Fast or Accurate (Low or Medium for compatibility)
   LRHFCALC=     F    long range Hartree Fock
   LRSCOR  =     F    long range correlation only (use DFT for short range part)
   LTHOMAS =     F    Thomas Fermi screening in HF
   LMODELHF=     F    short range full HF, long range fraction AEXX
   ENCUT4O =  -1.0   cutoff for four orbital integrals eV
   LMAXFOCK=     4    L truncation for augmentation on plane wave grid
   LMAXFOCKAE=  -1    L truncation for all-electron charge restoration on plane wave grid
   NMAXFOCKAE=   1    number of basis functions for all-electron charge restoration
   LFOCKAEDFT=     F  apply the AE augmentation even for DFT
   NKREDX  =     1    reduce k-point grid by
   NKREDY  =     1    reduce k-point grid by
   NKREDZ  =     1    reduce k-point grid by
   SHIFTRED=     F    shift reduced grid of Gamma
   HFKIDENT=     F    idential grid for each k-point
   ODDONLY =     F    use only odd q-grid points
   EVENONLY=     F    use only even q-grid points
   HFALPHA =   -1.0000 decay constant for conv. correction
   MCALPHA =    0.0000 extent of test-charge in conv. correction in multipole expansion
   AEXX    =    0.2500 exact exchange contribution
   HFSCREEN=    0.2000 screening length (either q_TF or 0.3 A-1)
   HFSCREENC=   0.2000 screening length for correlation (either q_TF or 0.3 A-1)
   HFRCUT  =    0.0000 spherical cutoff for potential kernel
   ALDAX   =    0.7500 LDA exchange part
   AGGAX   =    0.7500 GGA exchange part
   ALDAC   =    1.0000 LDA correlation
   AGGAC   =    1.0000 GGA correlation
   NBANDSGWLOW=     1    first orbital included in HF term
 Linear response parameters
   LEPSILON=     F    determine dielectric tensor
   LRPA    =     F    only Hartree local field effects (RPA)
   LNABLA  =     F    use nabla operator in PAW spheres
   LVEL    =     F    velocity operator in full k-point grid
   LINTERFAST=   F  fast interpolation
   KINTER  =     0    interpolate to denser k-point grid
   CSHIFT  =0.1000    complex shift for real part using Kramers Kronig
   OMEGAMAX=  -1.0    maximum frequency
   DEG_THRESHOLD= 0.2000000E-02 threshold for treating states as degnerate
   RTIME   =    0.100 relaxation time in fs

 Orbital magnetization related:
   ORBITALMAG=     F  switch on orbital magnetization
   LCHIMAG   =     F  perturbation theory with respect to B field
   DQ        =  0.001000  dq finite difference perturbation B field



--------------------------------------------------------------------------------------------------------


 Static calculation
 charge density and potential will be updated during run
 non-spin polarized calculation
 Conjugate gradient for all bands, subspace preconditioning
 perform sub-space diagonalisation
    before iterative eigenvector-optimisation
 modified Broyden-mixing scheme, WC =      100.0
 initial mixing is a Kerker type mixing with AMIX =  0.4000 and BMIX =      1.0000
 Hartree-type preconditioning will be used
 using additional bands           24
 reciprocal scheme for non local part
 use partial core corrections
 no Harris-corrections to forces 
 use gradient corrections 
 use of overlap-Matrix (Vanderbilt PP)
 Methfessel and Paxton  Order N= 1 SIGMA  =   0.10


--------------------------------------------------------------------------------------------------------


  energy-cutoff  :      400.00
  volume of cell :      221.90
      direct lattice vectors                 reciprocal lattice vectors
     3.224796000 -5.643830000  0.031572000     0.154525165 -0.088592321  0.053460880
     3.224796000  5.643830000  0.031572000     0.154525165  0.088592321  0.053460880
    -2.101946000  0.000000000  6.075537000    -0.001606004  0.000000000  0.164038877

  length of vectors
     6.500240234  6.500240234  6.428866683     0.185969598  0.185969598  0.164046738


 
 old parameters found on file WAVECAR:
  energy-cutoff  :      400.00
  volume of cell :      222.35
      direct lattice vectors                 reciprocal lattice vectors
     3.227235519 -5.642745207  0.030241751     0.154430495 -0.088609353  0.053450002
     3.227235519  5.642745207  0.030241751     0.154430495  0.088609353  0.053450002
    -2.106135241  0.000000000  6.085154262    -0.001534965  0.000000000  0.163803104

  length of vectors

 
 k-points in units of 2pi/SCALE and weight: pymatgen 4.7.6+ generated KPOINTS with g
   0.00000000  0.00000000  0.00000000       0.013
   0.03863129 -0.02214808  0.01336522       0.025
   0.07726258 -0.04429616  0.02673044       0.013
   0.03863129  0.02214808  0.01336522       0.025
   0.07726258  0.00000000  0.02673044       0.025
   0.11589387 -0.02214808  0.04009566       0.025
   0.00000000  0.04429616  0.00000000       0.025
   0.07726258  0.04429616  0.02673044       0.013
   0.11589387  0.02214808  0.04009566       0.025
   0.15452516  0.00000000  0.05346088       0.013
  -0.00032120  0.00000000  0.03280778       0.025
   0.03831009 -0.02214808  0.04617300       0.025
   0.07694138 -0.04429616  0.05953822       0.025
  -0.03895249  0.02214808  0.01944256       0.025
   0.03831009  0.02214808  0.04617300       0.025
   0.07694138  0.00000000  0.05953822       0.025
   0.11557267 -0.02214808  0.07290344       0.025
  -0.00032120  0.04429616  0.03280778       0.025
   0.07694138  0.04429616  0.05953822       0.025
   0.11557267  0.02214808  0.07290344       0.025
   0.15420396  0.00000000  0.08626865       0.025
   0.03831009  0.06644424  0.04617300       0.025
  -0.03895249 -0.02214808  0.01944256       0.025
  -0.00032120 -0.04429616  0.03280778       0.025
   0.03831009 -0.06644424  0.04617300       0.025
  -0.07758378  0.00000000  0.00607734       0.025
  -0.00064240  0.00000000  0.06561555       0.025
   0.03798889 -0.02214808  0.07898077       0.025
   0.07662018 -0.04429616  0.09234599       0.025
  -0.03927369  0.02214808  0.05225033       0.025
   0.03798889  0.02214808  0.07898077       0.025
   0.07662018  0.00000000  0.09234599       0.025
   0.11525147 -0.02214808  0.10571121       0.025
  -0.00064240  0.04429616  0.06561555       0.025
   0.07662018  0.04429616  0.09234599       0.025
   0.11525147  0.02214808  0.10571121       0.025
   0.15388276  0.00000000  0.11907643       0.025
   0.03798889  0.06644424  0.07898077       0.025
  -0.03927369 -0.02214808  0.05225033       0.025
  -0.00064240 -0.04429616  0.06561555       0.025
   0.03798889 -0.06644424  0.07898077       0.025
  -0.07790498  0.00000000  0.03888511       0.025
 
 k-points in reciprocal lattice and weights: pymatgen 4.7.6+ generated KPOINTS with g
   0.00000000  0.00000000  0.00000000       0.013
   0.25000000  0.00000000  0.00000000       0.025
   0.50000000  0.00000000  0.00000000       0.013
   0.00000000  0.25000000  0.00000000       0.025
   0.25000000  0.25000000  0.00000000       0.025
   0.50000000  0.25000000 -0.00000000       0.025
  -0.25000000  0.25000000  0.00000000       0.025
   0.00000000  0.50000000  0.00000000       0.013
   0.25000000  0.50000000 -0.00000000       0.025
   0.50000000  0.50000000  0.00000000       0.013
  -0.00000000 -0.00000000  0.20000000       0.025
   0.25000000  0.00000000  0.20000000       0.025
   0.50000000  0.00000000  0.20000000       0.025
  -0.25000000 -0.00000000  0.20000000       0.025
   0.00000000  0.25000000  0.20000000       0.025
   0.25000000  0.25000000  0.20000000       0.025
   0.50000000  0.25000000  0.20000000       0.025
  -0.25000000  0.25000000  0.20000000       0.025
   0.00000000  0.50000000  0.20000000       0.025
   0.25000000  0.50000000  0.20000000       0.025
   0.50000000  0.50000000  0.20000000       0.025
  -0.25000000  0.50000000  0.20000000       0.025
  -0.00000000 -0.25000000  0.20000000       0.025
   0.25000000 -0.25000000  0.20000000       0.025
   0.50000000 -0.25000000  0.20000000       0.025
  -0.25000000 -0.25000000  0.20000000       0.025
  -0.00000000 -0.00000000  0.40000000       0.025
   0.25000000  0.00000000  0.40000000       0.025
   0.50000000  0.00000000  0.40000000       0.025
  -0.25000000  0.00000000  0.40000000       0.025
   0.00000000  0.25000000  0.40000000       0.025
   0.25000000  0.25000000  0.40000000       0.025
   0.50000000  0.25000000  0.40000000       0.025
  -0.25000000  0.25000000  0.40000000       0.025
   0.00000000  0.50000000  0.40000000       0.025
   0.25000000  0.50000000  0.40000000       0.025
   0.50000000  0.50000000  0.40000000       0.025
  -0.25000000  0.50000000  0.40000000       0.025
   0.00000000 -0.25000000  0.40000000       0.025
   0.25000000 -0.25000000  0.40000000       0.025
   0.50000000 -0.25000000  0.40000000       0.025
  -0.25000000 -0.25000000  0.40000000       0.025
 
 position of ions in fractional coordinates (direct lattice) 
   0.61844300  0.12117100  0.11953300
   0.12117100  0.61844300  0.61953300
   0.96295700  0.79032200  0.11881300
   0.79032200  0.96295700  0.61881300
   0.43973200  0.26574260  0.59904700
   0.26728100  0.43973200  0.09904700
   0.07949800  0.91167500  0.49736300
   0.57140300  0.41236400  0.98018400
   0.73711100  0.25006200  0.49504900
   0.41236400  0.57140300  0.48018400
   0.91167500  0.07949800  0.99736300
   0.25006200  0.73711100  0.99504900
 
 position of ions in cartesian coordinates  (Angst):
   2.13385236 -2.80651863  0.74957826
   1.08287936  2.80651863  3.78734676
   5.40422860 -0.97432259  0.77720730
   4.35325560  0.97432259  3.81497580
   1.01584721 -0.98196662  3.66180546
   2.07178125  0.97328413  0.62408553
   2.15090056  4.69666552  3.05304062
   1.11215405 -0.89758908  5.98620365
   2.14286528 -2.74882176  3.03885554
   2.16312705  0.89758908  2.94843515
   1.09992756 -4.69666552  6.09080912
   1.09189228  2.74882176  6.07662404
 


--------------------------------------------------------------------------------------------------------


 k-point  1 :   0.0000 0.0000 0.0000  plane waves:    4051
 k-point  2 :   0.2500 0.0000 0.0000  plane waves:    4032
 k-point  3 :   0.5000 0.0000 0.0000  plane waves:    4030
 k-point  4 :   0.0000 0.2500 0.0000  plane waves:    4032
 k-point  5 :   0.2500 0.2500 0.0000  plane waves:    4038
 k-point  6 :   0.5000 0.2500-0.0000  plane waves:    4037
 k-point  7 :  -0.2500 0.2500 0.0000  plane waves:    4042
 k-point  8 :   0.0000 0.5000 0.0000  plane waves:    4030
 k-point  9 :   0.2500 0.5000-0.0000  plane waves:    4037
 k-point 10 :   0.5000 0.5000 0.0000  plane waves:    4026
 k-point 11 :  -0.0000-0.0000 0.2000  plane waves:    4046
 k-point 12 :   0.2500 0.0000 0.2000  plane waves:    4034
 k-point 13 :   0.5000 0.0000 0.2000  plane waves:    4025
 k-point 14 :  -0.2500-0.0000 0.2000  plane waves:    4044
 k-point 15 :   0.0000 0.2500 0.2000  plane waves:    4034
 k-point 16 :   0.2500 0.2500 0.2000  plane waves:    4017
 k-point 17 :   0.5000 0.2500 0.2000  plane waves:    4039
 k-point 18 :  -0.2500 0.2500 0.2000  plane waves:    4042
 k-point 19 :   0.0000 0.5000 0.2000  plane waves:    4025
 k-point 20 :   0.2500 0.5000 0.2000  plane waves:    4039
 k-point 21 :   0.5000 0.5000 0.2000  plane waves:    4030
 k-point 22 :  -0.2500 0.5000 0.2000  plane waves:    4030
 k-point 23 :  -0.0000-0.2500 0.2000  plane waves:    4044
 k-point 24 :   0.2500-0.2500 0.2000  plane waves:    4042
 k-point 25 :   0.5000-0.2500 0.2000  plane waves:    4030
 k-point 26 :  -0.2500-0.2500 0.2000  plane waves:    4020
 k-point 27 :  -0.0000-0.0000 0.4000  plane waves:    4027
 k-point 28 :   0.2500 0.0000 0.4000  plane waves:    4034
 k-point 29 :   0.5000 0.0000 0.4000  plane waves:    4013
 k-point 30 :  -0.2500 0.0000 0.4000  plane waves:    4042
 k-point 31 :   0.0000 0.2500 0.4000  plane waves:    4034
 k-point 32 :   0.2500 0.2500 0.4000  plane waves:    4009
 k-point 33 :   0.5000 0.2500 0.4000  plane waves:    4026
 k-point 34 :  -0.2500 0.2500 0.4000  plane waves:    4027
 k-point 35 :   0.0000 0.5000 0.4000  plane waves:    4013
 k-point 36 :   0.2500 0.5000 0.4000  plane waves:    4026
 k-point 37 :   0.5000 0.5000 0.4000  plane waves:    4037
 k-point 38 :  -0.2500 0.5000 0.4000  plane waves:    4022
 k-point 39 :   0.0000-0.2500 0.4000  plane waves:    4042
 k-point 40 :   0.2500-0.2500 0.4000  plane waves:    4027
 k-point 41 :   0.5000-0.2500 0.4000  plane waves:    4022
 k-point 42 :  -0.2500-0.2500 0.4000  plane waves:    4015

 maximum and minimum number of plane-waves per node :      4051     4009

 maximum number of plane-waves:      4051
 maximum index in each direction: 
   IXMAX=   10   IYMAX=   10   IZMAX=   10
   IXMIN=  -11   IYMIN=  -11   IZMIN=  -10

 WARNING: aliasing errors must be expected set NGX to  44 to avoid them
 WARNING: aliasing errors must be expected set NGY to  44 to avoid them
 WARNING: aliasing errors must be expected set NGZ to  42 to avoid them
 aliasing errors are usually negligible using standard VASP settings
 and one can safely disregard these warnings

 serial   3D FFT for wavefunctions
 parallel 3D FFT for charge:
    minimum data exchange during FFTs selected (reduces bandwidth)


 FFT grid for exact exchange (Hartree Fock) 
  NGX = 24; NGY = 24; NGZ = 24

 
 Radii for the augmentation spheres in the non-local exchange
 for species   1 augmentation radius   1.120 (default was   0.830)
       energy cutoff for augmentation   1600.0
 for species   2 augmentation radius   1.570 (default was   1.163)
       energy cutoff for augmentation   1600.0
 for species   3 augmentation radius   1.034 (default was   0.970)
       energy cutoff for augmentation   1600.0

 total amount of memory used by VASP on root node   151696. kBytes
========================================================================

   base      :      30000. kBytes
   nonl-proj :      74517. kBytes
   fftplans  :        702. kBytes
   grid      :       2400. kBytes
   one-center:        186. kBytes
   HF        :        194. kBytes
   nonlr-proj:       1121. kBytes
   wavefun   :      42576. kBytes
 
 Broyden mixing: mesh for mixing (old mesh)
   NGX = 21   NGY = 21   NGZ = 21
  (NGX  = 64   NGY  = 64   NGZ  = 64)
  gives a total of   9261 points

 charge density for first step will be calculated from the start-wavefunctions


--------------------------------------------------------------------------------------------------------


 Maximum index for augmentation-charges          484 (set IRDMAX)


--------------------------------------------------------------------------------------------------------


 initial charge from wavefunction
 First call to EWALD:  gamma=   0.293
 Maximum number of real-space cells 3x 3x 3
 Maximum number of reciprocal cells 3x 3x 3

 FEWALD executed in parallel
    FEWALD:  cpu time    0.00: real time    0.00


----------------------------------------- Iteration    1(   1)  ---------------------------------------


    POTLOK:  cpu time    0.05: real time    0.05
    SETDIJ:  cpu time    1.96: real time    1.96
 
    SUBROT:  cpu time    1.64: real time    1.64
    SUBROT:  cpu time    0.77: real time    0.77
    SUBROT:  cpu time    0.77: real time    0.77
    --------------------------------------------
    SUBRT+:  cpu time    3.19: real time    3.19

 Broyden mixing:
  rms(total) = 0.27315E-01    rms(broyden)= 0.27299E-01
  rms(prec ) = 0.42906E-01
  weight for this iteration     100.00

 eigenvalues of (default mixing * dielectric matrix)
  average eigenvalue GAMMA=   1.7330
  1.0168  2.4491
 
    TRIAL :  cpu time  238.87: real time  238.66
    CORREC:  cpu time    0.00: real time    0.00
    CHARGE:  cpu time    0.10: real time    0.10
    --------------------------------------------
      LOOP:  cpu time  241.00: real time  240.79

 eigenvalue-minimisations  :     0
 total energy-change (2. order) : 0.7552203E+02  (-0.2131880E+03)
 number of electron     112.0001480 magnetization 
 augmentation part       38.9111078 magnetization 

 Free energy of the ion-electron system (eV)
  ---------------------------------------------------
  alpha Z        PSCENC =       339.31929130
  Ewald energy   TEWEN  =     -9064.32840908
  -1/2 Hartree   DENC   =     -8067.45079227
  -exchange  EXHF       =       327.44962167
  -V(xc)+E(xc)   XCENC  =       369.90337925
  PAW double counting   =     16900.55915304   -17393.37443406
  entropy T*S    EENTRO =        -0.00144818
  eigenvalues    EBANDS =     -1657.53946660
  atomic energy  EATOM  =     18320.98302006
  ---------------------------------------------------
  free energy    TOTEN  =        75.52202659 eV

  energy without entropy =       75.52347477  energy(sigma->0) =       75.52250931


--------------------------------------------------------------------------------------------------------




----------------------------------------- Iteration    1(   2)  ---------------------------------------


    POTLOK:  cpu time    0.05: real time    0.05
    SETDIJ:  cpu time    1.95: real time    1.95
 
    SUBROT:  cpu time    1.36: real time    1.36
    SUBROT:  cpu time    0.75: real time    0.75
    SUBROT:  cpu time    0.80: real time    0.80
    SUBROT:  cpu time    0.62: real time    0.62
    --------------------------------------------
    SUBRT+:  cpu time    3.54: real time    3.54

 Broyden mixing:
  rms(total) = 0.27630E-01    rms(broyden)= 0.27620E-01
  rms(prec ) = 0.50505E-01
  weight for this iteration     100.00

 eigenvalues of (default mixing * dielectric matrix)
  average eigenvalue GAMMA=   1.5596
  2.5474  1.2702  0.8610
 
    TRIAL :  cpu time  248.72: real time  248.51
    CORREC:  cpu time    0.00: real time    0.00
    CHARGE:  cpu time    0.10: real time    0.10
    --------------------------------------------
      LOOP:  cpu time  250.83: real time  250.63

 eigenvalue-minimisations  :     0
 total energy-change (2. order) :-0.8390391E+02  (-0.1468871E+03)
 number of electron     112.0001385 magnetization 
 augmentation part       35.4572141 magnetization 

 Free energy of the ion-electron system (eV)
  ---------------------------------------------------
  alpha Z        PSCENC =       339.31929130
  Ewald energy   TEWEN  =     -9064.32840908
  -1/2 Hartree   DENC   =     -8370.66241798
  -exchange  EXHF       =       338.96200299
  -V(xc)+E(xc)   XCENC  =       377.32267474
  PAW double counting   =     17401.21015548   -17940.33136818
  entropy T*S    EENTRO =        -0.00080210
  eigenvalues    EBANDS =     -1410.85538335
  atomic energy  EATOM  =     18320.98302006
  ---------------------------------------------------
  free energy    TOTEN  =        -8.38188221 eV

  energy without entropy =       -8.38108011  energy(sigma->0) =       -8.38161484


--------------------------------------------------------------------------------------------------------




----------------------------------------- Iteration    1(   3)  ---------------------------------------


    POTLOK:  cpu time    0.05: real time    0.05
    SETDIJ:  cpu time    1.98: real time    1.97
 
    SUBROT:  cpu time    0.93: real time    0.93
    SUBROT:  cpu time    0.43: real time    0.43
    SUBROT:  cpu time    0.44: real time    0.44
    SUBROT:  cpu time    0.43: real time    0.43
    --------------------------------------------
    SUBRT+:  cpu time    2.23: real time    2.25

 Broyden mixing:
  rms(total) = 0.28031E-01    rms(broyden)= 0.28020E-01
  rms(prec ) = 0.52275E-01
  weight for this iteration     100.00

 eigenvalues of (default mixing * dielectric matrix)
  average eigenvalue GAMMA=   1.7757
  1.0117  2.4994  1.8161
 
    TRIAL :  cpu time  253.38: real time  253.18
    CORREC:  cpu time    0.00: real time    0.00
    CHARGE:  cpu time    0.06: real time    0.06
    --------------------------------------------
      LOOP:  cpu time  255.47: real time  255.27

 eigenvalue-minimisations  :     0
 total energy-change (2. order) :-0.6844641E+01  (-0.2036090E+03)
 number of electron     112.0001510 magnetization 
 augmentation part       39.6815922 magnetization 

 Free energy of the ion-electron system (eV)
  ---------------------------------------------------
  alpha Z        PSCENC =       339.31929130
  Ewald energy   TEWEN  =     -9064.32840908
  -1/2 Hartree   DENC   =     -7478.96781381
  -exchange  EXHF       =       325.00825079
  -V(xc)+E(xc)   XCENC  =       357.41204299
  PAW double counting   =     15151.54008826   -15581.04074153
  entropy T*S    EENTRO =         0.00009906
  eigenvalues    EBANDS =     -2385.15144987
  atomic energy  EATOM  =     18320.98302006
  ---------------------------------------------------
  free energy    TOTEN  =       -15.22652299 eV

  energy without entropy =      -15.22662205  energy(sigma->0) =      -15.22655601


--------------------------------------------------------------------------------------------------------




----------------------------------------- Iteration    1(   4)  ---------------------------------------


    POTLOK:  cpu time    0.10: real time    0.10
    SETDIJ:  cpu time    2.01: real time    2.01
 
    SUBROT:  cpu time    0.93: real time    0.93
    SUBROT:  cpu time    0.44: real time    0.44
    SUBROT:  cpu time    0.42: real time    0.42
    SUBROT:  cpu time    0.44: real time    0.44
    SUBROT:  cpu time    0.47: real time    0.47
    --------------------------------------------
    SUBRT+:  cpu time    2.70: real time    2.73

 Broyden mixing:
  rms(total) = 0.11371E+00    rms(broyden)= 0.11352E+00
  rms(prec ) = 0.20062E+00
  weight for this iteration     100.00

 eigenvalues of (default mixing * dielectric matrix)
  average eigenvalue GAMMA=   1.2366
  2.5726  1.3227  0.6620  0.3891
 
    TRIAL :  cpu time  252.07: real time  251.87
    CORREC:  cpu time    0.00: real time    0.00
    CHARGE:  cpu time    0.08: real time    0.08
    --------------------------------------------
      LOOP:  cpu time  254.26: real time  254.07

 eigenvalue-minimisations  :     0
 total energy-change (2. order) :-0.7486767E+01  (-0.1072465E+03)
 number of electron     112.0001430 magnetization 
 augmentation part       37.2443343 magnetization 

 Free energy of the ion-electron system (eV)
  ---------------------------------------------------
  alpha Z        PSCENC =       339.31929130
  Ewald energy   TEWEN  =     -9064.32840908
  -1/2 Hartree   DENC   =     -8542.85525017
  -exchange  EXHF       =       342.98980679
  -V(xc)+E(xc)   XCENC  =       381.64045976
  PAW double counting   =     17630.09269673   -18210.66431404
  entropy T*S    EENTRO =         0.00034110
  eigenvalues    EBANDS =     -1219.89069064
  atomic energy  EATOM  =     18320.98302006
  ---------------------------------------------------
  free energy    TOTEN  =       -22.71329022 eV

  energy without entropy =      -22.71363133  energy(sigma->0) =      -22.71340393


--------------------------------------------------------------------------------------------------------




----------------------------------------- Iteration    1(   5)  ---------------------------------------


    POTLOK:  cpu time    0.05: real time    0.05
    SETDIJ:  cpu time    2.01: real time    2.00
 
    SUBROT:  cpu time    1.63: real time    1.63
    SUBROT:  cpu time    0.44: real time    0.44
    SUBROT:  cpu time    0.43: real time    0.44
    SUBROT:  cpu time    0.45: real time    0.45
    --------------------------------------------
    SUBRT+:  cpu time    2.96: real time    2.96

 Broyden mixing:
  rms(total) = 0.44794E-01    rms(broyden)= 0.44784E-01
  rms(prec ) = 0.91269E-01
  weight for this iteration     100.00

 eigenvalues of (default mixing * dielectric matrix)
  average eigenvalue GAMMA=   1.6814
  2.4619  0.9362  1.6459
 
    TRIAL :  cpu time  257.70: real time  257.48
    CORREC:  cpu time    0.00: real time    0.00
    CHARGE:  cpu time    0.05: real time    0.05
    --------------------------------------------
      LOOP:  cpu time  259.81: real time  259.60

 eigenvalue-minimisations  :     0
 total energy-change (2. order) :-0.3810796E+02  (-0.1505468E+02)
 number of electron     112.0001430 magnetization 
 augmentation part       37.2475241 magnetization 

 Free energy of the ion-electron system (eV)
  ---------------------------------------------------
  alpha Z        PSCENC =       339.31929130
  Ewald energy   TEWEN  =     -9064.32840908
  -1/2 Hartree   DENC   =     -8008.68095367
  -exchange  EXHF       =       336.39048222
  -V(xc)+E(xc)   XCENC  =       368.40232366
  PAW double counting   =     15870.45238952   -16339.89554239
  entropy T*S    EENTRO =         0.00064698
  eigenvalues    EBANDS =     -1883.46419078
  atomic energy  EATOM  =     18320.98302006
  ---------------------------------------------------
  free energy    TOTEN  =       -60.82124806 eV

  energy without entropy =      -60.82189504  energy(sigma->0) =      -60.82146372


--------------------------------------------------------------------------------------------------------




----------------------------------------- Iteration    1(   6)  ---------------------------------------


    POTLOK:  cpu time    0.05: real time    0.05
    SETDIJ:  cpu time    2.01: real time    2.01
 
    SUBROT:  cpu time    0.92: real time    0.92
    SUBROT:  cpu time    0.45: real time    0.45
    SUBROT:  cpu time    0.45: real time    0.45
    SUBROT:  cpu time    0.46: real time    0.46
    --------------------------------------------
    SUBRT+:  cpu time    2.28: real time    2.28

 Broyden mixing:
  rms(total) = 0.27525E-02    rms(broyden)= 0.27518E-02
  rms(prec ) = 0.45542E-02
  weight for this iteration     100.00

 eigenvalues of (default mixing * dielectric matrix)
  average eigenvalue GAMMA=   1.8127
  1.0088  1.9024  2.5270
 
    TRIAL :  cpu time  256.85: real time  256.62
    CORREC:  cpu time    0.00: real time    0.00
    CHARGE:  cpu time    0.06: real time    0.06
    --------------------------------------------
      LOOP:  cpu time  258.97: real time  258.75

 eigenvalue-minimisations  :     0
 total energy-change (2. order) :-0.5119900E+01  (-0.8149944E+01)
 number of electron     112.0001460 magnetization 
 augmentation part       38.2270917 magnetization 

 Free energy of the ion-electron system (eV)
  ---------------------------------------------------
  alpha Z        PSCENC =       339.31929130
  Ewald energy   TEWEN  =     -9064.32840908
  -1/2 Hartree   DENC   =     -8002.12365814
  -exchange  EXHF       =       337.15716166
  -V(xc)+E(xc)   XCENC  =       368.79392047
  PAW double counting   =     15772.25936249   -16241.32832678
  entropy T*S    EENTRO =         0.00066125
  eigenvalues    EBANDS =     -1896.67415736
  atomic energy  EATOM  =     18320.98302006
  ---------------------------------------------------
  free energy    TOTEN  =       -65.94114842 eV

  energy without entropy =      -65.94180966  energy(sigma->0) =      -65.94136883


--------------------------------------------------------------------------------------------------------




----------------------------------------- Iteration    1(   7)  ---------------------------------------


    POTLOK:  cpu time    0.07: real time    0.07
    SETDIJ:  cpu time    2.01: real time    2.01
 
    SUBROT:  cpu time    0.96: real time    0.96
    SUBROT:  cpu time    0.43: real time    0.43
    SUBROT:  cpu time    0.43: real time    0.43
    SUBROT:  cpu time    0.44: real time    0.44
    --------------------------------------------
    SUBRT+:  cpu time    2.26: real time    2.27

 Broyden mixing:
  rms(total) = 0.13137E-01    rms(broyden)= 0.13133E-01
  rms(prec ) = 0.23297E-01
  weight for this iteration     100.00

 eigenvalues of (default mixing * dielectric matrix)
  average eigenvalue GAMMA=   1.6167
  2.5023  0.8930  1.4548
 
    TRIAL :  cpu time  254.75: real time  254.53
    CORREC:  cpu time    0.00: real time    0.00
    CHARGE:  cpu time    0.07: real time    0.08
    --------------------------------------------
      LOOP:  cpu time  256.90: real time  256.69

 eigenvalue-minimisations  :     0
 total energy-change (2. order) :-0.1536668E+01  (-0.4125999E+01)
 number of electron     112.0001443 magnetization 
 augmentation part       37.7058794 magnetization 

 Free energy of the ion-electron system (eV)
  ---------------------------------------------------
  alpha Z        PSCENC =       339.31929130
  Ewald energy   TEWEN  =     -9064.32840908
  -1/2 Hartree   DENC   =     -8243.61251173
  -exchange  EXHF       =       341.62174607
  -V(xc)+E(xc)   XCENC  =       374.55699424
  PAW double counting   =     16207.19977940   -16710.51353299
  entropy T*S    EENTRO =         0.00043089
  eigenvalues    EBANDS =     -1632.70485506
  atomic energy  EATOM  =     18320.98302006
  ---------------------------------------------------
  free energy    TOTEN  =       -67.47781654 eV

  energy without entropy =      -67.47824743  energy(sigma->0) =      -67.47796017


--------------------------------------------------------------------------------------------------------




----------------------------------------- Iteration    1(   8)  ---------------------------------------


    POTLOK:  cpu time    0.05: real time    0.05
    SETDIJ:  cpu time    2.01: real time    2.01
 
    SUBROT:  cpu time    0.89: real time    0.89
    SUBROT:  cpu time    0.43: real time    0.43
    SUBROT:  cpu time    0.45: real time    0.45
    SUBROT:  cpu time    0.43: real time    0.43
    --------------------------------------------
    SUBRT+:  cpu time    2.21: real time    2.23

 Broyden mixing:
  rms(total) = 0.83427E-02    rms(broyden)= 0.83403E-02
  rms(prec ) = 0.13992E-01
  weight for this iteration     100.00

 eigenvalues of (default mixing * dielectric matrix)
  average eigenvalue GAMMA=   1.6736
  2.4572  0.9474  1.6162
 
    TRIAL :  cpu time  248.41: real time  248.21
    CORREC:  cpu time    0.00: real time    0.00
    CHARGE:  cpu time    0.08: real time    0.08
    --------------------------------------------
      LOOP:  cpu time  250.55: real time  250.35

 eigenvalue-minimisations  :     0
 total energy-change (2. order) :-0.1607393E+01  (-0.7703288E+00)
 number of electron     112.0001444 magnetization 
 augmentation part       37.7249940 magnetization 

 Free energy of the ion-electron system (eV)
  ---------------------------------------------------
  alpha Z        PSCENC =       339.31929130
  Ewald energy   TEWEN  =     -9064.32840908
  -1/2 Hartree   DENC   =     -8117.14121969
  -exchange  EXHF       =       339.52613998
  -V(xc)+E(xc)   XCENC  =       371.38494279
  PAW double counting   =     15916.51240350   -16397.86239978
  entropy T*S    EENTRO =         0.00072493
  eigenvalues    EBANDS =     -1777.47940973
  atomic energy  EATOM  =     18320.98302006
  ---------------------------------------------------
  free energy    TOTEN  =       -69.08520978 eV

  energy without entropy =      -69.08593470  energy(sigma->0) =      -69.08545142


--------------------------------------------------------------------------------------------------------




----------------------------------------- Iteration    1(   9)  ---------------------------------------


    POTLOK:  cpu time    0.05: real time    0.05
    SETDIJ:  cpu time    2.00: real time    2.00
 
    SUBROT:  cpu time    1.19: real time    1.19
    SUBROT:  cpu time    0.46: real time    0.46
    SUBROT:  cpu time    0.45: real time    0.45
    SUBROT:  cpu time    0.46: real time    0.46
    --------------------------------------------
    SUBRT+:  cpu time    2.56: real time    2.56

 Broyden mixing:
  rms(total) = 0.51798E-03    rms(broyden)= 0.51737E-03
  rms(prec ) = 0.81881E-03
  weight for this iteration     100.00

 eigenvalues of (default mixing * dielectric matrix)
  average eigenvalue GAMMA=   1.6776
  2.5200  1.0000  1.5129
 
    TRIAL :  cpu time  254.30: real time  254.07
    CORREC:  cpu time    0.00: real time    0.00
    CHARGE:  cpu time    0.07: real time    0.08
    --------------------------------------------
      LOOP:  cpu time  256.44: real time  256.22

 eigenvalue-minimisations  :     0
 total energy-change (2. order) :-0.3099656E+00  (-0.3852963E+00)
 number of electron     112.0001450 magnetization 
 augmentation part       37.9056185 magnetization 

 Free energy of the ion-electron system (eV)
  ---------------------------------------------------
  alpha Z        PSCENC =       339.31929130
  Ewald energy   TEWEN  =     -9064.32840908
  -1/2 Hartree   DENC   =     -8124.78875676
  -exchange  EXHF       =       339.60016613
  -V(xc)+E(xc)   XCENC  =       371.44876228
  PAW double counting   =     15912.87180852   -16394.12993171
  entropy T*S    EENTRO =         0.00085773
  eigenvalues    EBANDS =     -1770.37185100
  atomic energy  EATOM  =     18320.98302006
  ---------------------------------------------------
  free energy    TOTEN  =       -69.39517533 eV

  energy without entropy =      -69.39603307  energy(sigma->0) =      -69.39546124


--------------------------------------------------------------------------------------------------------




----------------------------------------- Iteration    1(  10)  ---------------------------------------


    POTLOK:  cpu time    0.06: real time    0.06
    SETDIJ:  cpu time    2.01: real time    2.01
 
    SUBROT:  cpu time    0.91: real time    0.91
    SUBROT:  cpu time    0.46: real time    0.46
    SUBROT:  cpu time    0.47: real time    0.47
    SUBROT:  cpu time    0.46: real time    0.46
    --------------------------------------------
    SUBRT+:  cpu time    2.30: real time    2.33

 Broyden mixing:
  rms(total) = 0.22904E-02    rms(broyden)= 0.22899E-02
  rms(prec ) = 0.38517E-02
  weight for this iteration     100.00

 eigenvalues of (default mixing * dielectric matrix)
  average eigenvalue GAMMA=   1.6822
  2.4760  0.9890  1.5816
 
    TRIAL :  cpu time  249.79: real time  249.60
    CORREC:  cpu time    0.00: real time    0.00
    CHARGE:  cpu time    0.07: real time    0.07
    --------------------------------------------
      LOOP:  cpu time  251.94: real time  251.75

 eigenvalue-minimisations  :     0
 total energy-change (2. order) :-0.1035408E+00  (-0.1519942E+00)
 number of electron     112.0001447 magnetization 
 augmentation part       37.8186575 magnetization 

 Free energy of the ion-electron system (eV)
  ---------------------------------------------------
  alpha Z        PSCENC =       339.31929130
  Ewald energy   TEWEN  =     -9064.32840908
  -1/2 Hartree   DENC   =     -8171.99438427
  -exchange  EXHF       =       340.40056882
  -V(xc)+E(xc)   XCENC  =       372.54200262
  PAW double counting   =     15994.34406030   -16482.31369035
  entropy T*S    EENTRO =         0.00070589
  eigenvalues    EBANDS =     -1718.45203327
  atomic energy  EATOM  =     18320.98302006
  ---------------------------------------------------
  free energy    TOTEN  =       -69.49871615 eV

  energy without entropy =      -69.49942203  energy(sigma->0) =      -69.49895144


--------------------------------------------------------------------------------------------------------




----------------------------------------- Iteration    1(  11)  ---------------------------------------


    POTLOK:  cpu time    0.07: real time    0.07
    SETDIJ:  cpu time    2.00: real time    2.00
 
    SUBROT:  cpu time    0.95: real time    0.95
    SUBROT:  cpu time    0.46: real time    0.46
    SUBROT:  cpu time    0.46: real time    0.46
    SUBROT:  cpu time    0.45: real time    0.45
    --------------------------------------------
    SUBRT+:  cpu time    2.32: real time    2.34

 Broyden mixing:
  rms(total) = 0.77689E-03    rms(broyden)= 0.77664E-03
  rms(prec ) = 0.15562E-02
  weight for this iteration     100.00

 eigenvalues of (default mixing * dielectric matrix)
  average eigenvalue GAMMA=   1.6717
  2.4945  0.9848  1.5359
 
    TRIAL :  cpu time  249.25: real time  249.04
    CORREC:  cpu time    0.00: real time    0.00
    CHARGE:  cpu time    0.09: real time    0.09
    --------------------------------------------
      LOOP:  cpu time  251.41: real time  251.22

 eigenvalue-minimisations  :     0
 total energy-change (2. order) :-0.6946988E-01  (-0.3685298E-01)
 number of electron     112.0001446 magnetization 
 augmentation part       37.7859685 magnetization 

 Free energy of the ion-electron system (eV)
  ---------------------------------------------------
  alpha Z        PSCENC =       339.31929130
  Ewald energy   TEWEN  =     -9064.32840908
  -1/2 Hartree   DENC   =     -8150.67129504
  -exchange  EXHF       =       340.07282451
  -V(xc)+E(xc)   XCENC  =       372.06977918
  PAW double counting   =     15942.41339350   -16427.35148947
  entropy T*S    EENTRO =         0.00059612
  eigenvalues    EBANDS =     -1742.07600688
  atomic energy  EATOM  =     18320.98302006
  ---------------------------------------------------
  free energy    TOTEN  =       -69.56818603 eV

  energy without entropy =      -69.56878215  energy(sigma->0) =      -69.56838473


--------------------------------------------------------------------------------------------------------




----------------------------------------- Iteration    1(  12)  ---------------------------------------


    POTLOK:  cpu time    0.05: real time    0.05
    SETDIJ:  cpu time    2.00: real time    2.00
 
    SUBROT:  cpu time    0.97: real time    0.97
    SUBROT:  cpu time    0.46: real time    0.46
    SUBROT:  cpu time    0.46: real time    0.46
    SUBROT:  cpu time    0.45: real time    0.45
    --------------------------------------------
    SUBRT+:  cpu time    2.35: real time    2.40

 Broyden mixing:
  rms(total) = 0.20789E-03    rms(broyden)= 0.20779E-03
  rms(prec ) = 0.45345E-03
  weight for this iteration     100.00

 eigenvalues of (default mixing * dielectric matrix)
  average eigenvalue GAMMA=   1.6361
  2.5072  0.9992  1.4017
 
    TRIAL :  cpu time  255.02: real time  254.84
    CORREC:  cpu time    0.00: real time    0.00
    CHARGE:  cpu time    0.08: real time    0.08
    --------------------------------------------
      LOOP:  cpu time  257.16: real time  256.98

 eigenvalue-minimisations  :     0
 total energy-change (2. order) :-0.1234756E-01  (-0.2279386E-01)
 number of electron     112.0001447 magnetization 
 augmentation part       37.8261694 magnetization 

 Free energy of the ion-electron system (eV)
  ---------------------------------------------------
  alpha Z        PSCENC =       339.31929130
  Ewald energy   TEWEN  =     -9064.32840908
  -1/2 Hartree   DENC   =     -8142.32586222
  -exchange  EXHF       =       339.95727588
  -V(xc)+E(xc)   XCENC  =       371.89554392
  PAW double counting   =     15920.64123467   -16404.49837361
  entropy T*S    EENTRO =         0.00054520
  eigenvalues    EBANDS =     -1751.22485062
  atomic energy  EATOM  =     18320.98302006
  ---------------------------------------------------
  free energy    TOTEN  =       -69.58053358 eV

  energy without entropy =      -69.58107879  energy(sigma->0) =      -69.58071532


--------------------------------------------------------------------------------------------------------




----------------------------------------- Iteration    1(  13)  ---------------------------------------


    POTLOK:  cpu time    0.18: real time    0.18
    SETDIJ:  cpu time    2.02: real time    2.02
 
    SUBROT:  cpu time    0.98: real time    0.98
    SUBROT:  cpu time    0.47: real time    0.47
    SUBROT:  cpu time    0.46: real time    0.47
    SUBROT:  cpu time    0.46: real time    0.46
    --------------------------------------------
    SUBRT+:  cpu time    2.38: real time    2.38

 Broyden mixing:
  rms(total) = 0.55315E-03    rms(broyden)= 0.55304E-03
  rms(prec ) = 0.94038E-03
  weight for this iteration     100.00

 eigenvalues of (default mixing * dielectric matrix)
  average eigenvalue GAMMA=   1.6933
  2.4806  0.9966  1.6027
 
    TRIAL :  cpu time  259.73: real time  259.50
    CORREC:  cpu time    0.00: real time    0.00
    CHARGE:  cpu time    0.09: real time    0.09
    --------------------------------------------
      LOOP:  cpu time  262.02: real time  261.81

 eigenvalue-minimisations  :     0
 total energy-change (2. order) :-0.9638513E-02  (-0.5113431E-02)
 number of electron     112.0001447 magnetization 
 augmentation part       37.8300603 magnetization 

 Free energy of the ion-electron system (eV)
  ---------------------------------------------------
  alpha Z        PSCENC =       339.31929130
  Ewald energy   TEWEN  =     -9064.32840908
  -1/2 Hartree   DENC   =     -8152.19285266
  -exchange  EXHF       =       340.12928403
  -V(xc)+E(xc)   XCENC  =       372.12889826
  PAW double counting   =     15936.79734637   -16422.14321724
  entropy T*S    EENTRO =         0.00053313
  eigenvalues    EBANDS =     -1740.28407834
  atomic energy  EATOM  =     18320.98302006
  ---------------------------------------------------
  free energy    TOTEN  =       -69.59017210 eV

  energy without entropy =      -69.59070523  energy(sigma->0) =      -69.59034981


--------------------------------------------------------------------------------------------------------




----------------------------------------- Iteration    1(  14)  ---------------------------------------


    POTLOK:  cpu time    0.05: real time    0.05
    SETDIJ:  cpu time    2.01: real time    2.01
 
    SUBROT:  cpu time    0.98: real time    0.98
    SUBROT:  cpu time    0.46: real time    0.46
    SUBROT:  cpu time    0.46: real time    0.46
    SUBROT:  cpu time    0.46: real time    0.46
    --------------------------------------------
    SUBRT+:  cpu time    2.36: real time    2.36

 Broyden mixing:
  rms(total) = 0.68587E-04    rms(broyden)= 0.68573E-04
  rms(prec ) = 0.14019E-03
  weight for this iteration     100.00

 eigenvalues of (default mixing * dielectric matrix)
  average eigenvalue GAMMA=   1.6578
  2.5171  0.9903  1.4661
 
    TRIAL :  cpu time  255.08: real time  254.86
    CORREC:  cpu time    0.00: real time    0.00
    CHARGE:  cpu time    0.09: real time    0.09
    --------------------------------------------
      LOOP:  cpu time  257.24: real time  257.02

 eigenvalue-minimisations  :     0
 total energy-change (2. order) :-0.2451983E-02  (-0.3771665E-02)
 number of electron     112.0001447 magnetization 
 augmentation part       37.8125580 magnetization 

 Free energy of the ion-electron system (eV)
  ---------------------------------------------------
  alpha Z        PSCENC =       339.31929130
  Ewald energy   TEWEN  =     -9064.32840908
  -1/2 Hartree   DENC   =     -8152.72534759
  -exchange  EXHF       =       340.12743724
  -V(xc)+E(xc)   XCENC  =       372.13830644
  PAW double counting   =     15934.75578348   -16420.26433806
  entropy T*S    EENTRO =         0.00055060
  eigenvalues    EBANDS =     -1739.59890100
  atomic energy  EATOM  =     18320.98302006
  ---------------------------------------------------
  free energy    TOTEN  =       -69.59262408 eV

  energy without entropy =      -69.59317468  energy(sigma->0) =      -69.59280761


--------------------------------------------------------------------------------------------------------




----------------------------------------- Iteration    1(  15)  ---------------------------------------


    POTLOK:  cpu time    0.07: real time    0.07
    SETDIJ:  cpu time    2.02: real time    2.01
 
    SUBROT:  cpu time    1.21: real time    1.21
    SUBROT:  cpu time    0.47: real time    0.47
    SUBROT:  cpu time    0.46: real time    0.46
    SUBROT:  cpu time    0.47: real time    0.47
    --------------------------------------------
    SUBRT+:  cpu time    2.62: real time    2.63

 Broyden mixing:
  rms(total) = 0.19319E-03    rms(broyden)= 0.19313E-03
  rms(prec ) = 0.32996E-03
  weight for this iteration     100.00

 eigenvalues of (default mixing * dielectric matrix)
  average eigenvalue GAMMA=   1.6824
  2.4727  0.9894  1.5851
 
    TRIAL :  cpu time  252.76: real time  252.54
    CORREC:  cpu time    0.00: real time    0.00
    CHARGE:  cpu time    0.08: real time    0.08
    --------------------------------------------
      LOOP:  cpu time  254.93: real time  254.72

 eigenvalue-minimisations  :     0
 total energy-change (2. order) :-0.1503258E-02  (-0.1035616E-02)
 number of electron     112.0001447 magnetization 
 augmentation part       37.8168735 magnetization 

 Free energy of the ion-electron system (eV)
  ---------------------------------------------------
  alpha Z        PSCENC =       339.31929130
  Ewald energy   TEWEN  =     -9064.32840908
  -1/2 Hartree   DENC   =     -8148.02677144
  -exchange  EXHF       =       340.03855413
  -V(xc)+E(xc)   XCENC  =       372.02735001
  PAW double counting   =     15922.73557344   -16407.63436232
  entropy T*S    EENTRO =         0.00056320
  eigenvalues    EBANDS =     -1744.70892402
  atomic energy  EATOM  =     18320.98302006
  ---------------------------------------------------
  free energy    TOTEN  =       -69.59412734 eV

  energy without entropy =      -69.59469053  energy(sigma->0) =      -69.59431507


--------------------------------------------------------------------------------------------------------




----------------------------------------- Iteration    1(  16)  ---------------------------------------


    POTLOK:  cpu time    0.05: real time    0.05
    SETDIJ:  cpu time    1.90: real time    1.90
 
    SUBROT:  cpu time    2.44: real time    2.44
    SUBROT:  cpu time    1.19: real time    1.19
    SUBROT:  cpu time    0.66: real time    0.66
    SUBROT:  cpu time    0.65: real time    0.65
    --------------------------------------------
    SUBRT+:  cpu time    4.94: real time    4.95

 Broyden mixing:
  rms(total) = 0.83734E-04    rms(broyden)= 0.83716E-04
  rms(prec ) = 0.13987E-03
  weight for this iteration     100.00

 eigenvalues of (default mixing * dielectric matrix)
  average eigenvalue GAMMA=   1.6880
  2.4861  0.9901  1.5879
 
    TRIAL :  cpu time  258.54: real time  258.32
    CORREC:  cpu time    0.00: real time    0.00
    CHARGE:  cpu time    0.09: real time    0.10
    --------------------------------------------
      LOOP:  cpu time  260.59: real time  260.38

 eigenvalue-minimisations  :     0
 total energy-change (2. order) :-0.5697055E-03  (-0.4086948E-03)
 number of electron     112.0001447 magnetization 
 augmentation part       37.8216741 magnetization 

 Free energy of the ion-electron system (eV)
  ---------------------------------------------------
  alpha Z        PSCENC =       339.31929130
  Ewald energy   TEWEN  =     -9064.32840908
  -1/2 Hartree   DENC   =     -8149.14378354
  -exchange  EXHF       =       340.05710607
  -V(xc)+E(xc)   XCENC  =       372.05449032
  PAW double counting   =     15923.59152570   -16408.67828989
  entropy T*S    EENTRO =         0.00056398
  eigenvalues    EBANDS =     -1743.45021118
  atomic energy  EATOM  =     18320.98302006
  ---------------------------------------------------
  free energy    TOTEN  =       -69.59469704 eV

[...]
     22      -2.2856      2.00000
     23      -1.9533      2.00000
     24      -1.6181      2.00000
     25      -1.2169      2.00000
     26      -1.0058      2.00000
     27      -0.9717      2.00000
     28      -0.7195      2.00000
     29      -0.5465      2.00000
     30      -0.3889      2.00000
     31      -0.2864      2.00000
     32      -0.1974      2.00000
     33      -0.1825      2.00000
     34      -0.1424      2.00000
     35      -0.0227      2.00000
     36       0.0195      2.00000
     37       1.2952      2.00000
     38       1.3075      2.00000
     39       1.3681      2.00000
     40       1.4105      2.00000
     41       1.4502      2.00000
     42       1.4651      2.00000
     43       1.5063      2.00000
     44       1.5489      2.00000
     45       1.7630      2.00000
     46       1.8939      2.00000
     47       1.9807      2.00000
     48       2.1519      2.00000
     49       2.3708      2.00000
     50       2.5762      2.00000
     51       2.7022      2.00000
     52       2.9072      2.00000
     53       3.0108      2.00000
     54       3.2184      2.00000
     55       3.3989      2.00000
     56       3.6534      2.00000
     57       6.3850     -0.00000
     58       6.5174     -0.00000
     59       7.7155      0.00000
     60       7.9092      0.00000
     61       8.3051      0.00000
     62       8.5657      0.00000
     63       9.3216      0.00000
     64       9.8417      0.00000
     65      10.0238      0.00000
     66      10.3578      0.00000
     67      10.5883      0.00000
     68      10.7883      0.00000
     69      10.9760      0.00000
     70      11.2594      0.00000
     71      11.3057      0.00000
     72      11.7014      0.00000
     73      12.2545      0.00000
     74      12.4602      0.00000
     75      13.0970      0.00000
     76      13.4864      0.00000
     77      13.8187      0.00000
     78      14.6973      0.00000
     79      15.0003      0.00000
     80      15.7158      0.00000

 k-point  40 :       0.2500   -0.2500    0.4000
  band No.  band energies     occupation 
      1     -68.6458      2.00000
      2     -68.6454      2.00000
      3     -68.6349      2.00000
      4     -68.6334      2.00000
      5     -68.6145      2.00000
      6     -68.6139      2.00000
      7     -68.5968      2.00000
      8     -68.5966      2.00000
      9     -68.5790      2.00000
     10     -68.5779      2.00000
     11     -68.5618      2.00000
     12     -68.5617      2.00000
     13     -12.2144      2.00000
     14     -11.8120      2.00000
     15     -10.8259      2.00000
     16     -10.6679      2.00000
     17     -10.3582      2.00000
     18     -10.2839      2.00000
     19      -5.4381      2.00000
     20      -5.1156      2.00000
     21      -2.4282      2.00000
     22      -2.1527      2.00000
     23      -2.0141      2.00000
     24      -1.5277      2.00000
     25      -1.3556      2.00000
     26      -1.1636      2.00000
     27      -0.9388      2.00000
     28      -0.8158      2.00000
     29      -0.5837      2.00000
     30      -0.5294      2.00000
     31      -0.2814      2.00000
     32      -0.2397      2.00000
     33      -0.1349      2.00000
     34      -0.0916      2.00000
     35      -0.0257      2.00000
     36       0.0329      2.00000
     37       1.3120      2.00000
     38       1.3445      2.00000
     39       1.3630      2.00000
     40       1.3959      2.00000
     41       1.4509      2.00000
     42       1.4808      2.00000
     43       1.4984      2.00000
     44       1.5648      2.00000
     45       1.8001      2.00000
     46       1.8463      2.00000
     47       1.9594      2.00000
     48       2.1083      2.00000
     49       2.2949      2.00000
     50       2.5308      2.00000
     51       2.6383      2.00000
     52       2.7677      2.00000
     53       2.9257      2.00000
     54       3.1593      2.00000
     55       3.3015      2.00000
     56       3.5712      2.00000
     57       6.5658     -0.00000
     58       6.7198     -0.00000
     59       7.9660      0.00000
     60       8.0106      0.00000
     61       8.7304      0.00000
     62       9.0842      0.00000
     63       9.4609      0.00000
     64       9.8328      0.00000
     65      10.2999      0.00000
     66      10.3668      0.00000
     67      10.7761      0.00000
     68      10.8501      0.00000
     69      11.1141      0.00000
     70      11.2682      0.00000
     71      11.3706      0.00000
     72      11.6202      0.00000
     73      12.0446      0.00000
     74      12.2939      0.00000
     75      12.6486      0.00000
     76      13.1213      0.00000
     77      13.2782      0.00000
     78      14.2431      0.00000
     79      15.6321      0.00000
     80      15.8401      0.00000

 k-point  41 :       0.5000   -0.2500    0.4000
  band No.  band energies     occupation 
      1     -68.6457      2.00000
      2     -68.6453      2.00000
      3     -68.6346      2.00000
      4     -68.6333      2.00000
      5     -68.6144      2.00000
      6     -68.6139      2.00000
      7     -68.5965      2.00000
      8     -68.5965      2.00000
      9     -68.5790      2.00000
     10     -68.5780      2.00000
     11     -68.5615      2.00000
     12     -68.5619      2.00000
     13     -12.0711      2.00000
     14     -11.7707      2.00000
     15     -10.8486      2.00000
     16     -10.7613      2.00000
     17     -10.5405      2.00000
     18     -10.3213      2.00000
     19      -5.4115      2.00000
     20      -4.9376      2.00000
     21      -2.4015      2.00000
     22      -2.1314      2.00000
     23      -1.8585      2.00000
     24      -1.7233      2.00000
     25      -1.4463      2.00000
     26      -1.1293      2.00000
     27      -0.8831      2.00000
     28      -0.6441      2.00000
     29      -0.6010      2.00000
     30      -0.4459      2.00000
     31      -0.2628      2.00000
     32      -0.1857      2.00000
     33      -0.1208      2.00000
     34      -0.0544      2.00000
     35      -0.0223      2.00000
     36       0.0228      2.00000
     37       1.2612      2.00000
     38       1.3151      2.00000
     39       1.4094      2.00000
     40       1.4365      2.00000
     41       1.4833      2.00000
     42       1.4914      2.00000
     43       1.5146      2.00000
     44       1.5743      2.00000
     45       1.7610      2.00000
     46       1.8405      2.00000
     47       2.1188      2.00000
     48       2.1831      2.00000
     49       2.3653      2.00000
     50       2.4606      2.00000
     51       2.4913      2.00000
     52       2.6927      2.00000
     53       2.8219      2.00000
     54       3.0855      2.00000
     55       3.2887      2.00000
     56       3.5222      2.00000
     57       6.4956     -0.00000
     58       6.5913     -0.00000
     59       7.4581      0.00000
     60       7.7147      0.00000
     61       8.5863      0.00000
     62       8.7494      0.00000
     63       9.3070      0.00000
     64       9.5317      0.00000
     65       9.9482      0.00000
     66      10.1866      0.00000
     67      10.6813      0.00000
     68      11.1126      0.00000
     69      11.2522      0.00000
     70      11.5688      0.00000
     71      11.7070      0.00000
     72      11.8931      0.00000
     73      12.2952      0.00000
     74      12.6584      0.00000
     75      13.0080      0.00000
     76      13.2317      0.00000
     77      13.6636      0.00000
     78      14.0660      0.00000
     79      14.3932      0.00000
     80      16.5185      0.00000

 k-point  42 :      -0.2500   -0.2500    0.4000
  band No.  band energies     occupation 
      1     -68.6456      2.00000
      2     -68.6457      2.00000
      3     -68.6345      2.00000
      4     -68.6334      2.00000
      5     -68.6144      2.00000
      6     -68.6140      2.00000
      7     -68.5967      2.00000
      8     -68.5964      2.00000
      9     -68.5789      2.00000
     10     -68.5781      2.00000
     11     -68.5620      2.00000
     12     -68.5617      2.00000
     13     -12.1720      2.00000
     14     -11.6989      2.00000
     15     -10.7213      2.00000
     16     -10.6922      2.00000
     17     -10.5936      2.00000
     18     -10.3991      2.00000
     19      -5.4394      2.00000
     20      -5.0690      2.00000
     21      -2.5076      2.00000
     22      -2.3805      2.00000
     23      -1.9635      2.00000
     24      -1.3650      2.00000
     25      -1.3313      2.00000
     26      -1.0552      2.00000
     27      -0.8309      2.00000
     28      -0.7707      2.00000
     29      -0.4200      2.00000
     30      -0.3339      2.00000
     31      -0.2712      2.00000
     32      -0.2103      2.00000
     33      -0.1470      2.00000
     34      -0.1406      2.00000
     35      -0.0141      2.00000
     36       0.0283      2.00000
     37       1.1724      2.00000
     38       1.3702      2.00000
     39       1.3965      2.00000
     40       1.4522      2.00000
     41       1.4535      2.00000
     42       1.4982      2.00000
     43       1.5164      2.00000
     44       1.5490      2.00000
     45       1.7423      2.00000
     46       1.8208      2.00000
     47       1.9735      2.00000
     48       2.2268      2.00000
     49       2.3988      2.00000
     50       2.6118      2.00000
     51       2.6546      2.00000
     52       2.9134      2.00000
     53       3.0665      2.00000
     54       3.1159      2.00000
     55       3.2846      2.00000
     56       3.5794      2.00000
     57       6.2914     -0.00000
     58       6.3848     -0.00000
     59       7.3567      0.00000
     60       7.5209      0.00000
     61       8.3103      0.00000
     62       8.3380      0.00000
     63       9.1014      0.00000
     64       9.3584      0.00000
     65       9.7164      0.00000
     66       9.9534      0.00000
     67      10.5248      0.00000
     68      10.9916      0.00000
     69      11.4228      0.00000
     70      11.5680      0.00000
     71      12.0214      0.00000
     72      12.2831      0.00000
     73      12.4284      0.00000
     74      12.4738      0.00000
     75      13.0336      0.00000
     76      13.1520      0.00000
     77      14.1406      0.00000
     78      14.4433      0.00000
     79      15.1631      0.00000
     80      15.8691      0.00000


--------------------------------------------------------------------------------------------------------


 soft charge-density along one line, spin component           1
         0         1         2         3         4         5         6         7         8         9
 total charge-density along one line
 
 pseudopotential strength for first ion, spin component:           1
-65.424   0.002   0.006   7.363   0.000  -0.003   0.001   0.007
  0.002 -65.394  -0.005   0.000   7.353   0.001  -0.001  -0.024
  0.006  -0.005 -65.384  -0.003   0.001   7.349  -0.036  -0.001
  7.363   0.000  -0.003   6.110   0.000   0.001   0.002  -0.003
  0.000   7.353   0.001   0.000   6.113  -0.000   0.000   0.007
 -0.003   0.001   7.349   0.001  -0.000   6.114   0.008   0.000
  0.001  -0.001  -0.036   0.002   0.000   0.008  -2.980  -0.003
  0.007  -0.024  -0.001  -0.003   0.007   0.000  -0.003  -2.985
  0.022   0.042   0.009  -0.005  -0.008  -0.003  -0.003   0.008
 -0.001  -0.017   0.007   0.000   0.005  -0.003   0.004   0.007
  0.025   0.000  -0.034  -0.007  -0.000   0.007  -0.000   0.007
  0.001  -0.001  -0.036   0.002   0.000   0.008  -3.626  -0.003
  0.007  -0.023  -0.001  -0.003   0.007   0.000  -0.003  -3.631
  0.022   0.041   0.009  -0.005  -0.008  -0.002  -0.003   0.008
 -0.001  -0.017   0.007   0.000   0.004  -0.003   0.004   0.007
  0.025   0.000  -0.034  -0.007  -0.000   0.006  -0.000   0.007
  0.007  -0.005   0.004  -0.001   0.001  -0.001  -0.002   0.000
  0.015  -0.010   0.009  -0.002   0.001  -0.002  -0.003   0.001
 total augmentation occupancy for first ion, spin component:           1
  2.000  -0.000   0.000  -0.003  -0.000   0.000   0.007  -0.005   0.001  -0.001  -0.005  -0.007   0.005  -0.001   0.001   0.004
 -0.000   2.000  -0.000  -0.000  -0.003   0.000  -0.001   0.005   0.004   0.001   0.000   0.001  -0.005  -0.005  -0.001  -0.000
  0.000  -0.000   2.000   0.000   0.000  -0.003  -0.000  -0.000  -0.001  -0.005  -0.004   0.001   0.000   0.001   0.005   0.005
 -0.003  -0.000   0.000   0.095   0.006  -0.005  -0.334   0.233  -0.074   0.011   0.017   0.281  -0.197   0.058  -0.007  -0.011
 -0.000  -0.003   0.000   0.006   0.102   0.001   0.020  -0.047  -0.444   0.015   0.011  -0.013   0.037   0.377  -0.011  -0.009
  0.000   0.000  -0.003  -0.005   0.001   0.099   0.097  -0.002  -0.013   0.236   0.354  -0.077   0.001   0.011  -0.202  -0.297
  0.007  -0.001  -0.000  -0.334   0.020   0.097   4.009  -0.793   0.096   0.216   0.146  -1.737   0.744  -0.088  -0.182  -0.141
 -0.005   0.005  -0.000   0.233  -0.047  -0.002  -0.793   3.511   0.292   0.158   0.297   0.743  -1.270  -0.215  -0.114  -0.206
  0.001   0.004  -0.001  -0.074  -0.444  -0.013   0.096   0.292   4.691  -0.042  -0.116  -0.088  -0.215  -2.400   0.036   0.086
 -0.001   0.001  -0.005   0.011   0.015   0.236   0.216   0.158  -0.042   3.632   0.797  -0.182  -0.114   0.036  -1.352  -0.759
 -0.005   0.000  -0.004   0.017   0.011   0.354   0.146   0.297  -0.116   0.797   3.996  -0.141  -0.206   0.086  -0.759  -1.742
 -0.007   0.001   0.001   0.281  -0.013  -0.077  -1.737   0.743  -0.088  -0.182  -0.141   1.443  -0.696   0.081   0.154   0.135
  0.005  -0.005   0.000  -0.197   0.037   0.001   0.744  -1.270  -0.215  -0.114  -0.206  -0.696   1.006   0.154   0.079   0.132
 -0.001  -0.005   0.001   0.058   0.377   0.011  -0.088  -0.215  -2.400   0.036   0.086   0.081   0.154   2.084  -0.030  -0.062
  0.001  -0.001   0.005  -0.007  -0.011  -0.202  -0.182  -0.114   0.036  -1.352  -0.759   0.154   0.079  -0.030   1.058   0.721
  0.004  -0.000   0.005  -0.011  -0.009  -0.297  -0.141  -0.206   0.086  -0.759  -1.742   0.135   0.132  -0.062   0.721   1.462
 -0.024   0.016  -0.013  -0.020   0.011  -0.006   0.080  -0.100  -0.023  -0.006   0.025  -0.063   0.088   0.034   0.005   0.005
  0.012  -0.007   0.006   0.001  -0.000  -0.000  -0.009   0.003  -0.004   0.004  -0.019   0.004  -0.005  -0.002  -0.001   0.003


------------------------ aborting loop because EDIFF is reached ----------------------------------------


    FORLOC:  cpu time    0.00: real time    0.00
    FORHF :  cpu time  545.01: real time  544.53
    FORNL :  cpu time    0.39: real time    0.39
    FORCOR:  cpu time    2.07: real time    2.07

 VOLUME and BASIS-vectors are now :
 -----------------------------------------------------------------------------
  energy-cutoff  :      400.00
  volume of cell :      221.90
      direct lattice vectors                 reciprocal lattice vectors
     3.224796000 -5.643830000  0.031572000     0.154525165 -0.088592321  0.053460880
     3.224796000  5.643830000  0.031572000     0.154525165  0.088592321  0.053460880
    -2.101946000  0.000000000  6.075537000    -0.001606004  0.000000000  0.164038877

  length of vectors
     6.500240234  6.500240234  6.428866683     0.185969598  0.185969598  0.164046738


 FORCES acting on ions:
    Electron-Ion                     Ewald-Force                    Non-Local-Force
 -----------------------------------------------------------------------------------------------
   -.145E+02 -.971E+02 0.114E+02   0.133E+02 0.947E+02 -.981E+01   0.102E+01 0.210E+01 -.137E+01
   -.141E+02 0.975E+02 0.115E+02   0.130E+02 -.952E+02 -.988E+01   0.981E+00 -.205E+01 -.143E+01
   0.256E+02 -.171E+02 0.454E+01   -.223E+02 0.169E+02 -.332E+01   -.285E+01 0.165E+00 -.107E+01
   0.255E+02 0.173E+02 0.444E+01   -.223E+02 -.171E+02 -.315E+01   -.278E+01 -.178E+00 -.113E+01
   -.116E+02 -.325E+02 -.113E+02   0.109E+02 0.312E+02 0.102E+02   0.730E+00 0.142E+01 0.115E+01
   -.110E+02 0.316E+02 -.112E+02   0.103E+02 -.302E+02 0.100E+02   0.683E+00 -.134E+01 0.112E+01
   -.135E+03 -.101E+02 -.490E+02   0.132E+03 0.102E+02 0.482E+02   0.274E+01 -.492E-01 0.721E+00
   0.702E+02 -.126E+03 0.962E+02   -.684E+02 0.124E+03 -.942E+02   -.158E+01 0.227E+01 -.188E+01
   0.662E+02 -.132E+03 -.496E+02   -.647E+02 0.130E+03 0.487E+02   -.135E+01 0.213E+01 0.867E+00
   0.705E+02 0.126E+03 0.960E+02   -.688E+02 -.124E+03 -.939E+02   -.157E+01 -.231E+01 -.189E+01
   -.135E+03 0.994E+01 -.492E+02   0.132E+03 -.997E+01 0.484E+02   0.278E+01 0.312E-01 0.730E+00
   0.666E+02 0.133E+03 -.497E+02   -.651E+02 -.130E+03 0.488E+02   -.135E+01 -.217E+01 0.869E+00
 -----------------------------------------------------------------------------------------------
   0.279E+01 -.142E-01 0.374E+01   -.284E-13 0.000E+00 -.568E-13   -.254E+01 0.421E-02 -.331E+01
 
 
 POSITION                                       TOTAL-FORCE (eV/Angst)
 -----------------------------------------------------------------------------------
      2.13385     -2.80652      0.74958        -0.002745     -0.000989     -0.002419
      1.08288      2.80652      3.78735        -0.000522     -0.004048      0.000471
      5.40423     -0.97432      0.77721         0.002641     -0.001789     -0.003059
      4.35326      0.97432      3.81498        -0.002965     -0.000966      0.001364
      1.01585     -0.98197      3.66181         0.069890      0.122937      0.017669
      2.07178      0.97328      0.62409         0.001903     -0.006903      0.020990
      2.15090      4.69667      3.05304        -0.048311     -0.003594     -0.016348
      1.11215     -0.89759      5.98620        -0.003717     -0.014419     -0.002238
      2.14287     -2.74882      3.03886         0.018079     -0.042490     -0.013472
      2.16313      0.89759      2.94844        -0.033419     -0.046762      0.005131
      1.09993     -4.69667      6.09081         0.000280     -0.001063     -0.003936
      1.09189      2.74882      6.07662        -0.001115      0.000085     -0.004153
 -----------------------------------------------------------------------------------
    total drift:                               -0.058956     -0.001076     -0.053983


--------------------------------------------------------------------------------------------------------



  FREE ENERGIE OF THE ION-ELECTRON SYSTEM (eV)
  ---------------------------------------------------
  free  energy   TOTEN  =       -69.59504264 eV

  energy  without entropy=      -69.59560046  energy(sigma->0) =      -69.59522858
 


--------------------------------------------------------------------------------------------------------


    POTLOK:  cpu time    2.08: real time    2.08


--------------------------------------------------------------------------------------------------------


 writing wavefunctions
     LOOP+:  cpu time 5931.77: real time 5930.27
    4ORBIT:  cpu time    0.00: real time    0.00

 total amount of memory used by VASP on root node   155701. kBytes
========================================================================

   base      :      30000. kBytes
   nonl-proj :      74517. kBytes
   fftplans  :        702. kBytes
   grid      :       2400. kBytes
   one-center:        186. kBytes
   HF        :        194. kBytes
   nonlr-proj:       5126. kBytes
   wavefun   :      42576. kBytes
 
  
  
 General timing and accounting informations for this job:
 ========================================================
  
                  Total CPU time used (sec):     5967.725
                            User time (sec):     5964.810
                          System time (sec):        2.915
                         Elapsed time (sec):     5967.076
  
                   Maximum memory used (kb):      302892.
                   Average memory used (kb):           0.
  
                          Minor page faults:        79963
                          Major page faults:            0
                 Voluntary context switches:         3563
