<?xml version="1.0" encoding="ISO-8859-1"?>
<modeling>
 <generator>
  <i name="program" type="string">vasp </i>
  <i name="version" type="string">5.3.3  </i>
  <i name="subversion" type="string">18Dez12 (build Nov 13 2015 09:58:40) complex                          parallel </i>
  <i name="platform" type="string">LinuxIFC </i>
  <i name="date" type="string">2017 10 18 </i>
  <i name="time" type="string">13:05:35 </i>
 </generator>
 <incar>
  <i type="string" name="SYSTEM"> CGS</i>
  <i type="string" name="PREC">normal</i>
  <i type="string" name="ALGO"> D</i>
  <i type="logical" name="LDIAG"> T  </i>
  <i name="EDIFF">      0.00001000</i>
  <i name="ENCUT">    400.00000000</i>
  <i name="TIME">      0.40000000</i>
  <i type="int" name="ISMEAR">     1</i>
  <i name="SIGMA">      0.10000000</i>
  <i type="logical" name="LHFCALC"> T  </i>
  <i type="string" name="GGA"> PE</i>
  <i name="HFSCREEN">      0.20000000</i>
  <i name="AEXX">      0.25000000</i>
  <i type="string" name="PRECFOCK">fast</i>
 </incar>
 <kpoints>
  <generation param="Gamma">
   <v type="int" name="divisions">       4        4        5 </v>
   <v name="usershift">      0.00000000       0.00000000       0.00000000 </v>
   <v name="genvec1">      0.25000000       0.00000000       0.00000000 </v>
   <v name="genvec2">      0.00000000       0.25000000       0.00000000 </v>
   <v name="genvec3">      0.00000000       0.00000000       0.20000000 </v>
   <v name="shift">      0.00000000       0.00000000       0.00000000 </v>
  </generation>
  <varray name="kpointlist" >
   <v>       0.00000000       0.00000000       0.00000000 </v>
   <v>       0.25000000       0.00000000       0.00000000 </v>
   <v>       0.50000000       0.00000000       0.00000000 </v>
   <v>       0.00000000       0.25000000       0.00000000 </v>
   <v>       0.25000000       0.25000000       0.00000000 </v>
   <v>       0.50000000       0.25000000      -0.00000000 </v>
   <v>      -0.25000000       0.25000000       0.00000000 </v>
   <v>       0.00000000       0.50000000       0.00000000 </v>
   <v>       0.25000000       0.50000000      -0.00000000 </v>
   <v>       0.50000000       0.50000000       0.00000000 </v>
   <v>      -0.00000000      -0.00000000       0.20000000 </v>
   <v>       0.25000000       0.00000000       0.20000000 </v>
   <v>       0.50000000       0.00000000       0.20000000 </v>
   <v>      -0.25000000      -0.00000000       0.20000000 </v>
   <v>       0.00000000       0.25000000       0.20000000 </v>
   <v>       0.25000000       0.25000000       0.20000000 </v>
   <v>       0.50000000       0.25000000       0.20000000 </v>
   <v>      -0.25000000       0.25000000       0.20000000 </v>
   <v>       0.00000000       0.50000000       0.20000000 </v>
   <v>       0.25000000       0.50000000       0.20000000 </v>
   <v>       0.50000000       0.50000000       0.20000000 </v>
   <v>      -0.25000000       0.50000000       0.20000000 </v>
   <v>      -0.00000000      -0.25000000       0.20000000 </v>
   <v>       0.25000000      -0.25000000       0.20000000 </v>
   <v>       0.50000000      -0.25000000       0.20000000 </v>
   <v>      -0.25000000      -0.25000000       0.20000000 </v>
   <v>      -0.00000000      -0.00000000       0.40000000 </v>
   <v>       0.25000000       0.00000000       0.40000000 </v>
   <v>       0.50000000       0.00000000       0.40000000 </v>
   <v>      -0.25000000       0.00000000       0.40000000 </v>
   <v>       0.00000000       0.25000000       0.40000000 </v>
   <v>       0.25000000       0.25000000       0.40000000 </v>
   <v>       0.50000000       0.25000000       0.40000000 </v>
   <v>      -0.25000000       0.25000000       0.40000000 </v>
   <v>       0.00000000       0.50000000       0.40000000 </v>
   <v>       0.25000000       0.50000000       0.40000000 </v>
   <v>       0.50000000       0.50000000       0.40000000 </v>
   <v>      -0.25000000       0.50000000       0.40000000 </v>
   <v>       0.00000000      -0.25000000       0.40000000 </v>
   <v>       0.25000000      -0.25000000       0.40000000 </v>
   <v>       0.50000000      -0.25000000       0.40000000 </v>
   <v>      -0.25000000      -0.25000000       0.40000000 </v>
  </varray>
  <varray name="weights" >
   <v>       0.01250000 </v>
   <v>       0.02500000 </v>
   <v>       0.01250000 </v>
   <v>       0.02500000 </v>
   <v>       0.02500000 </v>
   <v>       0.02500000 </v>
   <v>       0.02500000 </v>
   <v>       0.01250000 </v>
   <v>       0.02500000 </v>
   <v>       0.01250000 </v>
   <v>       0.02500000 </v>
   <v>       0.02500000 </v>
   <v>       0.02500000 </v>
   <v>       0.02500000 </v>
   <v>       0.02500000 </v>
   <v>       0.02500000 </v>
   <v>       0.02500000 </v>
   <v>       0.02500000 </v>
   <v>       0.02500000 </v>
   <v>       0.02500000 </v>
   <v>       0.02500000 </v>
   <v>       0.02500000 </v>
   <v>       0.02500000 </v>
   <v>       0.02500000 </v>
   <v>       0.02500000 </v>
   <v>       0.02500000 </v>
   <v>       0.02500000 </v>
   <v>       0.02500000 </v>
   <v>       0.02500000 </v>
   <v>       0.02500000 </v>
   <v>       0.02500000 </v>
   <v>       0.02500000 </v>
   <v>       0.02500000 </v>
   <v>       0.02500000 </v>
   <v>       0.02500000 </v>
   <v>       0.02500000 </v>
   <v>       0.02500000 </v>
   <v>       0.02500000 </v>
   <v>       0.02500000 </v>
   <v>       0.02500000 </v>
   <v>       0.02500000 </v>
   <v>       0.02500000 </v>
  </varray>
 </kpoints>
 <parameters>
  <separator name="general" >
   <i type="string" name="SYSTEM">CGS</i>
   <i type="logical" name="LCOMPAT"> F  </i>
  </separator>
  <separator name="electronic" >
   <i type="string" name="PREC">normal</i>
   <i name="ENMAX">    400.00000000</i>
   <i name="ENAUG">    758.23300000</i>
   <i name="EDIFF">      0.00001000</i>
   <i type="int" name="IALGO">    53</i>
   <i type="int" name="IWAVPR">    10</i>
   <i type="int" name="NBANDS">    80</i>
   <i name="NELECT">    112.00000000</i>
   <i type="int" name="TURBO">     0</i>
   <i type="int" name="IRESTART">     0</i>
   <i type="int" name="NREBOOT">     0</i>
   <i type="int" name="NMIN">     0</i>
   <i name="EREF">      0.00000000</i>
   <separator name="electronic smearing" >
    <i type="int" name="ISMEAR">     1</i>
    <i name="SIGMA">      0.10000000</i>
    <i name="KSPACING">      0.50000000</i>
    <i type="logical" name="KGAMMA"> T  </i>
   </separator>
   <separator name="electronic projectors" >
    <i type="logical" name="LREAL"> F  </i>
    <v name="ROPT">      0.00000000      0.00000000      0.00000000</v>
    <i type="int" name="LMAXPAW">  -100</i>
    <i type="int" name="LMAXMIX">     2</i>
    <i type="logical" name="NLSPLINE"> F  </i>
   </separator>
   <separator name="electronic startup" >
    <i type="int" name="ISTART">     1</i>
    <i type="int" name="ICHARG">     0</i>
    <i type="int" name="INIWAV">     1</i>
   </separator>
   <separator name="electronic spin" >
    <i type="int" name="ISPIN">     1</i>
    <i type="logical" name="LNONCOLLINEAR"> F  </i>
    <v name="MAGMOM">      1.00000000      1.00000000      1.00000000      1.00000000      1.00000000      1.00000000      1.00000000      1.00000000      1.00000000      1.00000000      1.00000000      1.00000000</v>
    <i name="NUPDOWN">     -1.00000000</i>
    <i type="logical" name="LSORBIT"> F  </i>
    <v name="SAXIS">      0.00000000      0.00000000      1.00000000</v>
    <i type="logical" name="LSPIRAL"> F  </i>
    <v name="QSPIRAL">      0.00000000      0.00000000      0.00000000</v>
    <i type="logical" name="LZEROZ"> F  </i>
   </separator>
   <separator name="electronic exchange-correlation" >
    <i type="logical" name="LASPH"> F  </i>
    <i type="logical" name="LMETAGGA"> F  </i>
   </separator>
   <separator name="electronic convergence" >
    <i type="int" name="NELM">    60</i>
    <i type="int" name="NELMDL">     0</i>
    <i type="int" name="NELMIN">     2</i>
    <i name="ENINI">    400.00000000</i>
    <separator name="electronic convergence detail" >
     <i type="logical" name="LDIAG"> T  </i>
     <i type="logical" name="LSUBROT"> T  </i>
     <i name="WEIMIN">      0.00000000</i>
     <i name="EBREAK">      0.00000003</i>
     <i name="DEPER">      0.30000000</i>
     <i type="int" name="NRMM">     4</i>
     <i name="TIME">      0.40000000</i>
    </separator>
   </separator>
   <separator name="electronic mixer" >
    <i name="AMIX">      0.40000000</i>
    <i name="BMIX">      1.00000000</i>
    <i name="AMIN">      0.10000000</i>
    <i name="AMIX_MAG">      1.60000000</i>
    <i name="BMIX_MAG">      1.00000000</i>
    <separator name="electronic mixer details" >
     <i type="int" name="IMIX">     4</i>
     <i type="int" name="MAXMIX">   -45</i>
     <i name="WC">    100.00000000</i>
     <i type="int" name="INIMIX">     1</i>
     <i type="int" name="MIXPRE">     1</i>
     <i type="int" name="MREMOVE">     5</i>
    </separator>
   </separator>
   <separator name="electronic dipolcorrection" >
    <i type="logical" name="LDIPOL"> F  </i>
    <i type="logical" name="LMONO"> F  </i>
    <i type="int" name="IDIPOL">     0</i>
    <i name="EPSILON">      1.00000000</i>
    <v name="DIPOL">   -100.00000000   -100.00000000   -100.00000000</v>
    <i name="EFIELD">      0.00000000</i>
   </separator>
  </separator>
  <separator name="grids" >
   <i type="int" name="NGX">    32</i>
   <i type="int" name="NGY">    32</i>
   <i type="int" name="NGZ">    32</i>
   <i type="int" name="NGXF">    64</i>
   <i type="int" name="NGYF">    64</i>
   <i type="int" name="NGZF">    64</i>
   <i type="logical" name="ADDGRID"> F  </i>
  </separator>
  <separator name="ionic" >
   <i type="int" name="NSW">     0</i>
   <i type="int" name="IBRION">    -1</i>
   <i type="int" name="ISIF">     0</i>
   <i name="PSTRESS">      0.00000000</i>
   <i name="EDIFFG">      0.00010000</i>
   <i type="int" name="NFREE">     0</i>
   <i name="POTIM">      0.50000000</i>
   <i name="SMASS">     -3.00000000</i>
   <i name="SCALEE">      1.00000000</i>
  </separator>
  <separator name="ionic md" >
   <i name="TEBEG">      0.00010000</i>
   <i name="TEEND">      0.00010000</i>
   <i type="int" name="NBLOCK">     1</i>
   <i type="int" name="KBLOCK">     1</i>
   <i type="int" name="NPACO">   256</i>
   <i name="APACO">     16.00000000</i>
  </separator>
  <separator name="symmetry" >
   <i type="int" name="ISYM">     3</i>
   <i name="SYMPREC">      0.00001000</i>
  </separator>
  <separator name="dos" >
   <i type="logical" name="LORBIT"> F  </i>
   <v name="RWIGS">     -1.00000000     -1.00000000     -1.00000000</v>
   <i type="int" name="NEDOS">   301</i>
   <i name="EMIN">     10.00000000</i>
   <i name="EMAX">    -10.00000000</i>
   <i name="EFERMI">      0.00000000</i>
  </separator>
  <separator name="writing" >
   <i type="int" name="NWRITE">     2</i>
   <i type="logical" name="LWAVE"> T  </i>
   <i type="logical" name="LCHARG"> T  </i>
   <i type="logical" name="LPARD"> F  </i>
   <i type="logical" name="LVTOT"> F  </i>
   <i type="logical" name="LVHAR"> F  </i>
   <i type="logical" name="LELF"> F  </i>
   <i type="logical" name="LOPTICS"> F  </i>
   <v name="STM">      0.00000000      0.00000000      0.00000000      0.00000000      0.00000000      0.00000000      0.00000000</v>
  </separator>
  <separator name="performance" >
   <i type="int" name="NPAR">    16</i>
   <i type="int" name="NSIM">     4</i>
   <i type="int" name="NBLK">    -1</i>
   <i type="logical" name="LPLANE"> T  </i>
   <i type="logical" name="LSCALAPACK"> T  </i>
   <i type="logical" name="LSCAAWARE"> F  </i>
   <i type="logical" name="LSCALU"> F  </i>
   <i type="logical" name="LASYNC"> F  </i>
   <i type="logical" name="LORBITALREAL"> F  </i>
  </separator>
  <separator name="miscellaneous" >
   <i type="int" name="IDIOT">     3</i>
   <i type="logical" name="LMUSIC"> F  </i>
   <v name="POMASS">     63.54600000     72.61000000     32.06600000</v>
   <v name="DARWINR">      0.00000000      0.00000000      0.00000000</v>
   <v name="DARWINV">      1.00000000      1.00000000      1.00000000</v>
   <i type="logical" name="LCORR"> T  </i>
  </separator>
  <i type="logical" name="GGA_COMPAT"> T  </i>
  <i type="logical" name="LBERRY"> F  </i>
  <i type="int" name="ICORELEVEL">     0</i>
  <i type="logical" name="LDAU"> F  </i>
  <i type="int" name="I_CONSTRAINED_M">     0</i>
  <separator name="electronic exchange-correlation" >
   <i type="string" name="GGA">PE</i>
   <i type="int" name="VOSKOWN">     0</i>
   <i type="logical" name="LHFCALC"> T  </i>
   <i type="string" name="PRECFOCK">fast</i>
   <i type="logical" name="LSYMGRAD"> F  </i>
   <i type="logical" name="LHFONE"> F  </i>
   <i type="logical" name="LRHFCALC"> F  </i>
   <i type="logical" name="LTHOMAS"> F  </i>
   <i type="logical" name="LMODELHF"> F  </i>
   <i name="ENCUT4O">     -1.00000000</i>
   <i type="int" name="EXXOEP">     0</i>
   <i type="int" name="FOURORBIT">     0</i>
   <i name="AEXX">      0.25000000</i>
   <i name="HFALPHA">     -1.00000000</i>
   <i name="MCALPHA">      0.00000000</i>
   <i name="ALDAX">      0.75000000</i>
   <i name="AGGAX">      0.75000000</i>
   <i name="ALDAC">      1.00000000</i>
   <i name="AGGAC">      1.00000000</i>
   <i type="int" name="NKREDX">     1</i>
   <i type="int" name="NKREDY">     1</i>
   <i type="int" name="NKREDZ">     1</i>
   <i type="logical" name="SHIFTRED"> F  </i>
   <i type="logical" name="ODDONLY"> F  </i>
   <i type="logical" name="EVENONLY"> F  </i>
   <i type="int" name="LMAXFOCK">     4</i>
   <i type="int" name="NMAXFOCKAE">     1</i>
   <i type="logical" name="LFOCKAEDFT"> F  </i>
   <i name="HFSCREEN">      0.20000000</i>
   <i name="HFSCREENC">      0.20000000</i>
   <i type="int" name="NBANDSGWLOW">     1</i>
  </separator>
  <separator name="vdW DFT" >
   <i type="logical" name="LUSE_VDW"> F  </i>
   <i name="Zab_VDW">     -0.84910000</i>
   <i name="PARAM1">      0.12340000</i>
   <i name="PARAM2">      1.00000000</i>
   <i name="PARAM3">      0.00000000</i>
  </separator>
  <separator name="model GW" >
   <i type="int" name="MODEL_GW">     0</i>
   <i name="MODEL_EPS0">     11.09505304</i>
   <i name="MODEL_ALPHA">      1.00000000</i>
  </separator>
  <separator name="linear response parameters" >
   <i type="logical" name="LEPSILON"> F  </i>
   <i type="logical" name="LRPA"> F  </i>
   <i type="logical" name="LNABLA"> F  </i>
   <i type="logical" name="LVEL"> F  </i>
   <i type="int" name="KINTER">     0</i>
   <i name="CSHIFT">      0.10000000</i>
   <i name="OMEGAMAX">     -1.00000000</i>
   <i name="DEG_THRESHOLD">      0.00200000</i>
  </separator>
  <separator name="orbital magnetization" >
   <i type="logical" name="NUCIND"> F  </i>
   <v name="MAGPOS">      0.00000000      0.00000000      0.00000000</v>
   <i type="logical" name="LNICSALL"> T  </i>
   <i type="logical" name="ORBITALMAG"> F  </i>
   <i type="logical" name="LMAGBLOCH"> F  </i>
   <i type="logical" name="LCHIMAG"> F  </i>
   <i type="logical" name="LGAUGE"> T  </i>
   <i type="int" name="MAGATOM">     0</i>
   <v name="MAGDIPOL">      0.00000000      0.00000000      0.00000000</v>
   <v name="AVECCONST">      0.00000000      0.00000000      0.00000000</v>
  </separator>
  <separator name="response functions" >
   <i type="logical" name="LADDER"> F  </i>
   <i type="logical" name="LFXC"> F  </i>
   <i type="logical" name="LHARTREE"> T  </i>
   <i type="int" name="IBSE">     0</i>
   <i type="logical" name="LTCTE"> F  </i>
   <i type="logical" name="LTETE"> F  </i>
   <i type="logical" name="LTRIPLET"> F  </i>
   <i type="logical" name="LFXCEPS"> F  </i>
   <i type="logical" name="L2ORDER"> F  </i>
   <i type="logical" name="LUSEW"> F  </i>
   <i name="ENCUTGW">     -2.00000000</i>
   <i name="ENCUTGWSOFT">     -2.00000000</i>
   <i name="ENCUTLF">     -1.00000000</i>
   <i type="int" name="LMAXMP2">    -1</i>
   <i name="SCISSOR">      0.00000000</i>
   <i type="int" name="NOMEGA">     0</i>
   <i type="int" name="NOMEGAR">     0</i>
   <i type="int" name="NBANDSGW">    -1</i>
   <i type="int" name="NBANDSO">    -1</i>
   <i type="int" name="NBANDSV">    -1</i>
   <i type="int" name="NELM">     1</i>
   <i type="int" name="DIM">     3</i>
   <i type="int" name="ANTIRES">     0</i>
   <i name="OMEGAMAX">    -30.00000000</i>
   <i name="OMEGATL">   -200.00000000</i>
   <i type="int" name="OMEGAGRID">     0</i>
   <i name="CSHIFT">     -0.10000000</i>
   <i type="logical" name="SELFENERGY"> F  </i>
   <i type="logical" name="LSPECTRAL"> F  </i>
   <i type="logical" name="ODDONLYGW"> F  </i>
   <i type="logical" name="EVENONLYGW"> F  </i>
   <i type="int" name="NKREDLFX">     1</i>
   <i type="int" name="NKREDLFY">     1</i>
   <i type="int" name="NKREDLFZ">     1</i>
   <i type="int" name="MAXMEM">  1800</i>
   <i type="int" name="TELESCOPE">     0</i>
  </separator>
 </parameters>
 <atominfo>
  <atoms>      12 </atoms>
  <types>       3 </types>
  <array name="atoms" >
   <dimension dim="1">ion</dimension>
   <field type="string">element</field>
   <field type="int">atomtype</field>
   <set>
    <rc><c>Cu</c><c>   1</c></rc>
    <rc><c>Cu</c><c>   1</c></rc>
    <rc><c>Cu</c><c>   1</c></rc>
    <rc><c>Cu</c><c>   1</c></rc>
    <rc><c>Ge</c><c>   2</c></rc>
    <rc><c>Ge</c><c>   2</c></rc>
    <rc><c>S </c><c>   3</c></rc>
    <rc><c>S </c><c>   3</c></rc>
    <rc><c>S </c><c>   3</c></rc>
    <rc><c>S </c><c>   3</c></rc>
    <rc><c>S </c><c>   3</c></rc>
    <rc><c>S </c><c>   3</c></rc>
   </set>
  </array>
  <array name="atomtypes" >
   <dimension dim="1">type</dimension>
   <field type="int">atomspertype</field>
   <field type="string">element</field>
   <field>mass</field>
   <field>valence</field>
   <field type="string">pseudopotential</field>
   <set>
    <rc><c>   4</c><c>Cu</c><c>     63.54600000</c><c>     17.00000000</c><c>  PAW_PBE Cu_pv 06Sep2000               </c></rc>
    <rc><c>   2</c><c>Ge</c><c>     72.61000000</c><c>      4.00000000</c><c>  PAW_PBE Ge 05Jan2001                  </c></rc>
    <rc><c>   6</c><c>S </c><c>     32.06600000</c><c>      6.00000000</c><c>  PAW_PBE S 17Jan2003                   </c></rc>
   </set>
  </array>
 </atominfo>
 <structure name="initialpos" >
  <crystal>
   <varray name="basis" >
    <v>       3.22479600      -5.64383000       0.03157200 </v>
    <v>       3.22479600       5.64383000       0.03157200 </v>
    <v>      -2.10194600       0.00000000       6.07553700 </v>
   </varray>
   <i name="volume">    221.90106089 </i>
   <varray name="rec_basis" >
    <v>       0.15452516      -0.08859232       0.05346088 </v>
    <v>       0.15452516       0.08859232       0.05346088 </v>
    <v>      -0.00160600       0.00000000       0.16403888 </v>
   </varray>
  </crystal>
  <varray name="positions" >
   <v>       0.61844300       0.12117100       0.11953300 </v>
   <v>       0.12117100       0.61844300       0.61953300 </v>
   <v>       0.96295700       0.79032200       0.11881300 </v>
   <v>       0.79032200       0.96295700       0.61881300 </v>
   <v>       0.43973200       0.26574260       0.59904700 </v>
   <v>       0.26728100       0.43973200       0.09904700 </v>
   <v>       0.07949800       0.91167500       0.49736300 </v>
   <v>       0.57140300       0.41236400       0.98018400 </v>
   <v>       0.73711100       0.25006200       0.49504900 </v>
   <v>       0.41236400       0.57140300       0.48018400 </v>
   <v>       0.91167500       0.07949800       0.99736300 </v>
   <v>       0.25006200       0.73711100       0.99504900 </v>
  </varray>
 </structure>
 <calculation>
  <scstep>
   <time name="total">  241.00  240.79</time>
   <energy>
    <i name="alphaZ">    339.31929130 </i>
    <i name="ewald">  -9064.32840908 </i>
    <i name="hartreedc">  -8067.45079227 </i>
    <i name="XCdc">    369.90337925 </i>
    <i name="pawpsdc">  16900.55915304 </i>
    <i name="pawaedc"> -17393.37443406 </i>
    <i name="eentropy">     -0.00144818 </i>
    <i name="bandstr">  -1657.53946660 </i>
    <i name="atom">  18320.98302006 </i>
    <i name="e_fr_energy">     75.52202659 </i>
    <i name="e_wo_entrp">     75.52347477 </i>
    <i name="e_0_energy">     75.52250931 </i>
   </energy>
  </scstep>
  <scstep>
   <time name="total">  250.83  250.63</time>
   <energy>
    <i name="e_fr_energy">     -8.38188221 </i>
    <i name="e_wo_entrp">     -8.38108011 </i>
    <i name="e_0_energy">     -8.38161484 </i>
   </energy>
  </scstep>
  <scstep>
   <time name="total">  255.47  255.27</time>
   <energy>
    <i name="e_fr_energy">    -15.22652299 </i>
    <i name="e_wo_entrp">    -15.22662205 </i>
    <i name="e_0_energy">    -15.22655601 </i>
   </energy>
  </scstep>
  <scstep>
   <time name="total">  254.26  254.07</time>
   <energy>
    <i name="e_fr_energy">    -22.71329022 </i>
    <i name="e_wo_entrp">    -22.71363133 </i>
    <i name="e_0_energy">    -22.71340393 </i>
   </energy>
  </scstep>
  <scstep>
   <time name="total">  259.81  259.60</time>
   <energy>
    <i name="e_fr_energy">    -60.82124806 </i>
    <i name="e_wo_entrp">    -60.82189504 </i>
    <i name="e_0_energy">    -60.82146372 </i>
   </energy>
  </scstep>
  <scstep>
   <time name="total">  258.97  258.75</time>
   <energy>
    <i name="e_fr_energy">    -65.94114842 </i>
    <i name="e_wo_entrp">    -65.94180966 </i>
    <i name="e_0_energy">    -65.94136883 </i>
   </energy>
  </scstep>
  <scstep>
   <time name="total">  256.90  256.69</time>
   <energy>
    <i name="e_fr_energy">    -67.47781654 </i>
    <i name="e_wo_entrp">    -67.47824743 </i>
    <i name="e_0_energy">    -67.47796017 </i>
   </energy>
  </scstep>
  <scstep>
   <time name="total">  250.55  250.35</time>
   <energy>
    <i name="e_fr_energy">    -69.08520978 </i>
    <i name="e_wo_entrp">    -69.08593470 </i>
    <i name="e_0_energy">    -69.08545142 </i>
   </energy>
  </scstep>
  <scstep>
   <time name="total">  256.44  256.22</time>
   <energy>
    <i name="e_fr_energy">    -69.39517533 </i>
    <i name="e_wo_entrp">    -69.39603307 </i>
    <i name="e_0_energy">    -69.39546124 </i>
   </energy>
  </scstep>
  <scstep>
   <time name="total">  251.94  251.75</time>
   <energy>
    <i name="e_fr_energy">    -69.49871615 </i>
    <i name="e_wo_entrp">    -69.49942203 </i>
    <i name="e_0_energy">    -69.49895144 </i>
   </energy>
  </scstep>
  <scstep>
   <time name="total">  251.41  251.22</time>
   <energy>
    <i name="e_fr_energy">    -69.56818603 </i>
    <i name="e_wo_entrp">    -69.56878215 </i>
    <i name="e_0_energy">    -69.56838473 </i>
   </energy>
  </scstep>
  <scstep>
   <time name="total">  257.16  256.98</time>
   <energy>
    <i name="e_fr_energy">    -69.58053358 </i>
    <i name="e_wo_entrp">    -69.58107879 </i>
    <i name="e_0_energy">    -69.58071532 </i>
   </energy>
  </scstep>
  <scstep>
   <time name="total">  262.02  261.81</time>
   <energy>
    <i name="e_fr_energy">    -69.59017210 </i>
    <i name="e_wo_entrp">    -69.59070523 </i>
    <i name="e_0_energy">    -69.59034981 </i>
   </energy>
  </scstep>
  <scstep>
   <time name="total">  257.24  257.02</time>
   <energy>
    <i name="e_fr_energy">    -69.59262408 </i>
    <i name="e_wo_entrp">    -69.59317468 </i>
    <i name="e_0_energy">    -69.59280761 </i>
   </energy>
  </scstep>
  <scstep>
   <time name="total">  254.93  254.72</time>
   <energy>
    <i name="e_fr_energy">    -69.59412734 </i>
    <i name="e_wo_entrp">    -69.59469053 </i>
    <i name="e_0_energy">    -69.59431507 </i>
   </energy>
  </scstep>
  <scstep>
   <time name="total">  260.59  260.38</time>
   <energy>
    <i name="e_fr_energy">    -69.59469704 </i>
    <i name="e_wo_entrp">    -69.59526102 </i>
    <i name="e_0_energy">    -69.59488504 </i>
   </energy>
  </scstep>
  <scstep>
   <time name="total">  257.91  257.69</time>
   <energy>
    <i name="e_fr_energy">    -69.59486992 </i>
    <i name="e_wo_entrp">    -69.59543108 </i>
    <i name="e_0_energy">    -69.59505697 </i>
   </energy>
  </scstep>
  <scstep>
   <time name="total">  264.14  263.93</time>
   <energy>
    <i name="e_fr_energy">    -69.59498665 </i>
    <i name="e_wo_entrp">    -69.59554494 </i>
    <i name="e_0_energy">    -69.59517275 </i>
   </energy>
  </scstep>
  <scstep>
   <time name="total">  258.58  258.38</time>
   <energy>
    <i name="e_fr_energy">    -69.59501556 </i>
    <i name="e_wo_entrp">    -69.59557244 </i>
    <i name="e_0_energy">    -69.59520119 </i>
   </energy>
  </scstep>
  <scstep>
   <time name="total">  261.77  261.58</time>
   <energy>
    <i name="e_fr_energy">    -69.59503527 </i>
    <i name="e_wo_entrp">    -69.59559250 </i>
    <i name="e_0_energy">    -69.59522101 </i>
   </energy>
  </scstep>
  <scstep>
   <time name="total">  258.85  258.63</time>
   <energy>
    <i name="alphaZ">    339.31929130 </i>
    <i name="ewald">  -9064.32840908 </i>
    <i name="hartreedc">  -8149.73541773 </i>
    <i name="XCdc">    372.07002776 </i>
    <i name="pawpsdc">  15922.16494804 </i>
    <i name="pawaedc"> -16407.35203177 </i>
    <i name="eentropy">      0.00055782 </i>
    <i name="bandstr">  -1742.78572875 </i>
    <i name="atom">  18320.98302006 </i>
    <i name="e_fr_energy">    -69.59504264 </i>
    <i name="e_wo_entrp">    -69.59560046 </i>
    <i name="e_0_energy">    -69.59522858 </i>
   </energy>
  </scstep>
  <structure>
   <crystal>
    <varray name="basis" >
     <v>       3.22479600      -5.64383000       0.03157200 </v>
     <v>       3.22479600       5.64383000       0.03157200 </v>
     <v>      -2.10194600       0.00000000       6.07553700 </v>
    </varray>
    <i name="volume">    221.90106089 </i>
    <varray name="rec_basis" >
     <v>       0.15452516      -0.08859232       0.05346088 </v>
     <v>       0.15452516       0.08859232       0.05346088 </v>
     <v>      -0.00160600       0.00000000       0.16403888 </v>
    </varray>
   </crystal>
   <varray name="positions" >
    <v>       0.61844300       0.12117100       0.11953300 </v>
    <v>       0.12117100       0.61844300       0.61953300 </v>
    <v>       0.96295700       0.79032200       0.11881300 </v>
    <v>       0.79032200       0.96295700       0.61881300 </v>
    <v>       0.43973200       0.26574260       0.59904700 </v>
    <v>       0.26728100       0.43973200       0.09904700 </v>
    <v>       0.07949800       0.91167500       0.49736300 </v>
    <v>       0.57140300       0.41236400       0.98018400 </v>
    <v>       0.73711100       0.25006200       0.49504900 </v>
    <v>       0.41236400       0.57140300       0.48018400 </v>
    <v>       0.91167500       0.07949800       0.99736300 </v>
    <v>       0.25006200       0.73711100       0.99504900 </v>
   </varray>
  </structure>
  <varray name="forces" >
   <v>      -0.00274453      -0.00098873      -0.00241924 </v>
   <v>      -0.00052216      -0.00404801       0.00047062 </v>
   <v>       0.00264090      -0.00178853      -0.00305908 </v>
   <v>      -0.00296514      -0.00096610       0.00136399 </v>
   <v>       0.06989041       0.12293687       0.01766904 </v>
   <v>       0.00190300      -0.00690295       0.02098989 </v>
   <v>      -0.04831080      -0.00359401      -0.01634756 </v>
   <v>      -0.00371672      -0.01441881      -0.00223833 </v>
   <v>       0.01807902      -0.04248979      -0.01347212 </v>
   <v>      -0.03341896      -0.04676191       0.00513146 </v>
   <v>       0.00028039      -0.00106286      -0.00393556 </v>
   <v>      -0.00111543       0.00008483      -0.00415313 </v>
  </varray>
  <energy>
   <i name="e_fr_energy">    -69.59504264 </i>
   <i name="e_wo_entrp">    -69.59522858 </i>
   <i name="e_0_energy">      0.00055782 </i>
  </energy>
  <time name="totalsc"> 5931.77 5930.27</time>
  <eigenvalues>
   <array>
    <dimension dim="1">band</dimension>
    <dimension dim="2">kpoint</dimension>
    <dimension dim="3">spin</dimension>
    <field>eigene</field>
    <field>occ</field>
    <set>
     <set comment="spin 1">
      <set comment="kpoint 1">
       <r>  -68.6460    1.0000 </r>
       <r>  -68.6456    1.0000 </r>
       <r>  -68.6349    1.0000 </r>
       <r>  -68.6335    1.0000 </r>
       <r>  -68.6147    1.0000 </r>
       <r>  -68.6140    1.0000 </r>
       <r>  -68.5968    1.0000 </r>
       <r>  -68.5966    1.0000 </r>
       <r>  -68.5792    1.0000 </r>
       <r>  -68.5781    1.0000 </r>
       <r>  -68.5620    1.0000 </r>
       <r>  -68.5619    1.0000 </r>
       <r>  -12.7146    1.0000 </r>
       <r>  -11.1332    1.0000 </r>
       <r>  -10.9100    1.0000 </r>
       <r>  -10.6014    1.0000 </r>
       <r>  -10.2630    1.0000 </r>
       <r>  -10.2392    1.0000 </r>
       <r>   -5.9744    1.0000 </r>
       <r>   -4.9854    1.0000 </r>
       <r>   -2.7581    1.0000 </r>
       <r>   -2.2026    1.0000 </r>
       <r>   -2.0707    1.0000 </r>
       <r>   -1.9239    1.0000 </r>
       <r>   -1.5764    1.0000 </r>
       <r>   -0.9852    1.0000 </r>
       <r>   -0.9515    1.0000 </r>
       <r>   -0.6858    1.0000 </r>
       <r>   -0.4008    1.0000 </r>
       <r>   -0.2757    1.0000 </r>
       <r>   -0.2625    1.0000 </r>
       <r>   -0.2353    1.0000 </r>
       <r>   -0.1892    1.0000 </r>
       <r>   -0.1549    1.0000 </r>
       <r>   -0.0451    1.0000 </r>
       <r>    0.0307    1.0000 </r>
       <r>    1.3494    1.0000 </r>
       <r>    1.3620    1.0000 </r>
       <r>    1.4127    1.0000 </r>
       <r>    1.4559    1.0000 </r>
       <r>    1.4704    1.0000 </r>
       <r>    1.4726    1.0000 </r>
       <r>    1.5190    1.0000 </r>
       <r>    1.5317    1.0000 </r>
       <r>    1.5741    1.0000 </r>
       <r>    1.7109    1.0000 </r>
       <r>    1.8909    1.0000 </r>
       <r>    1.9275    1.0000 </r>
       <r>    2.0596    1.0000 </r>
       <r>    2.6484    1.0000 </r>
       <r>    2.7264    1.0000 </r>
       <r>    3.0921    1.0000 </r>
       <r>    3.2166    1.0000 </r>
       <r>    4.0055    1.0050 </r>
       <r>    4.0348    1.0127 </r>
       <r>    4.1703    0.8641 </r>
       <r>    5.5407   -0.0000 </r>
       <r>    6.3596   -0.0000 </r>
       <r>    7.6268    0.0000 </r>
       <r>    7.9913    0.0000 </r>
       <r>    8.6158    0.0000 </r>
       <r>    8.7883    0.0000 </r>
       <r>    9.5794    0.0000 </r>
       <r>    9.7403    0.0000 </r>
       <r>    9.8270    0.0000 </r>
       <r>   10.4174    0.0000 </r>
       <r>   10.5789    0.0000 </r>
       <r>   10.6998    0.0000 </r>
       <r>   10.7172    0.0000 </r>
       <r>   11.2819    0.0000 </r>
       <r>   11.7090    0.0000 </r>
       <r>   12.3909    0.0000 </r>
       <r>   12.4525    0.0000 </r>
       <r>   12.7289    0.0000 </r>
       <r>   13.3177    0.0000 </r>
       <r>   13.3839    0.0000 </r>
       <r>   13.8365    0.0000 </r>
       <r>   13.8826    0.0000 </r>
       <r>   14.1439    0.0000 </r>
       <r>   14.1822    0.0000 </r>
      </set>
      <set comment="kpoint 2">
       <r>  -68.6460    1.0000 </r>
       <r>  -68.6455    1.0000 </r>
       <r>  -68.6349    1.0000 </r>
       <r>  -68.6335    1.0000 </r>
       <r>  -68.6146    1.0000 </r>
       <r>  -68.6139    1.0000 </r>
       <r>  -68.5968    1.0000 </r>
       <r>  -68.5966    1.0000 </r>
       <r>  -68.5791    1.0000 </r>
       <r>  -68.5780    1.0000 </r>
       <r>  -68.5619    1.0000 </r>
       <r>  -68.5619    1.0000 </r>
       <r>  -12.5884    1.0000 </r>
       <r>  -11.1333    1.0000 </r>
       <r>  -10.9730    1.0000 </r>
       <r>  -10.6799    1.0000 </r>
       <r>  -10.3722    1.0000 </r>
       <r>  -10.2840    1.0000 </r>
       <r>   -5.9226    1.0000 </r>
       <r>   -4.7738    1.0000 </r>
       <r>   -2.6415    1.0000 </r>
       <r>   -2.2478    1.0000 </r>
       <r>   -2.0876    1.0000 </r>
       <r>   -1.6898    1.0000 </r>
       <r>   -1.3493    1.0000 </r>
       <r>   -1.0028    1.0000 </r>
       <r>   -0.7689    1.0000 </r>
       <r>   -0.6221    1.0000 </r>
       <r>   -0.5508    1.0000 </r>
       <r>   -0.4387    1.0000 </r>
       <r>   -0.3661    1.0000 </r>
       <r>   -0.2396    1.0000 </r>
       <r>   -0.1920    1.0000 </r>
       <r>   -0.1693    1.0000 </r>
       <r>   -0.0487    1.0000 </r>
       <r>    0.0389    1.0000 </r>
       <r>    1.2782    1.0000 </r>
       <r>    1.3345    1.0000 </r>
       <r>    1.3535    1.0000 </r>
       <r>    1.3909    1.0000 </r>
       <r>    1.4262    1.0000 </r>
       <r>    1.4711    1.0000 </r>
       <r>    1.4972    1.0000 </r>
       <r>    1.5288    1.0000 </r>
       <r>    1.7245    1.0000 </r>
       <r>    1.8578    1.0000 </r>
       <r>    2.0570    1.0000 </r>
       <r>    2.0960    1.0000 </r>
       <r>    2.2296    1.0000 </r>
       <r>    2.4120    1.0000 </r>
       <r>    2.5541    1.0000 </r>
       <r>    2.8256    1.0000 </r>
       <r>    2.9481    1.0000 </r>
       <r>    3.2406    1.0000 </r>
       <r>    3.6614    1.0000 </r>
       <r>    4.0386    1.0142 </r>
       <r>    6.1750   -0.0000 </r>
       <r>    6.9071   -0.0000 </r>
       <r>    8.1275    0.0000 </r>
       <r>    8.2736    0.0000 </r>
       <r>    8.6004    0.0000 </r>
       <r>    9.0061    0.0000 </r>
       <r>    9.2444    0.0000 </r>
       <r>    9.5345    0.0000 </r>
       <r>    9.8738    0.0000 </r>
       <r>   10.3812    0.0000 </r>
       <r>   10.6352    0.0000 </r>
       <r>   10.8164    0.0000 </r>
       <r>   10.9348    0.0000 </r>
       <r>   11.1901    0.0000 </r>
       <r>   11.6581    0.0000 </r>
       <r>   11.7707    0.0000 </r>
       <r>   12.1138    0.0000 </r>
       <r>   12.4422    0.0000 </r>
       <r>   12.6177    0.0000 </r>
       <r>   13.0066    0.0000 </r>
       <r>   13.5041    0.0000 </r>
       <r>   13.8736    0.0000 </r>
       <r>   14.2159    0.0000 </r>
       <r>   14.7090    0.0000 </r>
      </set>
      <set comment="kpoint 3">
       <r>  -68.6458    1.0000 </r>
       <r>  -68.6454    1.0000 </r>
       <r>  -68.6348    1.0000 </r>
       <r>  -68.6334    1.0000 </r>
       <r>  -68.6146    1.0000 </r>
       <r>  -68.6139    1.0000 </r>
       <r>  -68.5968    1.0000 </r>
       <r>  -68.5966    1.0000 </r>
       <r>  -68.5791    1.0000 </r>
       <r>  -68.5780    1.0000 </r>
       <r>  -68.5619    1.0000 </r>
       <r>  -68.5616    1.0000 </r>
       <r>  -12.4268    1.0000 </r>
       <r>  -11.2548    1.0000 </r>
       <r>  -10.9462    1.0000 </r>
       <r>  -10.7754    1.0000 </r>
       <r>  -10.4282    1.0000 </r>
       <r>  -10.3654    1.0000 </r>
       <r>   -5.8600    1.0000 </r>
       <r>   -4.5473    1.0000 </r>
       <r>   -2.4875    1.0000 </r>
       <r>   -2.2427    1.0000 </r>
       <r>   -1.9455    1.0000 </r>
       <r>   -1.4724    1.0000 </r>
       <r>   -1.2300    1.0000 </r>
       <r>   -1.1064    1.0000 </r>
       <r>   -0.8995    1.0000 </r>
       <r>   -0.8679    1.0000 </r>
       <r>   -0.5974    1.0000 </r>
       <r>   -0.5351    1.0000 </r>
       <r>   -0.2756    1.0000 </r>
       <r>   -0.2058    1.0000 </r>
       <r>   -0.2004    1.0000 </r>
       <r>   -0.1453    1.0000 </r>
       <r>   -0.0307    1.0000 </r>
       <r>    0.0816    1.0000 </r>
       <r>    1.2530    1.0000 </r>
       <r>    1.3263    1.0000 </r>
       <r>    1.3460    1.0000 </r>
       <r>    1.3964    1.0000 </r>
       <r>    1.4703    1.0000 </r>
       <r>    1.4779    1.0000 </r>
       <r>    1.4993    1.0000 </r>
       <r>    1.5509    1.0000 </r>
       <r>    1.7519    1.0000 </r>
       <r>    1.7897    1.0000 </r>
       <r>    1.9682    1.0000 </r>
       <r>    2.1469    1.0000 </r>
       <r>    2.3233    1.0000 </r>
       <r>    2.3647    1.0000 </r>
       <r>    2.5538    1.0000 </r>
       <r>    2.6676    1.0000 </r>
       <r>    2.9366    1.0000 </r>
       <r>    3.0801    1.0000 </r>
       <r>    3.2473    1.0000 </r>
       <r>    3.8605    1.0000 </r>
       <r>    6.3908   -0.0000 </r>
       <r>    7.0978    0.0000 </r>
       <r>    7.9839    0.0000 </r>
       <r>    8.1835    0.0000 </r>
       <r>    8.5195    0.0000 </r>
       <r>    8.8281    0.0000 </r>
       <r>    9.3327    0.0000 </r>
       <r>    9.8839    0.0000 </r>
       <r>   10.0205    0.0000 </r>
       <r>   10.5217    0.0000 </r>
       <r>   10.7015    0.0000 </r>
       <r>   10.8008    0.0000 </r>
       <r>   11.1351    0.0000 </r>
       <r>   11.4097    0.0000 </r>
       <r>   11.6090    0.0000 </r>
       <r>   11.7730    0.0000 </r>
       <r>   11.9448    0.0000 </r>
       <r>   12.5032    0.0000 </r>
       <r>   12.7830    0.0000 </r>
       <r>   12.9996    0.0000 </r>
       <r>   13.3927    0.0000 </r>
       <r>   13.5376    0.0000 </r>
       <r>   13.9395    0.0000 </r>
       <r>   14.2629    0.0000 </r>
      </set>
      <set comment="kpoint 4">
       <r>  -68.6459    1.0000 </r>
       <r>  -68.6456    1.0000 </r>
       <r>  -68.6349    1.0000 </r>
       <r>  -68.6335    1.0000 </r>
       <r>  -68.6146    1.0000 </r>
       <r>  -68.6139    1.0000 </r>
       <r>  -68.5969    1.0000 </r>
       <r>  -68.5966    1.0000 </r>
       <r>  -68.5792    1.0000 </r>
       <r>  -68.5780    1.0000 </r>
       <r>  -68.5619    1.0000 </r>
       <r>  -68.5619    1.0000 </r>
       <r>  -12.5885    1.0000 </r>
       <r>  -11.1392    1.0000 </r>
       <r>  -10.9668    1.0000 </r>
       <r>  -10.6762    1.0000 </r>
       <r>  -10.3747    1.0000 </r>
       <r>  -10.2852    1.0000 </r>
       <r>   -5.9229    1.0000 </r>
       <r>   -4.7752    1.0000 </r>
       <r>   -2.6433    1.0000 </r>
       <r>   -2.2490    1.0000 </r>
       <r>   -2.0860    1.0000 </r>
       <r>   -1.6866    1.0000 </r>
       <r>   -1.3450    1.0000 </r>
       <r>   -1.0011    1.0000 </r>
       <r>   -0.7692    1.0000 </r>
       <r>   -0.6241    1.0000 </r>
       <r>   -0.5554    1.0000 </r>
       <r>   -0.4372    1.0000 </r>
       <r>   -0.3603    1.0000 </r>
       <r>   -0.2420    1.0000 </r>
       <r>   -0.1944    1.0000 </r>
       <r>   -0.1704    1.0000 </r>
       <r>   -0.0492    1.0000 </r>
       <r>    0.0407    1.0000 </r>
       <r>    1.2783    1.0000 </r>
       <r>    1.3351    1.0000 </r>
       <r>    1.3535    1.0000 </r>
       <r>    1.3913    1.0000 </r>
       <r>    1.4263    1.0000 </r>
       <r>    1.4708    1.0000 </r>
       <r>    1.4967    1.0000 </r>
       <r>    1.5300    1.0000 </r>
       <r>    1.7245    1.0000 </r>
       <r>    1.8570    1.0000 </r>
       <r>    2.0568    1.0000 </r>
       <r>    2.0933    1.0000 </r>
       <r>    2.2315    1.0000 </r>
       <r>    2.4125    1.0000 </r>
       <r>    2.5555    1.0000 </r>
       <r>    2.8231    1.0000 </r>
       <r>    2.9457    1.0000 </r>
       <r>    3.2410    1.0000 </r>
       <r>    3.6603    1.0000 </r>
       <r>    4.0370    1.0136 </r>
       <r>    6.1756   -0.0000 </r>
       <r>    6.9067   -0.0000 </r>
       <r>    8.1398    0.0000 </r>
       <r>    8.2679    0.0000 </r>
       <r>    8.5908    0.0000 </r>
       <r>    9.0138    0.0000 </r>
       <r>    9.2463    0.0000 </r>
       <r>    9.5418    0.0000 </r>
       <r>    9.8643    0.0000 </r>
       <r>   10.3790    0.0000 </r>
       <r>   10.6373    0.0000 </r>
       <r>   10.8124    0.0000 </r>
       <r>   10.9367    0.0000 </r>
       <r>   11.1922    0.0000 </r>
       <r>   11.6565    0.0000 </r>
       <r>   11.7695    0.0000 </r>
       <r>   12.1165    0.0000 </r>
       <r>   12.4412    0.0000 </r>
       <r>   12.6170    0.0000 </r>
       <r>   13.0076    0.0000 </r>
       <r>   13.5189    0.0000 </r>
       <r>   13.9003    0.0000 </r>
       <r>   14.2747    0.0000 </r>
       <r>   14.8333    0.0000 </r>
      </set>
      <set comment="kpoint 5">
       <r>  -68.6460    1.0000 </r>
       <r>  -68.6456    1.0000 </r>
       <r>  -68.6348    1.0000 </r>
       <r>  -68.6334    1.0000 </r>
       <r>  -68.6147    1.0000 </r>
       <r>  -68.6140    1.0000 </r>
       <r>  -68.5968    1.0000 </r>
       <r>  -68.5965    1.0000 </r>
       <r>  -68.5793    1.0000 </r>
       <r>  -68.5781    1.0000 </r>
       <r>  -68.5620    1.0000 </r>
       <r>  -68.5619    1.0000 </r>
       <r>  -12.4308    1.0000 </r>
       <r>  -11.1998    1.0000 </r>
       <r>  -10.9314    1.0000 </r>
       <r>  -10.8813    1.0000 </r>
       <r>  -10.3987    1.0000 </r>
       <r>  -10.3557    1.0000 </r>
       <r>   -5.8655    1.0000 </r>
       <r>   -4.5223    1.0000 </r>
       <r>   -2.4131    1.0000 </r>
       <r>   -2.2425    1.0000 </r>
       <r>   -1.7925    1.0000 </r>
       <r>   -1.6793    1.0000 </r>
       <r>   -1.3600    1.0000 </r>
       <r>   -1.3026    1.0000 </r>
       <r>   -1.0827    1.0000 </r>
       <r>   -0.6863    1.0000 </r>
       <r>   -0.5238    1.0000 </r>
       <r>   -0.2966    1.0000 </r>
       <r>   -0.2817    1.0000 </r>
       <r>   -0.2242    1.0000 </r>
       <r>   -0.1903    1.0000 </r>
       <r>   -0.1245    1.0000 </r>
       <r>   -0.0952    1.0000 </r>
       <r>    0.0824    1.0000 </r>
       <r>    1.2923    1.0000 </r>
       <r>    1.3100    1.0000 </r>
       <r>    1.4145    1.0000 </r>
       <r>    1.4252    1.0000 </r>
       <r>    1.4625    1.0000 </r>
       <r>    1.4814    1.0000 </r>
       <r>    1.4940    1.0000 </r>
       <r>    1.5691    1.0000 </r>
       <r>    1.6708    1.0000 </r>
       <r>    1.8805    1.0000 </r>
       <r>    1.9393    1.0000 </r>
       <r>    2.1344    1.0000 </r>
       <r>    2.2793    1.0000 </r>
       <r>    2.3200    1.0000 </r>
       <r>    2.5596    1.0000 </r>
       <r>    2.6490    1.0000 </r>
       <r>    2.9012    1.0000 </r>
       <r>    2.9432    1.0000 </r>
       <r>    3.6965    1.0000 </r>
       <r>    3.8298    1.0000 </r>
       <r>    6.1768   -0.0000 </r>
       <r>    6.9892    0.0000 </r>
       <r>    8.0105    0.0000 </r>
       <r>    8.3177    0.0000 </r>
       <r>    8.4447    0.0000 </r>
       <r>    8.5669    0.0000 </r>
       <r>    9.1494    0.0000 </r>
       <r>    9.2527    0.0000 </r>
       <r>   10.3662    0.0000 </r>
       <r>   10.5020    0.0000 </r>
       <r>   10.9196    0.0000 </r>
       <r>   11.1848    0.0000 </r>
       <r>   11.3286    0.0000 </r>
       <r>   11.5569    0.0000 </r>
       <r>   11.8100    0.0000 </r>
       <r>   11.9613    0.0000 </r>
       <r>   12.3131    0.0000 </r>
       <r>   12.5066    0.0000 </r>
       <r>   12.7091    0.0000 </r>
       <r>   12.9121    0.0000 </r>
       <r>   13.3373    0.0000 </r>
       <r>   13.4444    0.0000 </r>
       <r>   14.2563    0.0000 </r>
       <r>   14.3646    0.0000 </r>
      </set>
      <set comment="kpoint 6">
       <r>  -68.6457    1.0000 </r>
       <r>  -68.6454    1.0000 </r>
       <r>  -68.6348    1.0000 </r>
       <r>  -68.6335    1.0000 </r>
       <r>  -68.6145    1.0000 </r>
       <r>  -68.6138    1.0000 </r>
       <r>  -68.5966    1.0000 </r>
       <r>  -68.5968    1.0000 </r>
       <r>  -68.5789    1.0000 </r>
       <r>  -68.5781    1.0000 </r>
       <r>  -68.5616    1.0000 </r>
       <r>  -68.5619    1.0000 </r>
       <r>  -12.4309    1.0000 </r>
       <r>  -11.3620    1.0000 </r>
       <r>  -10.9255    1.0000 </r>
       <r>  -10.7448    1.0000 </r>
       <r>  -10.3945    1.0000 </r>
       <r>  -10.2778    1.0000 </r>
       <r>   -5.9375    1.0000 </r>
       <r>   -4.6437    1.0000 </r>
       <r>   -2.3867    1.0000 </r>
       <r>   -2.2238    1.0000 </r>
       <r>   -2.0518    1.0000 </r>
       <r>   -1.6446    1.0000 </r>
       <r>   -1.3665    1.0000 </r>
       <r>   -1.2816    1.0000 </r>
       <r>   -1.0273    1.0000 </r>
       <r>   -0.5133    1.0000 </r>
       <r>   -0.4834    1.0000 </r>
       <r>   -0.3298    1.0000 </r>
       <r>   -0.2839    1.0000 </r>
       <r>   -0.2156    1.0000 </r>
       <r>   -0.1500    1.0000 </r>
       <r>   -0.1343    1.0000 </r>
       <r>   -0.0116    1.0000 </r>
       <r>    0.1123    1.0000 </r>
       <r>    1.2455    1.0000 </r>
       <r>    1.3141    1.0000 </r>
       <r>    1.3817    1.0000 </r>
       <r>    1.4362    1.0000 </r>
       <r>    1.4608    1.0000 </r>
       <r>    1.4909    1.0000 </r>
       <r>    1.4957    1.0000 </r>
       <r>    1.5488    1.0000 </r>
       <r>    1.7480    1.0000 </r>
       <r>    1.8269    1.0000 </r>
       <r>    1.9214    1.0000 </r>
       <r>    2.1332    1.0000 </r>
       <r>    2.2219    1.0000 </r>
       <r>    2.3850    1.0000 </r>
       <r>    2.5613    1.0000 </r>
       <r>    2.7894    1.0000 </r>
       <r>    2.9772    1.0000 </r>
       <r>    3.3101    1.0000 </r>
       <r>    3.6009    1.0000 </r>
       <r>    3.7465    1.0000 </r>
       <r>    6.0926   -0.0000 </r>
       <r>    6.9401   -0.0000 </r>
       <r>    7.6092    0.0000 </r>
       <r>    8.0753    0.0000 </r>
       <r>    8.4066    0.0000 </r>
       <r>    8.6112    0.0000 </r>
       <r>    8.9880    0.0000 </r>
       <r>    9.1583    0.0000 </r>
       <r>   10.0882    0.0000 </r>
       <r>   10.3365    0.0000 </r>
       <r>   10.7367    0.0000 </r>
       <r>   11.1127    0.0000 </r>
       <r>   11.4604    0.0000 </r>
       <r>   11.5951    0.0000 </r>
       <r>   11.7968    0.0000 </r>
       <r>   12.0883    0.0000 </r>
       <r>   12.4752    0.0000 </r>
       <r>   12.9194    0.0000 </r>
       <r>   13.0314    0.0000 </r>
       <r>   13.8246    0.0000 </r>
       <r>   14.1957    0.0000 </r>
       <r>   14.6551    0.0000 </r>
       <r>   15.4285    0.0000 </r>
       <r>   15.6431    0.0000 </r>
      </set>
      <set comment="kpoint 7">
       <r>  -68.6460    1.0000 </r>
       <r>  -68.6456    1.0000 </r>
       <r>  -68.6349    1.0000 </r>
       <r>  -68.6334    1.0000 </r>
       <r>  -68.6145    1.0000 </r>
       <r>  -68.6138    1.0000 </r>
       <r>  -68.5968    1.0000 </r>
       <r>  -68.5966    1.0000 </r>
       <r>  -68.5791    1.0000 </r>
       <r>  -68.5780    1.0000 </r>
       <r>  -68.5619    1.0000 </r>
       <r>  -68.5620    1.0000 </r>
       <r>  -12.5913    1.0000 </r>
       <r>  -11.2604    1.0000 </r>
       <r>  -10.9782    1.0000 </r>
       <r>  -10.5722    1.0000 </r>
       <r>  -10.3734    1.0000 </r>
       <r>  -10.1876    1.0000 </r>
       <r>   -6.0000    1.0000 </r>
       <r>   -4.8971    1.0000 </r>
       <r>   -2.6448    1.0000 </r>
       <r>   -2.3113    1.0000 </r>
       <r>   -1.9648    1.0000 </r>
       <r>   -1.6501    1.0000 </r>
       <r>   -1.4923    1.0000 </r>
       <r>   -1.1865    1.0000 </r>
       <r>   -0.7929    1.0000 </r>
       <r>   -0.5872    1.0000 </r>
       <r>   -0.4452    1.0000 </r>
       <r>   -0.3331    1.0000 </r>
       <r>   -0.2957    1.0000 </r>
       <r>   -0.2324    1.0000 </r>
       <r>   -0.1745    1.0000 </r>
       <r>   -0.1314    1.0000 </r>
       <r>   -0.0104    1.0000 </r>
       <r>    0.0683    1.0000 </r>
       <r>    1.2581    1.0000 </r>
       <r>    1.3199    1.0000 </r>
       <r>    1.3642    1.0000 </r>
       <r>    1.4223    1.0000 </r>
       <r>    1.4297    1.0000 </r>
       <r>    1.4746    1.0000 </r>
       <r>    1.5027    1.0000 </r>
       <r>    1.5424    1.0000 </r>
       <r>    1.7243    1.0000 </r>
       <r>    1.8122    1.0000 </r>
       <r>    1.9943    1.0000 </r>
       <r>    2.0715    1.0000 </r>
       <r>    2.4164    1.0000 </r>
       <r>    2.4625    1.0000 </r>
       <r>    2.5274    1.0000 </r>
       <r>    2.8713    1.0000 </r>
       <r>    3.1417    1.0000 </r>
       <r>    3.2266    1.0000 </r>
       <r>    3.7803    1.0000 </r>
       <r>    4.0672    1.0267 </r>
       <r>    5.9837   -0.0000 </r>
       <r>    6.6912   -0.0000 </r>
       <r>    7.5309    0.0000 </r>
       <r>    8.2268    0.0000 </r>
       <r>    8.6174    0.0000 </r>
       <r>    8.9049    0.0000 </r>
       <r>    9.3144    0.0000 </r>
       <r>    9.4383    0.0000 </r>
       <r>    9.8077    0.0000 </r>
       <r>   10.2753    0.0000 </r>
       <r>   10.5427    0.0000 </r>
       <r>   10.8320    0.0000 </r>
       <r>   10.9757    0.0000 </r>
       <r>   11.3798    0.0000 </r>
       <r>   11.4693    0.0000 </r>
       <r>   11.7338    0.0000 </r>
       <r>   12.1004    0.0000 </r>
       <r>   12.6633    0.0000 </r>
       <r>   12.9435    0.0000 </r>
       <r>   13.1033    0.0000 </r>
       <r>   13.3501    0.0000 </r>
       <r>   13.5190    0.0000 </r>
       <r>   14.4738    0.0000 </r>
       <r>   14.7551    0.0000 </r>
      </set>
      <set comment="kpoint 8">
       <r>  -68.6458    1.0000 </r>
       <r>  -68.6454    1.0000 </r>
       <r>  -68.6348    1.0000 </r>
       <r>  -68.6334    1.0000 </r>
       <r>  -68.6145    1.0000 </r>
       <r>  -68.6139    1.0000 </r>
       <r>  -68.5967    1.0000 </r>
       <r>  -68.5966    1.0000 </r>
       <r>  -68.5791    1.0000 </r>
       <r>  -68.5780    1.0000 </r>
       <r>  -68.5617    1.0000 </r>
       <r>  -68.5619    1.0000 </r>
       <r>  -12.4269    1.0000 </r>
       <r>  -11.2616    1.0000 </r>
       <r>  -10.9418    1.0000 </r>
       <r>  -10.7633    1.0000 </r>
       <r>  -10.4378    1.0000 </r>
       <r>  -10.3650    1.0000 </r>
       <r>   -5.8608    1.0000 </r>
       <r>   -4.5506    1.0000 </r>
       <r>   -2.4898    1.0000 </r>
       <r>   -2.2437    1.0000 </r>
       <r>   -1.9439    1.0000 </r>
       <r>   -1.4631    1.0000 </r>
       <r>   -1.2260    1.0000 </r>
       <r>   -1.0959    1.0000 </r>
       <r>   -0.9044    1.0000 </r>
       <r>   -0.8669    1.0000 </r>
       <r>   -0.6019    1.0000 </r>
       <r>   -0.5394    1.0000 </r>
       <r>   -0.2737    1.0000 </r>
       <r>   -0.2065    1.0000 </r>
       <r>   -0.2037    1.0000 </r>
       <r>   -0.1450    1.0000 </r>
       <r>   -0.0306    1.0000 </r>
       <r>    0.0836    1.0000 </r>
       <r>    1.2533    1.0000 </r>
       <r>    1.3268    1.0000 </r>
       <r>    1.3463    1.0000 </r>
       <r>    1.3962    1.0000 </r>
       <r>    1.4699    1.0000 </r>
       <r>    1.4776    1.0000 </r>
       <r>    1.4987    1.0000 </r>
       <r>    1.5527    1.0000 </r>
       <r>    1.7527    1.0000 </r>
       <r>    1.7907    1.0000 </r>
       <r>    1.9676    1.0000 </r>
       <r>    2.1447    1.0000 </r>
       <r>    2.3201    1.0000 </r>
       <r>    2.3617    1.0000 </r>
       <r>    2.5507    1.0000 </r>
       <r>    2.6681    1.0000 </r>
       <r>    2.9363    1.0000 </r>
       <r>    3.0775    1.0000 </r>
       <r>    3.2476    1.0000 </r>
       <r>    3.8581    1.0000 </r>
       <r>    6.3916   -0.0000 </r>
       <r>    7.0971    0.0000 </r>
       <r>    7.9841    0.0000 </r>
       <r>    8.2111    0.0000 </r>
       <r>    8.5150    0.0000 </r>
       <r>    8.8262    0.0000 </r>
       <r>    9.3299    0.0000 </r>
       <r>    9.8942    0.0000 </r>
       <r>   10.0091    0.0000 </r>
       <r>   10.5175    0.0000 </r>
       <r>   10.6936    0.0000 </r>
       <r>   10.7925    0.0000 </r>
       <r>   11.1422    0.0000 </r>
       <r>   11.4079    0.0000 </r>
       <r>   11.6089    0.0000 </r>
       <r>   11.7700    0.0000 </r>
       <r>   11.9425    0.0000 </r>
       <r>   12.5045    0.0000 </r>
       <r>   12.8203    0.0000 </r>
       <r>   13.0286    0.0000 </r>
       <r>   13.5523    0.0000 </r>
       <r>   13.6869    0.0000 </r>
       <r>   14.5504    0.0000 </r>
       <r>   15.2520    0.0000 </r>
      </set>
      <set comment="kpoint 9">
       <r>  -68.6457    1.0000 </r>
       <r>  -68.6453    1.0000 </r>
       <r>  -68.6348    1.0000 </r>
       <r>  -68.6335    1.0000 </r>
       <r>  -68.6144    1.0000 </r>
       <r>  -68.6140    1.0000 </r>
       <r>  -68.5966    1.0000 </r>
       <r>  -68.5967    1.0000 </r>
       <r>  -68.5789    1.0000 </r>
       <r>  -68.5781    1.0000 </r>
       <r>  -68.5617    1.0000 </r>
       <r>  -68.5618    1.0000 </r>
       <r>  -12.4310    1.0000 </r>
       <r>  -11.3636    1.0000 </r>
       <r>  -10.9249    1.0000 </r>
       <r>  -10.7410    1.0000 </r>
       <r>  -10.3947    1.0000 </r>
       <r>  -10.2802    1.0000 </r>
       <r>   -5.9378    1.0000 </r>
       <r>   -4.6450    1.0000 </r>
       <r>   -2.3894    1.0000 </r>
       <r>   -2.2233    1.0000 </r>
       <r>   -2.0559    1.0000 </r>
       <r>   -1.6370    1.0000 </r>
       <r>   -1.3620    1.0000 </r>
       <r>   -1.2804    1.0000 </r>
       <r>   -1.0255    1.0000 </r>
       <r>   -0.5105    1.0000 </r>
       <r>   -0.4881    1.0000 </r>
       <r>   -0.3327    1.0000 </r>
       <r>   -0.2830    1.0000 </r>
       <r>   -0.2137    1.0000 </r>
       <r>   -0.1539    1.0000 </r>
       <r>   -0.1350    1.0000 </r>
       <r>   -0.0098    1.0000 </r>
       <r>    0.1128    1.0000 </r>
       <r>    1.2454    1.0000 </r>
       <r>    1.3144    1.0000 </r>
       <r>    1.3817    1.0000 </r>
       <r>    1.4361    1.0000 </r>
       <r>    1.4608    1.0000 </r>
       <r>    1.4911    1.0000 </r>
       <r>    1.4959    1.0000 </r>
       <r>    1.5492    1.0000 </r>
       <r>    1.7477    1.0000 </r>
       <r>    1.8272    1.0000 </r>
       <r>    1.9212    1.0000 </r>
       <r>    2.1328    1.0000 </r>
       <r>    2.2212    1.0000 </r>
       <r>    2.3838    1.0000 </r>
       <r>    2.5593    1.0000 </r>
       <r>    2.7869    1.0000 </r>
       <r>    2.9780    1.0000 </r>
       <r>    3.3104    1.0000 </r>
       <r>    3.6015    1.0000 </r>
       <r>    3.7450    1.0000 </r>
       <r>    6.0930   -0.0000 </r>
       <r>    6.9401   -0.0000 </r>
       <r>    7.6126    0.0000 </r>
       <r>    8.0759    0.0000 </r>
       <r>    8.4064    0.0000 </r>
       <r>    8.6107    0.0000 </r>
       <r>    8.9882    0.0000 </r>
       <r>    9.1578    0.0000 </r>
       <r>   10.0895    0.0000 </r>
       <r>   10.3366    0.0000 </r>
       <r>   10.7343    0.0000 </r>
       <r>   11.1095    0.0000 </r>
       <r>   11.4580    0.0000 </r>
       <r>   11.5760    0.0000 </r>
       <r>   11.7879    0.0000 </r>
       <r>   12.0338    0.0000 </r>
       <r>   12.5257    0.0000 </r>
       <r>   12.6844    0.0000 </r>
       <r>   12.9192    0.0000 </r>
       <r>   13.2065    0.0000 </r>
       <r>   14.2269    0.0000 </r>
       <r>   14.7691    0.0000 </r>
       <r>   15.2521    0.0000 </r>
       <r>   15.9127    0.0000 </r>
      </set>
      <set comment="kpoint 10">
       <r>  -68.6456    1.0000 </r>
       <r>  -68.6451    1.0000 </r>
       <r>  -68.6346    1.0000 </r>
       <r>  -68.6333    1.0000 </r>
       <r>  -68.6143    1.0000 </r>
       <r>  -68.6138    1.0000 </r>
       <r>  -68.5966    1.0000 </r>
       <r>  -68.5964    1.0000 </r>
       <r>  -68.5790    1.0000 </r>
       <r>  -68.5778    1.0000 </r>
       <r>  -68.5613    1.0000 </r>
       <r>  -68.5618    1.0000 </r>
       <r>  -12.4223    1.0000 </r>
       <r>  -11.5107    1.0000 </r>
       <r>  -10.8999    1.0000 </r>
       <r>  -10.6224    1.0000 </r>
       <r>  -10.4042    1.0000 </r>
       <r>  -10.2067    1.0000 </r>
       <r>   -6.0165    1.0000 </r>
       <r>   -4.8136    1.0000 </r>
       <r>   -2.3086    1.0000 </r>
       <r>   -2.2607    1.0000 </r>
       <r>   -2.0909    1.0000 </r>
       <r>   -1.7004    1.0000 </r>
       <r>   -1.2457    1.0000 </r>
       <r>   -1.1109    1.0000 </r>
       <r>   -0.8444    1.0000 </r>
       <r>   -0.7828    1.0000 </r>
       <r>   -0.7303    1.0000 </r>
       <r>   -0.2459    1.0000 </r>
       <r>   -0.1982    1.0000 </r>
       <r>   -0.1802    1.0000 </r>
       <r>   -0.1517    1.0000 </r>
       <r>   -0.0407    1.0000 </r>
       <r>   -0.0031    1.0000 </r>
       <r>    0.1829    1.0000 </r>
       <r>    1.2651    1.0000 </r>
       <r>    1.3170    1.0000 </r>
       <r>    1.3746    1.0000 </r>
       <r>    1.4125    1.0000 </r>
       <r>    1.4323    1.0000 </r>
       <r>    1.4912    1.0000 </r>
       <r>    1.5074    1.0000 </r>
       <r>    1.5493    1.0000 </r>
       <r>    1.7870    1.0000 </r>
       <r>    1.8465    1.0000 </r>
       <r>    1.9942    1.0000 </r>
       <r>    2.1495    1.0000 </r>
       <r>    2.2517    1.0000 </r>
       <r>    2.3369    1.0000 </r>
       <r>    2.5597    1.0000 </r>
       <r>    2.7581    1.0000 </r>
       <r>    2.7728    1.0000 </r>
       <r>    3.3677    1.0000 </r>
       <r>    3.7610    1.0000 </r>
       <r>    4.0043    1.0048 </r>
       <r>    5.8595   -0.0000 </r>
       <r>    6.7681   -0.0000 </r>
       <r>    7.0819    0.0000 </r>
       <r>    8.4135    0.0000 </r>
       <r>    8.5662    0.0000 </r>
       <r>    8.7686    0.0000 </r>
       <r>    9.1466    0.0000 </r>
       <r>    9.2398    0.0000 </r>
       <r>    9.9617    0.0000 </r>
       <r>   10.2854    0.0000 </r>
       <r>   10.7269    0.0000 </r>
       <r>   10.8299    0.0000 </r>
       <r>   10.8791    0.0000 </r>
       <r>   11.2743    0.0000 </r>
       <r>   11.7517    0.0000 </r>
       <r>   11.9145    0.0000 </r>
       <r>   11.9757    0.0000 </r>
       <r>   12.3642    0.0000 </r>
       <r>   12.5387    0.0000 </r>
       <r>   13.4530    0.0000 </r>
       <r>   14.2841    0.0000 </r>
       <r>   14.6734    0.0000 </r>
       <r>   16.7429    0.0000 </r>
       <r>   16.7559    0.0000 </r>
      </set>
      <set comment="kpoint 11">
       <r>  -68.6460    1.0000 </r>
       <r>  -68.6456    1.0000 </r>
       <r>  -68.6349    1.0000 </r>
       <r>  -68.6335    1.0000 </r>
       <r>  -68.6146    1.0000 </r>
       <r>  -68.6139    1.0000 </r>
       <r>  -68.5969    1.0000 </r>
       <r>  -68.5966    1.0000 </r>
       <r>  -68.5792    1.0000 </r>
       <r>  -68.5781    1.0000 </r>
       <r>  -68.5620    1.0000 </r>
       <r>  -68.5619    1.0000 </r>
       <r>  -12.6116    1.0000 </r>
       <r>  -11.4233    1.0000 </r>
       <r>  -10.7766    1.0000 </r>
       <r>  -10.6067    1.0000 </r>
       <r>  -10.2624    1.0000 </r>
       <r>  -10.2406    1.0000 </r>
       <r>   -5.8218    1.0000 </r>
       <r>   -5.0473    1.0000 </r>
       <r>   -2.5977    1.0000 </r>
       <r>   -2.3680    1.0000 </r>
       <r>   -1.9635    1.0000 </r>
       <r>   -1.7755    1.0000 </r>
       <r>   -1.4440    1.0000 </r>
       <r>   -1.1258    1.0000 </r>
       <r>   -1.0646    1.0000 </r>
       <r>   -0.7729    1.0000 </r>
       <r>   -0.4710    1.0000 </r>
       <r>   -0.2938    1.0000 </r>
       <r>   -0.2388    1.0000 </r>
       <r>   -0.2341    1.0000 </r>
       <r>   -0.1909    1.0000 </r>
       <r>   -0.1459    1.0000 </r>
       <r>   -0.0215    1.0000 </r>
       <r>    0.0226    1.0000 </r>
       <r>    1.3324    1.0000 </r>
       <r>    1.3808    1.0000 </r>
       <r>    1.4151    1.0000 </r>
       <r>    1.4383    1.0000 </r>
       <r>    1.4638    1.0000 </r>
       <r>    1.4653    1.0000 </r>
       <r>    1.5136    1.0000 </r>
       <r>    1.5451    1.0000 </r>
       <r>    1.6325    1.0000 </r>
       <r>    1.7570    1.0000 </r>
       <r>    1.7864    1.0000 </r>
       <r>    1.9491    1.0000 </r>
       <r>    2.0887    1.0000 </r>
       <r>    2.6575    1.0000 </r>
       <r>    2.7166    1.0000 </r>
       <r>    3.1961    1.0000 </r>
       <r>    3.2517    1.0000 </r>
       <r>    3.5185    1.0000 </r>
       <r>    3.8941    1.0000 </r>
       <r>    3.9740    1.0014 </r>
       <r>    6.0480   -0.0000 </r>
       <r>    6.4176   -0.0000 </r>
       <r>    7.8320    0.0000 </r>
       <r>    7.9053    0.0000 </r>
       <r>    8.3687    0.0000 </r>
       <r>    8.8113    0.0000 </r>
       <r>    9.7770    0.0000 </r>
       <r>    9.8021    0.0000 </r>
       <r>   10.0632    0.0000 </r>
       <r>   10.5884    0.0000 </r>
       <r>   10.6444    0.0000 </r>
       <r>   10.8132    0.0000 </r>
       <r>   10.8595    0.0000 </r>
       <r>   11.4955    0.0000 </r>
       <r>   11.5567    0.0000 </r>
       <r>   12.0234    0.0000 </r>
       <r>   12.5818    0.0000 </r>
       <r>   12.7777    0.0000 </r>
       <r>   12.9120    0.0000 </r>
       <r>   13.2009    0.0000 </r>
       <r>   13.5371    0.0000 </r>
       <r>   13.8217    0.0000 </r>
       <r>   14.1978    0.0000 </r>
       <r>   14.7073    0.0000 </r>
      </set>
      <set comment="kpoint 12">
       <r>  -68.6459    1.0000 </r>
       <r>  -68.6455    1.0000 </r>
       <r>  -68.6349    1.0000 </r>
       <r>  -68.6335    1.0000 </r>
       <r>  -68.6147    1.0000 </r>
       <r>  -68.6140    1.0000 </r>
       <r>  -68.5969    1.0000 </r>
       <r>  -68.5965    1.0000 </r>
       <r>  -68.5792    1.0000 </r>
       <r>  -68.5781    1.0000 </r>
       <r>  -68.5618    1.0000 </r>
       <r>  -68.5620    1.0000 </r>
       <r>  -12.4510    1.0000 </r>
       <r>  -11.4637    1.0000 </r>
       <r>  -10.8676    1.0000 </r>
       <r>  -10.6883    1.0000 </r>
       <r>  -10.3808    1.0000 </r>
       <r>  -10.2506    1.0000 </r>
       <r>   -5.7565    1.0000 </r>
       <r>   -4.8036    1.0000 </r>
       <r>   -2.4413    1.0000 </r>
       <r>   -2.2302    1.0000 </r>
       <r>   -1.8510    1.0000 </r>
       <r>   -1.7120    1.0000 </r>
       <r>   -1.4408    1.0000 </r>
       <r>   -1.1912    1.0000 </r>
       <r>   -0.8900    1.0000 </r>
       <r>   -0.7439    1.0000 </r>
       <r>   -0.6092    1.0000 </r>
       <r>   -0.5213    1.0000 </r>
       <r>   -0.3118    1.0000 </r>
       <r>   -0.2445    1.0000 </r>
       <r>   -0.1704    1.0000 </r>
       <r>   -0.1245    1.0000 </r>
       <r>   -0.0540    1.0000 </r>
       <r>    0.0608    1.0000 </r>
       <r>    1.3011    1.0000 </r>
       <r>    1.3350    1.0000 </r>
       <r>    1.3681    1.0000 </r>
       <r>    1.4302    1.0000 </r>
       <r>    1.4454    1.0000 </r>
       <r>    1.4785    1.0000 </r>
       <r>    1.5198    1.0000 </r>
       <r>    1.5462    1.0000 </r>
       <r>    1.6419    1.0000 </r>
       <r>    1.8705    1.0000 </r>
       <r>    1.9807    1.0000 </r>
       <r>    2.0462    1.0000 </r>
       <r>    2.1932    1.0000 </r>
       <r>    2.4741    1.0000 </r>
       <r>    2.5940    1.0000 </r>
       <r>    2.8373    1.0000 </r>
       <r>    2.9636    1.0000 </r>
       <r>    3.1335    1.0000 </r>
       <r>    3.5650    1.0000 </r>
       <r>    3.7239    1.0000 </r>
       <r>    6.4453   -0.0000 </r>
       <r>    6.9578    0.0000 </r>
       <r>    8.1726    0.0000 </r>
       <r>    8.2506    0.0000 </r>
       <r>    8.8310    0.0000 </r>
       <r>    9.1242    0.0000 </r>
       <r>    9.4732    0.0000 </r>
       <r>    9.7954    0.0000 </r>
       <r>   10.0880    0.0000 </r>
       <r>   10.3029    0.0000 </r>
       <r>   10.7403    0.0000 </r>
       <r>   11.0761    0.0000 </r>
       <r>   11.2920    0.0000 </r>
       <r>   11.4224    0.0000 </r>
       <r>   11.6334    0.0000 </r>
       <r>   11.7264    0.0000 </r>
       <r>   12.0838    0.0000 </r>
       <r>   12.2638    0.0000 </r>
       <r>   12.5421    0.0000 </r>
       <r>   12.6534    0.0000 </r>
       <r>   12.9543    0.0000 </r>
       <r>   13.0598    0.0000 </r>
       <r>   13.6414    0.0000 </r>
       <r>   14.6935    0.0000 </r>
      </set>
      <set comment="kpoint 13">
       <r>  -68.6457    1.0000 </r>
       <r>  -68.6454    1.0000 </r>
       <r>  -68.6348    1.0000 </r>
       <r>  -68.6334    1.0000 </r>
       <r>  -68.6145    1.0000 </r>
       <r>  -68.6139    1.0000 </r>
       <r>  -68.5967    1.0000 </r>
       <r>  -68.5966    1.0000 </r>
       <r>  -68.5790    1.0000 </r>
       <r>  -68.5781    1.0000 </r>
       <r>  -68.5617    1.0000 </r>
       <r>  -68.5620    1.0000 </r>
       <r>  -12.3468    1.0000 </r>
       <r>  -11.4134    1.0000 </r>
       <r>  -10.9510    1.0000 </r>
       <r>  -10.6907    1.0000 </r>
       <r>  -10.4847    1.0000 </r>
       <r>  -10.3376    1.0000 </r>
       <r>   -5.7421    1.0000 </r>
       <r>   -4.7202    1.0000 </r>
       <r>   -2.5208    1.0000 </r>
       <r>   -2.1803    1.0000 </r>
       <r>   -1.9546    1.0000 </r>
       <r>   -1.5400    1.0000 </r>
       <r>   -1.3027    1.0000 </r>
       <r>   -1.1034    1.0000 </r>
       <r>   -0.8741    1.0000 </r>
       <r>   -0.7540    1.0000 </r>
       <r>   -0.5456    1.0000 </r>
       <r>   -0.4452    1.0000 </r>
       <r>   -0.2891    1.0000 </r>
       <r>   -0.1827    1.0000 </r>
       <r>   -0.1429    1.0000 </r>
       <r>   -0.1084    1.0000 </r>
       <r>   -0.0451    1.0000 </r>
       <r>    0.0231    1.0000 </r>
       <r>    1.2711    1.0000 </r>
       <r>    1.2969    1.0000 </r>
       <r>    1.3504    1.0000 </r>
       <r>    1.4286    1.0000 </r>
       <r>    1.4516    1.0000 </r>
       <r>    1.4795    1.0000 </r>
       <r>    1.5004    1.0000 </r>
       <r>    1.5860    1.0000 </r>
       <r>    1.7186    1.0000 </r>
       <r>    1.9306    1.0000 </r>
       <r>    2.0773    1.0000 </r>
       <r>    2.1455    1.0000 </r>
       <r>    2.2681    1.0000 </r>
       <r>    2.4055    1.0000 </r>
       <r>    2.5695    1.0000 </r>
       <r>    2.5985    1.0000 </r>
       <r>    2.8974    1.0000 </r>
       <r>    3.0066    1.0000 </r>
       <r>    3.3558    1.0000 </r>
       <r>    3.8980    1.0000 </r>
       <r>    6.3707   -0.0000 </r>
       <r>    6.8982   -0.0000 </r>
       <r>    7.5742    0.0000 </r>
       <r>    8.0713    0.0000 </r>
       <r>    8.5477    0.0000 </r>
       <r>    8.7997    0.0000 </r>
       <r>    9.2792    0.0000 </r>
       <r>    9.6360    0.0000 </r>
       <r>    9.9274    0.0000 </r>
       <r>   10.2849    0.0000 </r>
       <r>   10.6608    0.0000 </r>
       <r>   10.9318    0.0000 </r>
       <r>   10.9734    0.0000 </r>
       <r>   11.2809    0.0000 </r>
       <r>   11.5225    0.0000 </r>
       <r>   11.7870    0.0000 </r>
       <r>   12.2504    0.0000 </r>
       <r>   12.5474    0.0000 </r>
       <r>   13.0972    0.0000 </r>
       <r>   13.5146    0.0000 </r>
       <r>   14.3018    0.0000 </r>
       <r>   14.6140    0.0000 </r>
       <r>   15.1268    0.0000 </r>
       <r>   16.2682    0.0000 </r>
      </set>
      <set comment="kpoint 14">
       <r>  -68.6460    1.0000 </r>
       <r>  -68.6456    1.0000 </r>
       <r>  -68.6349    1.0000 </r>
       <r>  -68.6334    1.0000 </r>
       <r>  -68.6146    1.0000 </r>
       <r>  -68.6139    1.0000 </r>
       <r>  -68.5969    1.0000 </r>
       <r>  -68.5966    1.0000 </r>
       <r>  -68.5792    1.0000 </r>
       <r>  -68.5781    1.0000 </r>
       <r>  -68.5620    1.0000 </r>
       <r>  -68.5619    1.0000 </r>
       <r>  -12.5342    1.0000 </r>
       <r>  -11.3372    1.0000 </r>
       <r>  -10.8665    1.0000 </r>
       <r>  -10.6108    1.0000 </r>
       <r>  -10.4077    1.0000 </r>
       <r>  -10.2876    1.0000 </r>
       <r>   -5.8159    1.0000 </r>
       <r>   -4.9742    1.0000 </r>
       <r>   -2.6627    1.0000 </r>
       <r>   -2.4506    1.0000 </r>
       <r>   -2.0405    1.0000 </r>
       <r>   -1.5772    1.0000 </r>
       <r>   -1.1722    1.0000 </r>
       <r>   -0.9857    1.0000 </r>
       <r>   -0.7907    1.0000 </r>
       <r>   -0.6578    1.0000 </r>
       <r>   -0.5142    1.0000 </r>
       <r>   -0.3908    1.0000 </r>
       <r>   -0.2706    1.0000 </r>
       <r>   -0.2525    1.0000 </r>
       <r>   -0.1930    1.0000 </r>
       <r>   -0.1430    1.0000 </r>
       <r>   -0.0491    1.0000 </r>
       <r>    0.0123    1.0000 </r>
       <r>    1.2885    1.0000 </r>
       <r>    1.3101    1.0000 </r>
       <r>    1.3883    1.0000 </r>
       <r>    1.4076    1.0000 </r>
       <r>    1.4332    1.0000 </r>
       <r>    1.4546    1.0000 </r>
       <r>    1.4913    1.0000 </r>
       <r>    1.5642    1.0000 </r>
       <r>    1.6863    1.0000 </r>
       <r>    1.9157    1.0000 </r>
       <r>    1.9876    1.0000 </r>
       <r>    2.1461    1.0000 </r>
       <r>    2.3325    1.0000 </r>
       <r>    2.5625    1.0000 </r>
       <r>    2.6162    1.0000 </r>
       <r>    2.8280    1.0000 </r>
       <r>    2.9729    1.0000 </r>
       <r>    3.2470    1.0000 </r>
       <r>    3.6815    1.0000 </r>
       <r>    3.9426    1.0003 </r>
       <r>    6.1835   -0.0000 </r>
       <r>    6.6397   -0.0000 </r>
       <r>    7.7572    0.0000 </r>
       <r>    7.9743    0.0000 </r>
       <r>    8.2193    0.0000 </r>
       <r>    8.5625    0.0000 </r>
       <r>    9.3839    0.0000 </r>
       <r>    9.5760    0.0000 </r>
       <r>    9.9017    0.0000 </r>
       <r>   10.2554    0.0000 </r>
       <r>   10.5480    0.0000 </r>
       <r>   10.7880    0.0000 </r>
       <r>   10.8456    0.0000 </r>
       <r>   11.0708    0.0000 </r>
       <r>   11.5662    0.0000 </r>
       <r>   12.0211    0.0000 </r>
       <r>   12.5310    0.0000 </r>
       <r>   12.7516    0.0000 </r>
       <r>   12.9541    0.0000 </r>
       <r>   13.3088    0.0000 </r>
       <r>   13.4115    0.0000 </r>
       <r>   13.7400    0.0000 </r>
       <r>   13.8490    0.0000 </r>
       <r>   14.7248    0.0000 </r>
      </set>
      <set comment="kpoint 15">
       <r>  -68.6459    1.0000 </r>
       <r>  -68.6455    1.0000 </r>
       <r>  -68.6349    1.0000 </r>
       <r>  -68.6335    1.0000 </r>
       <r>  -68.6147    1.0000 </r>
       <r>  -68.6140    1.0000 </r>
       <r>  -68.5968    1.0000 </r>
       <r>  -68.5966    1.0000 </r>
       <r>  -68.5792    1.0000 </r>
       <r>  -68.5781    1.0000 </r>
       <r>  -68.5619    1.0000 </r>
       <r>  -68.5619    1.0000 </r>
       <r>  -12.4508    1.0000 </r>
       <r>  -11.4676    1.0000 </r>
       <r>  -10.8584    1.0000 </r>
       <r>  -10.6913    1.0000 </r>
       <r>  -10.3806    1.0000 </r>
       <r>  -10.2530    1.0000 </r>
       <r>   -5.7582    1.0000 </r>
       <r>   -4.8037    1.0000 </r>
       <r>   -2.4414    1.0000 </r>
       <r>   -2.2320    1.0000 </r>
       <r>   -1.8500    1.0000 </r>
       <r>   -1.7071    1.0000 </r>
       <r>   -1.4334    1.0000 </r>
       <r>   -1.1935    1.0000 </r>
       <r>   -0.8905    1.0000 </r>
       <r>   -0.7505    1.0000 </r>
       <r>   -0.6055    1.0000 </r>
       <r>   -0.5232    1.0000 </r>
       <r>   -0.3143    1.0000 </r>
       <r>   -0.2426    1.0000 </r>
       <r>   -0.1723    1.0000 </r>
       <r>   -0.1225    1.0000 </r>
       <r>   -0.0555    1.0000 </r>
       <r>    0.0622    1.0000 </r>
       <r>    1.3010    1.0000 </r>
       <r>    1.3355    1.0000 </r>
       <r>    1.3686    1.0000 </r>
       <r>    1.4304    1.0000 </r>
       <r>    1.4450    1.0000 </r>
       <r>    1.4782    1.0000 </r>
       <r>    1.5202    1.0000 </r>
       <r>    1.5451    1.0000 </r>
       <r>    1.6427    1.0000 </r>
       <r>    1.8703    1.0000 </r>
       <r>    1.9775    1.0000 </r>
       <r>    2.0488    1.0000 </r>
       <r>    2.1936    1.0000 </r>
       <r>    2.4746    1.0000 </r>
       <r>    2.5945    1.0000 </r>
       <r>    2.8382    1.0000 </r>
       <r>    2.9608    1.0000 </r>
       <r>    3.1309    1.0000 </r>
       <r>    3.5661    1.0000 </r>
       <r>    3.7225    1.0000 </r>
       <r>    6.4468   -0.0000 </r>
       <r>    6.9568    0.0000 </r>
       <r>    8.1709    0.0000 </r>
       <r>    8.2527    0.0000 </r>
       <r>    8.8377    0.0000 </r>
       <r>    9.1204    0.0000 </r>
       <r>    9.4620    0.0000 </r>
       <r>    9.8114    0.0000 </r>
       <r>   10.0834    0.0000 </r>
       <r>   10.3050    0.0000 </r>
       <r>   10.7390    0.0000 </r>
       <r>   11.0747    0.0000 </r>
       <r>   11.2914    0.0000 </r>
       <r>   11.4213    0.0000 </r>
       <r>   11.6327    0.0000 </r>
       <r>   11.7236    0.0000 </r>
       <r>   12.0861    0.0000 </r>
       <r>   12.2677    0.0000 </r>
       <r>   12.5400    0.0000 </r>
       <r>   12.6565    0.0000 </r>
       <r>   12.9547    0.0000 </r>
       <r>   13.0588    0.0000 </r>
       <r>   13.6532    0.0000 </r>
       <r>   14.6981    0.0000 </r>
      </set>
      <set comment="kpoint 16">
       <r>  -68.6458    1.0000 </r>
       <r>  -68.6454    1.0000 </r>
       <r>  -68.6347    1.0000 </r>
       <r>  -68.6333    1.0000 </r>
       <r>  -68.6145    1.0000 </r>
       <r>  -68.6138    1.0000 </r>
       <r>  -68.5967    1.0000 </r>
       <r>  -68.5965    1.0000 </r>
       <r>  -68.5791    1.0000 </r>
       <r>  -68.5779    1.0000 </r>
       <r>  -68.5619    1.0000 </r>
       <r>  -68.5617    1.0000 </r>
       <r>  -12.3170    1.0000 </r>
       <r>  -11.4755    1.0000 </r>
       <r>  -10.8696    1.0000 </r>
       <r>  -10.8527    1.0000 </r>
       <r>  -10.4128    1.0000 </r>
       <r>  -10.2925    1.0000 </r>
       <r>   -5.7388    1.0000 </r>
       <r>   -4.6910    1.0000 </r>
       <r>   -2.2386    1.0000 </r>
       <r>   -2.1344    1.0000 </r>
       <r>   -1.9239    1.0000 </r>
       <r>   -1.8512    1.0000 </r>
       <r>   -1.4577    1.0000 </r>
       <r>   -1.4007    1.0000 </r>
       <r>   -1.0432    1.0000 </r>
       <r>   -0.5212    1.0000 </r>
       <r>   -0.4608    1.0000 </r>
       <r>   -0.3470    1.0000 </r>
       <r>   -0.2518    1.0000 </r>
       <r>   -0.2181    1.0000 </r>
       <r>   -0.1604    1.0000 </r>
       <r>   -0.1115    1.0000 </r>
       <r>   -0.0928    1.0000 </r>
       <r>    0.0822    1.0000 </r>
       <r>    1.2606    1.0000 </r>
       <r>    1.3460    1.0000 </r>
       <r>    1.3967    1.0000 </r>
       <r>    1.4345    1.0000 </r>
       <r>    1.4518    1.0000 </r>
       <r>    1.5091    1.0000 </r>
       <r>    1.5349    1.0000 </r>
       <r>    1.5426    1.0000 </r>
       <r>    1.7521    1.0000 </r>
       <r>    1.8171    1.0000 </r>
       <r>    2.0398    1.0000 </r>
       <r>    2.1362    1.0000 </r>
       <r>    2.2840    1.0000 </r>
       <r>    2.3107    1.0000 </r>
       <r>    2.5208    1.0000 </r>
       <r>    2.7682    1.0000 </r>
       <r>    2.8969    1.0000 </r>
       <r>    3.2605    1.0000 </r>
       <r>    3.4945    1.0000 </r>
       <r>    3.7985    1.0000 </r>
       <r>    6.1876   -0.0000 </r>
       <r>    6.8411   -0.0000 </r>
       <r>    7.8224    0.0000 </r>
       <r>    8.0419    0.0000 </r>
       <r>    8.1959    0.0000 </r>
       <r>    8.7309    0.0000 </r>
       <r>    9.1572    0.0000 </r>
       <r>    9.3098    0.0000 </r>
       <r>   10.2209    0.0000 </r>
       <r>   10.4405    0.0000 </r>
       <r>   10.5926    0.0000 </r>
       <r>   11.0065    0.0000 </r>
       <r>   11.2363    0.0000 </r>
       <r>   11.4901    0.0000 </r>
       <r>   11.8142    0.0000 </r>
       <r>   12.1736    0.0000 </r>
       <r>   12.2056    0.0000 </r>
       <r>   12.5701    0.0000 </r>
       <r>   12.6889    0.0000 </r>
       <r>   13.1148    0.0000 </r>
       <r>   13.4161    0.0000 </r>
       <r>   13.8838    0.0000 </r>
       <r>   14.0033    0.0000 </r>
       <r>   14.5274    0.0000 </r>
      </set>
      <set comment="kpoint 17">
       <r>  -68.6457    1.0000 </r>
       <r>  -68.6453    1.0000 </r>
       <r>  -68.6348    1.0000 </r>
       <r>  -68.6335    1.0000 </r>
       <r>  -68.6144    1.0000 </r>
       <r>  -68.6140    1.0000 </r>
       <r>  -68.5967    1.0000 </r>
       <r>  -68.5966    1.0000 </r>
       <r>  -68.5789    1.0000 </r>
       <r>  -68.5782    1.0000 </r>
       <r>  -68.5617    1.0000 </r>
       <r>  -68.5618    1.0000 </r>
       <r>  -12.3639    1.0000 </r>
       <r>  -11.4786    1.0000 </r>
       <r>  -10.9257    1.0000 </r>
       <r>  -10.6597    1.0000 </r>
       <r>  -10.4290    1.0000 </r>
       <r>  -10.3083    1.0000 </r>
       <r>   -5.7922    1.0000 </r>
       <r>   -4.8363    1.0000 </r>
       <r>   -2.5229    1.0000 </r>
       <r>   -2.2399    1.0000 </r>
       <r>   -1.8742    1.0000 </r>
       <r>   -1.6451    1.0000 </r>
       <r>   -1.5015    1.0000 </r>
       <r>   -1.3121    1.0000 </r>
       <r>   -0.9049    1.0000 </r>
       <r>   -0.5318    1.0000 </r>
       <r>   -0.3778    1.0000 </r>
       <r>   -0.3511    1.0000 </r>
       <r>   -0.2223    1.0000 </r>
       <r>   -0.1794    1.0000 </r>
       <r>   -0.1591    1.0000 </r>
       <r>   -0.0775    1.0000 </r>
       <r>   -0.0276    1.0000 </r>
       <r>    0.0783    1.0000 </r>
       <r>    1.1888    1.0000 </r>
       <r>    1.3628    1.0000 </r>
       <r>    1.3967    1.0000 </r>
       <r>    1.4413    1.0000 </r>
       <r>    1.4621    1.0000 </r>
       <r>    1.5056    1.0000 </r>
       <r>    1.5180    1.0000 </r>
       <r>    1.5849    1.0000 </r>
       <r>    1.7387    1.0000 </r>
       <r>    1.8181    1.0000 </r>
       <r>    2.0353    1.0000 </r>
       <r>    2.2361    1.0000 </r>
       <r>    2.2706    1.0000 </r>
       <r>    2.3626    1.0000 </r>
       <r>    2.4862    1.0000 </r>
       <r>    2.6702    1.0000 </r>
       <r>    3.0515    1.0000 </r>
       <r>    3.4086    1.0000 </r>
       <r>    3.7256    1.0000 </r>
       <r>    3.8619    1.0000 </r>
       <r>    5.9362   -0.0000 </r>
       <r>    6.6153   -0.0000 </r>
       <r>    7.3481    0.0000 </r>
       <r>    7.9376    0.0000 </r>
       <r>    8.0693    0.0000 </r>
       <r>    8.7326    0.0000 </r>
       <r>    8.9078    0.0000 </r>
       <r>    9.1401    0.0000 </r>
       <r>    9.8430    0.0000 </r>
       <r>   10.3282    0.0000 </r>
       <r>   10.5573    0.0000 </r>
       <r>   10.9287    0.0000 </r>
       <r>   11.2246    0.0000 </r>
       <r>   11.4175    0.0000 </r>
       <r>   11.7454    0.0000 </r>
       <r>   12.0038    0.0000 </r>
       <r>   12.4971    0.0000 </r>
       <r>   12.8330    0.0000 </r>
       <r>   13.2050    0.0000 </r>
       <r>   14.1827    0.0000 </r>
       <r>   14.7143    0.0000 </r>
       <r>   15.1741    0.0000 </r>
       <r>   15.9150    0.0000 </r>
       <r>   16.5673    0.0000 </r>
      </set>
      <set comment="kpoint 18">
       <r>  -68.6459    1.0000 </r>
       <r>  -68.6455    1.0000 </r>
       <r>  -68.6349    1.0000 </r>
       <r>  -68.6335    1.0000 </r>
       <r>  -68.6146    1.0000 </r>
       <r>  -68.6139    1.0000 </r>
       <r>  -68.5969    1.0000 </r>
       <r>  -68.5967    1.0000 </r>
       <r>  -68.5792    1.0000 </r>
       <r>  -68.5780    1.0000 </r>
       <r>  -68.5618    1.0000 </r>
       <r>  -68.5619    1.0000 </r>
       <r>  -12.4921    1.0000 </r>
       <r>  -11.4297    1.0000 </r>
       <r>  -10.9371    1.0000 </r>
       <r>  -10.5846    1.0000 </r>
       <r>  -10.3830    1.0000 </r>
       <r>  -10.2148    1.0000 </r>
       <r>   -5.8208    1.0000 </r>
       <r>   -4.9403    1.0000 </r>
       <r>   -2.5689    1.0000 </r>
       <r>   -2.3627    1.0000 </r>
       <r>   -1.9187    1.0000 </r>
       <r>   -1.5959    1.0000 </r>
       <r>   -1.4117    1.0000 </r>
       <r>   -1.1231    1.0000 </r>
       <r>   -0.8172    1.0000 </r>
       <r>   -0.6794    1.0000 </r>
       <r>   -0.5303    1.0000 </r>
       <r>   -0.4693    1.0000 </r>
       <r>   -0.2538    1.0000 </r>
       <r>   -0.1975    1.0000 </r>
       <r>   -0.1668    1.0000 </r>
       <r>   -0.1180    1.0000 </r>
       <r>   -0.0383    1.0000 </r>
       <r>    0.0569    1.0000 </r>
       <r>    1.2798    1.0000 </r>
       <r>    1.3233    1.0000 </r>
       <r>    1.3440    1.0000 </r>
       <r>    1.4330    1.0000 </r>
       <r>    1.4507    1.0000 </r>
       <r>    1.4674    1.0000 </r>
       <r>    1.4922    1.0000 </r>
       <r>    1.5572    1.0000 </r>
       <r>    1.7260    1.0000 </r>
       <r>    1.8415    1.0000 </r>
       <r>    1.9691    1.0000 </r>
       <r>    2.0995    1.0000 </r>
       <r>    2.3344    1.0000 </r>
       <r>    2.4484    1.0000 </r>
       <r>    2.5402    1.0000 </r>
       <r>    2.8479    1.0000 </r>
       <r>    3.0514    1.0000 </r>
       <r>    3.2630    1.0000 </r>
       <r>    3.6697    1.0000 </r>
       <r>    3.7800    1.0000 </r>
       <r>    6.2663   -0.0000 </r>
       <r>    6.8009   -0.0000 </r>
       <r>    7.8084    0.0000 </r>
       <r>    8.1394    0.0000 </r>
       <r>    8.3456    0.0000 </r>
       <r>    8.9212    0.0000 </r>
       <r>    9.3477    0.0000 </r>
[...]
       <r>   11.7070    0.0000 </r>
       <r>   11.8931    0.0000 </r>
       <r>   12.2952    0.0000 </r>
       <r>   12.6584    0.0000 </r>
       <r>   13.0080    0.0000 </r>
       <r>   13.2317    0.0000 </r>
       <r>   13.6636    0.0000 </r>
       <r>   14.0660    0.0000 </r>
       <r>   14.3932    0.0000 </r>
       <r>   16.5185    0.0000 </r>
      </set>
      <set comment="kpoint 42">
       <r>  -68.6456    1.0000 </r>
       <r>  -68.6457    1.0000 </r>
       <r>  -68.6345    1.0000 </r>
       <r>  -68.6334    1.0000 </r>
       <r>  -68.6144    1.0000 </r>
       <r>  -68.6140    1.0000 </r>
       <r>  -68.5967    1.0000 </r>
       <r>  -68.5964    1.0000 </r>
       <r>  -68.5789    1.0000 </r>
       <r>  -68.5781    1.0000 </r>
       <r>  -68.5620    1.0000 </r>
       <r>  -68.5617    1.0000 </r>
       <r>  -12.1720    1.0000 </r>
       <r>  -11.6989    1.0000 </r>
       <r>  -10.7213    1.0000 </r>
       <r>  -10.6922    1.0000 </r>
       <r>  -10.5936    1.0000 </r>
       <r>  -10.3991    1.0000 </r>
       <r>   -5.4394    1.0000 </r>
       <r>   -5.0690    1.0000 </r>
       <r>   -2.5076    1.0000 </r>
       <r>   -2.3805    1.0000 </r>
       <r>   -1.9635    1.0000 </r>
       <r>   -1.3650    1.0000 </r>
       <r>   -1.3313    1.0000 </r>
       <r>   -1.0552    1.0000 </r>
       <r>   -0.8309    1.0000 </r>
       <r>   -0.7707    1.0000 </r>
       <r>   -0.4200    1.0000 </r>
       <r>   -0.3339    1.0000 </r>
       <r>   -0.2712    1.0000 </r>
       <r>   -0.2103    1.0000 </r>
       <r>   -0.1470    1.0000 </r>
       <r>   -0.1406    1.0000 </r>
       <r>   -0.0141    1.0000 </r>
       <r>    0.0283    1.0000 </r>
       <r>    1.1724    1.0000 </r>
       <r>    1.3702    1.0000 </r>
       <r>    1.3965    1.0000 </r>
       <r>    1.4522    1.0000 </r>
       <r>    1.4535    1.0000 </r>
       <r>    1.4982    1.0000 </r>
       <r>    1.5164    1.0000 </r>
       <r>    1.5490    1.0000 </r>
       <r>    1.7423    1.0000 </r>
       <r>    1.8208    1.0000 </r>
       <r>    1.9735    1.0000 </r>
       <r>    2.2268    1.0000 </r>
       <r>    2.3988    1.0000 </r>
       <r>    2.6118    1.0000 </r>
       <r>    2.6546    1.0000 </r>
       <r>    2.9134    1.0000 </r>
       <r>    3.0665    1.0000 </r>
       <r>    3.1159    1.0000 </r>
       <r>    3.2846    1.0000 </r>
       <r>    3.5794    1.0000 </r>
       <r>    6.2914   -0.0000 </r>
       <r>    6.3848   -0.0000 </r>
       <r>    7.3567    0.0000 </r>
       <r>    7.5209    0.0000 </r>
       <r>    8.3103    0.0000 </r>
       <r>    8.3380    0.0000 </r>
       <r>    9.1014    0.0000 </r>
       <r>    9.3584    0.0000 </r>
       <r>    9.7164    0.0000 </r>
       <r>    9.9534    0.0000 </r>
       <r>   10.5248    0.0000 </r>
       <r>   10.9916    0.0000 </r>
       <r>   11.4228    0.0000 </r>
       <r>   11.5680    0.0000 </r>
       <r>   12.0214    0.0000 </r>
       <r>   12.2831    0.0000 </r>
       <r>   12.4284    0.0000 </r>
       <r>   12.4738    0.0000 </r>
       <r>   13.0336    0.0000 </r>
       <r>   13.1520    0.0000 </r>
       <r>   14.1406    0.0000 </r>
       <r>   14.4433    0.0000 </r>
       <r>   15.1631    0.0000 </r>
       <r>   15.8691    0.0000 </r>
      </set>
     </set>
    </set>
   </array>
  </eigenvalues>
  <separator name="orbital magnetization" >
   <v name="MAGDIPOLOUT">      0.00000000      0.00000000      0.00000000</v>
  </separator>
  <dos>
   <i name="efermi">      4.21920157 </i>
   <total>
    <array>
     <dimension dim="1">gridpoints</dimension>
     <dimension dim="2">spin</dimension>
     <field>energy</field>
     <field>total</field>
     <field>integrated</field>
     <set>
      <set comment="spin 1">
       <r>   -72.8301     0.0000     0.0000 </r>
       <r>   -72.5238     0.0000     0.0000 </r>
       <r>   -72.2174     0.0000     0.0000 </r>
       <r>   -71.9110     0.0000     0.0000 </r>
       <r>   -71.6046     0.0000     0.0000 </r>
       <r>   -71.2982     0.0000     0.0000 </r>
       <r>   -70.9918     0.0000     0.0000 </r>
       <r>   -70.6855     0.0000     0.0000 </r>
       <r>   -70.3791     0.0000     0.0000 </r>
       <r>   -70.0727     0.0000     0.0000 </r>
       <r>   -69.7663     0.0000     0.0000 </r>
       <r>   -69.4599    -0.0000    -0.0000 </r>
       <r>   -69.1536    -0.0000    -0.0000 </r>
       <r>   -68.8472    -0.2212    -0.0678 </r>
       <r>   -68.5408    70.5500    21.5474 </r>
       <r>   -68.2344     8.0054    24.0001 </r>
       <r>   -67.9280    -0.0004    24.0000 </r>
       <r>   -67.6217     0.0000    24.0000 </r>
       <r>   -67.3153     0.0000    24.0000 </r>
       <r>   -67.0089     0.0000    24.0000 </r>
       <r>   -66.7025     0.0000    24.0000 </r>
       <r>   -66.3961     0.0000    24.0000 </r>
       <r>   -66.0898     0.0000    24.0000 </r>
       <r>   -65.7834     0.0000    24.0000 </r>
       <r>   -65.4770     0.0000    24.0000 </r>
       <r>   -65.1706     0.0000    24.0000 </r>
       <r>   -64.8642     0.0000    24.0000 </r>
       <r>   -64.5578     0.0000    24.0000 </r>
       <r>   -64.2515     0.0000    24.0000 </r>
       <r>   -63.9451     0.0000    24.0000 </r>
       <r>   -63.6387     0.0000    24.0000 </r>
       <r>   -63.3323     0.0000    24.0000 </r>
       <r>   -63.0259     0.0000    24.0000 </r>
       <r>   -62.7196     0.0000    24.0000 </r>
       <r>   -62.4132     0.0000    24.0000 </r>
       <r>   -62.1068     0.0000    24.0000 </r>
       <r>   -61.8004     0.0000    24.0000 </r>
       <r>   -61.4940     0.0000    24.0000 </r>
       <r>   -61.1877     0.0000    24.0000 </r>
       <r>   -60.8813     0.0000    24.0000 </r>
       <r>   -60.5749     0.0000    24.0000 </r>
       <r>   -60.2685     0.0000    24.0000 </r>
       <r>   -59.9621     0.0000    24.0000 </r>
       <r>   -59.6557     0.0000    24.0000 </r>
       <r>   -59.3494     0.0000    24.0000 </r>
       <r>   -59.0430     0.0000    24.0000 </r>
       <r>   -58.7366     0.0000    24.0000 </r>
       <r>   -58.4302     0.0000    24.0000 </r>
       <r>   -58.1238     0.0000    24.0000 </r>
       <r>   -57.8175     0.0000    24.0000 </r>
       <r>   -57.5111     0.0000    24.0000 </r>
       <r>   -57.2047     0.0000    24.0000 </r>
       <r>   -56.8983     0.0000    24.0000 </r>
       <r>   -56.5919     0.0000    24.0000 </r>
       <r>   -56.2856     0.0000    24.0000 </r>
       <r>   -55.9792     0.0000    24.0000 </r>
       <r>   -55.6728     0.0000    24.0000 </r>
       <r>   -55.3664     0.0000    24.0000 </r>
       <r>   -55.0600     0.0000    24.0000 </r>
       <r>   -54.7537     0.0000    24.0000 </r>
       <r>   -54.4473     0.0000    24.0000 </r>
       <r>   -54.1409     0.0000    24.0000 </r>
       <r>   -53.8345     0.0000    24.0000 </r>
       <r>   -53.5281     0.0000    24.0000 </r>
       <r>   -53.2217     0.0000    24.0000 </r>
       <r>   -52.9154     0.0000    24.0000 </r>
       <r>   -52.6090     0.0000    24.0000 </r>
       <r>   -52.3026     0.0000    24.0000 </r>
       <r>   -51.9962     0.0000    24.0000 </r>
       <r>   -51.6898     0.0000    24.0000 </r>
       <r>   -51.3835     0.0000    24.0000 </r>
       <r>   -51.0771     0.0000    24.0000 </r>
       <r>   -50.7707     0.0000    24.0000 </r>
       <r>   -50.4643     0.0000    24.0000 </r>
       <r>   -50.1579     0.0000    24.0000 </r>
       <r>   -49.8516     0.0000    24.0000 </r>
       <r>   -49.5452     0.0000    24.0000 </r>
       <r>   -49.2388     0.0000    24.0000 </r>
       <r>   -48.9324     0.0000    24.0000 </r>
       <r>   -48.6260     0.0000    24.0000 </r>
       <r>   -48.3197     0.0000    24.0000 </r>
       <r>   -48.0133     0.0000    24.0000 </r>
       <r>   -47.7069     0.0000    24.0000 </r>
       <r>   -47.4005     0.0000    24.0000 </r>
       <r>   -47.0941     0.0000    24.0000 </r>
       <r>   -46.7877     0.0000    24.0000 </r>
       <r>   -46.4814     0.0000    24.0000 </r>
       <r>   -46.1750     0.0000    24.0000 </r>
       <r>   -45.8686     0.0000    24.0000 </r>
       <r>   -45.5622     0.0000    24.0000 </r>
       <r>   -45.2558     0.0000    24.0000 </r>
       <r>   -44.9495     0.0000    24.0000 </r>
       <r>   -44.6431     0.0000    24.0000 </r>
       <r>   -44.3367     0.0000    24.0000 </r>
       <r>   -44.0303     0.0000    24.0000 </r>
       <r>   -43.7239     0.0000    24.0000 </r>
       <r>   -43.4176     0.0000    24.0000 </r>
       <r>   -43.1112     0.0000    24.0000 </r>
       <r>   -42.8048     0.0000    24.0000 </r>
       <r>   -42.4984     0.0000    24.0000 </r>
       <r>   -42.1920     0.0000    24.0000 </r>
       <r>   -41.8856     0.0000    24.0000 </r>
       <r>   -41.5793     0.0000    24.0000 </r>
       <r>   -41.2729     0.0000    24.0000 </r>
       <r>   -40.9665     0.0000    24.0000 </r>
       <r>   -40.6601     0.0000    24.0000 </r>
       <r>   -40.3537     0.0000    24.0000 </r>
       <r>   -40.0474     0.0000    24.0000 </r>
       <r>   -39.7410     0.0000    24.0000 </r>
       <r>   -39.4346     0.0000    24.0000 </r>
       <r>   -39.1282     0.0000    24.0000 </r>
       <r>   -38.8218     0.0000    24.0000 </r>
       <r>   -38.5155     0.0000    24.0000 </r>
       <r>   -38.2091     0.0000    24.0000 </r>
       <r>   -37.9027     0.0000    24.0000 </r>
       <r>   -37.5963     0.0000    24.0000 </r>
       <r>   -37.2899     0.0000    24.0000 </r>
       <r>   -36.9836     0.0000    24.0000 </r>
       <r>   -36.6772     0.0000    24.0000 </r>
       <r>   -36.3708     0.0000    24.0000 </r>
       <r>   -36.0644     0.0000    24.0000 </r>
       <r>   -35.7580     0.0000    24.0000 </r>
       <r>   -35.4516     0.0000    24.0000 </r>
       <r>   -35.1453     0.0000    24.0000 </r>
       <r>   -34.8389     0.0000    24.0000 </r>
       <r>   -34.5325     0.0000    24.0000 </r>
       <r>   -34.2261     0.0000    24.0000 </r>
       <r>   -33.9197     0.0000    24.0000 </r>
       <r>   -33.6134     0.0000    24.0000 </r>
       <r>   -33.3070     0.0000    24.0000 </r>
       <r>   -33.0006     0.0000    24.0000 </r>
       <r>   -32.6942     0.0000    24.0000 </r>
       <r>   -32.3878     0.0000    24.0000 </r>
       <r>   -32.0815     0.0000    24.0000 </r>
       <r>   -31.7751     0.0000    24.0000 </r>
       <r>   -31.4687     0.0000    24.0000 </r>
       <r>   -31.1623     0.0000    24.0000 </r>
       <r>   -30.8559     0.0000    24.0000 </r>
       <r>   -30.5496     0.0000    24.0000 </r>
       <r>   -30.2432     0.0000    24.0000 </r>
       <r>   -29.9368     0.0000    24.0000 </r>
       <r>   -29.6304     0.0000    24.0000 </r>
       <r>   -29.3240     0.0000    24.0000 </r>
       <r>   -29.0176     0.0000    24.0000 </r>
       <r>   -28.7113     0.0000    24.0000 </r>
       <r>   -28.4049     0.0000    24.0000 </r>
       <r>   -28.0985     0.0000    24.0000 </r>
       <r>   -27.7921     0.0000    24.0000 </r>
       <r>   -27.4857     0.0000    24.0000 </r>
       <r>   -27.1794     0.0000    24.0000 </r>
       <r>   -26.8730     0.0000    24.0000 </r>
       <r>   -26.5666     0.0000    24.0000 </r>
       <r>   -26.2602     0.0000    24.0000 </r>
       <r>   -25.9538     0.0000    24.0000 </r>
       <r>   -25.6475     0.0000    24.0000 </r>
       <r>   -25.3411     0.0000    24.0000 </r>
       <r>   -25.0347     0.0000    24.0000 </r>
       <r>   -24.7283     0.0000    24.0000 </r>
       <r>   -24.4219     0.0000    24.0000 </r>
       <r>   -24.1155     0.0000    24.0000 </r>
       <r>   -23.8092     0.0000    24.0000 </r>
       <r>   -23.5028     0.0000    24.0000 </r>
       <r>   -23.1964     0.0000    24.0000 </r>
       <r>   -22.8900     0.0000    24.0000 </r>
       <r>   -22.5836     0.0000    24.0000 </r>
       <r>   -22.2773     0.0000    24.0000 </r>
       <r>   -21.9709     0.0000    24.0000 </r>
       <r>   -21.6645     0.0000    24.0000 </r>
       <r>   -21.3581     0.0000    24.0000 </r>
       <r>   -21.0517     0.0000    24.0000 </r>
       <r>   -20.7454     0.0000    24.0000 </r>
       <r>   -20.4390     0.0000    24.0000 </r>
       <r>   -20.1326     0.0000    24.0000 </r>
       <r>   -19.8262     0.0000    24.0000 </r>
       <r>   -19.5198     0.0000    24.0000 </r>
       <r>   -19.2135     0.0000    24.0000 </r>
       <r>   -18.9071     0.0000    24.0000 </r>
       <r>   -18.6007     0.0000    24.0000 </r>
       <r>   -18.2943     0.0000    24.0000 </r>
       <r>   -17.9879     0.0000    24.0000 </r>
       <r>   -17.6815     0.0000    24.0000 </r>
       <r>   -17.3752     0.0000    24.0000 </r>
       <r>   -17.0688     0.0000    24.0000 </r>
       <r>   -16.7624     0.0000    24.0000 </r>
       <r>   -16.4560     0.0000    24.0000 </r>
       <r>   -16.1496     0.0000    24.0000 </r>
       <r>   -15.8433     0.0000    24.0000 </r>
       <r>   -15.5369     0.0000    24.0000 </r>
       <r>   -15.2305     0.0000    24.0000 </r>
       <r>   -14.9241     0.0000    24.0000 </r>
       <r>   -14.6177     0.0000    24.0000 </r>
       <r>   -14.3114     0.0000    24.0000 </r>
       <r>   -14.0050     0.0000    24.0000 </r>
       <r>   -13.6986    -0.0000    24.0000 </r>
       <r>   -13.3922    -0.0000    24.0000 </r>
       <r>   -13.0858    -0.0000    24.0000 </r>
       <r>   -12.7795    -0.0042    23.9987 </r>
       <r>   -12.4731     1.4522    24.4437 </r>
       <r>   -12.1667     3.5888    25.5432 </r>
       <r>   -11.8603     1.9488    26.1403 </r>
       <r>   -11.5539     2.1994    26.8141 </r>
       <r>   -11.2475     3.2078    27.7970 </r>
       <r>   -10.9412     2.3105    28.5049 </r>
       <r>   -10.6348     9.5544    31.4322 </r>
       <r>   -10.3284     9.6857    34.3997 </r>
       <r>   -10.0220     5.2376    36.0044 </r>
       <r>    -9.7156    -0.0143    36.0000 </r>
       <r>    -9.4093    -0.0000    36.0000 </r>
       <r>    -9.1029     0.0000    36.0000 </r>
       <r>    -8.7965     0.0000    36.0000 </r>
       <r>    -8.4901     0.0000    36.0000 </r>
       <r>    -8.1837     0.0000    36.0000 </r>
       <r>    -7.8774     0.0000    36.0000 </r>
       <r>    -7.5710     0.0000    36.0000 </r>
       <r>    -7.2646     0.0000    36.0000 </r>
       <r>    -6.9582    -0.0000    36.0000 </r>
       <r>    -6.6518    -0.0000    36.0000 </r>
       <r>    -6.3454    -0.0000    36.0000 </r>
       <r>    -6.0391     0.0330    36.0101 </r>
       <r>    -5.7327     3.3993    37.0516 </r>
       <r>    -5.4263     2.0696    37.6857 </r>
       <r>    -5.1199     1.9384    38.2796 </r>
       <r>    -4.8135     3.3460    39.3047 </r>
       <r>    -4.5072     2.2052    39.9804 </r>
       <r>    -4.2008     0.0641    40.0000 </r>
       <r>    -3.8944    -0.0000    40.0000 </r>
       <r>    -3.5880    -0.0000    40.0000 </r>
       <r>    -3.2816    -0.0000    40.0000 </r>
       <r>    -2.9753    -0.0004    39.9999 </r>
       <r>    -2.6689     0.3597    40.1101 </r>
       <r>    -2.3625     6.1151    41.9836 </r>
       <r>    -2.0561     6.7154    44.0411 </r>
       <r>    -1.7497     7.3663    46.2980 </r>
       <r>    -1.4434     6.4411    48.2714 </r>
       <r>    -1.1370     8.7522    50.9529 </r>
       <r>    -0.8306     9.1057    53.7427 </r>
       <r>    -0.5242    11.2670    57.1947 </r>
       <r>    -0.2178    18.2373    62.7823 </r>
       <r>     0.0886    28.9387    71.6485 </r>
       <r>     0.3949     1.1478    72.0002 </r>
       <r>     0.7013    -0.0006    72.0000 </r>
       <r>     1.0077    -0.0207    71.9937 </r>
       <r>     1.3141     7.5175    74.2969 </r>
       <r>     1.6205    44.7545    88.0088 </r>
       <r>     1.9268    13.8101    92.2400 </r>
       <r>     2.2332    13.1641    96.2732 </r>
       <r>     2.5396    12.8735   100.2174 </r>
       <r>     2.8460    11.1858   103.6445 </r>
       <r>     3.1524     9.0369   106.4133 </r>
       <r>     3.4587     7.9231   108.8408 </r>
       <r>     3.7651     6.9578   110.9725 </r>
       <r>     4.0715     3.1192   111.9281 </r>
       <r>     4.3779     0.2351   112.0002 </r>
       <r>     4.6843    -0.0005   112.0000 </r>
       <r>     4.9907    -0.0000   112.0000 </r>
       <r>     5.2970    -0.0001   112.0000 </r>
       <r>     5.6034     0.0761   112.0233 </r>
       <r>     5.9098     0.1578   112.0716 </r>
       <r>     6.2162     2.6069   112.8703 </r>
       <r>     6.5226     4.3665   114.2081 </r>
       <r>     6.8289     3.4856   115.2760 </r>
       <r>     7.1353     2.4311   116.0209 </r>
       <r>     7.4417     1.4330   116.4599 </r>
       <r>     7.7481     3.1843   117.4355 </r>
       <r>     8.0545     5.5093   119.1235 </r>
       <r>     8.3608     5.5526   120.8247 </r>
       <r>     8.6672     4.6330   122.2442 </r>
       <r>     8.9736     4.5034   123.6239 </r>
       <r>     9.2800     5.5504   125.3245 </r>
       <r>     9.5864     5.6944   127.0691 </r>
       <r>     9.8927     4.7849   128.5351 </r>
       <r>    10.1991     4.4714   129.9051 </r>
       <r>    10.5055     6.4858   131.8922 </r>
       <r>    10.8119     8.2719   134.4265 </r>
       <r>    11.1183     8.2881   136.9659 </r>
       <r>    11.4247     7.9817   139.4113 </r>
       <r>    11.7310     7.9247   141.8393 </r>
       <r>    12.0374     6.5546   143.8475 </r>
       <r>    12.3438     5.8756   145.6477 </r>
       <r>    12.6502     6.6482   147.6845 </r>
       <r>    12.9566     5.7806   149.4556 </r>
       <r>    13.2629     6.1907   151.3523 </r>
       <r>    13.5693     5.3470   152.9905 </r>
       <r>    13.8757     4.0707   154.2377 </r>
       <r>    14.1821     3.1759   155.2108 </r>
       <r>    14.4885     4.5742   156.6122 </r>
       <r>    14.7948     3.4977   157.6839 </r>
       <r>    15.1012     1.3978   158.1121 </r>
       <r>    15.4076     1.5983   158.6018 </r>
       <r>    15.7140     1.2156   158.9742 </r>
       <r>    16.0204     1.6900   159.4920 </r>
       <r>    16.3267     0.3294   159.5929 </r>
       <r>    16.6331     0.6837   159.8024 </r>
       <r>    16.9395     0.5232   159.9627 </r>
       <r>    17.2459     0.1218   160.0000 </r>
       <r>    17.5523    -0.0000   160.0000 </r>
       <r>    17.8587     0.0000   160.0000 </r>
       <r>    18.1650     0.0000   160.0000 </r>
       <r>    18.4714     0.0000   160.0000 </r>
       <r>    18.7778     0.0000   160.0000 </r>
       <r>    19.0842     0.0000   160.0000 </r>
      </set>
     </set>
    </array>
   </total>
  </dos>
 </calculation>
 <structure name="finalpos" >
  <crystal>
   <varray name="basis" >
    <v>       3.22479600      -5.64383000       0.03157200 </v>
    <v>       3.22479600       5.64383000       0.03157200 </v>
    <v>      -2.10194600       0.00000000       6.07553700 </v>
   </varray>
   <i name="volume">    221.90106089 </i>
   <varray name="rec_basis" >
    <v>       0.15452516      -0.08859232       0.05346088 </v>
    <v>       0.15452516       0.08859232       0.05346088 </v>
    <v>      -0.00160600       0.00000000       0.16403888 </v>
   </varray>
  </crystal>
  <varray name="positions" >
   <v>       0.61844300       0.12117100       0.11953300 </v>
   <v>       0.12117100       0.61844300       0.61953300 </v>
   <v>       0.96295700       0.79032200       0.11881300 </v>
   <v>       0.79032200       0.96295700       0.61881300 </v>
   <v>       0.43973200       0.26574260       0.59904700 </v>
   <v>       0.26728100       0.43973200       0.09904700 </v>
   <v>       0.07949800       0.91167500       0.49736300 </v>
   <v>       0.57140300       0.41236400       0.98018400 </v>
   <v>       0.73711100       0.25006200       0.49504900 </v>
   <v>       0.41236400       0.57140300       0.48018400 </v>
   <v>       0.91167500       0.07949800       0.99736300 </v>
   <v>       0.25006200       0.73711100       0.99504900 </v>
  </varray>
 </structure>
</modeling>
