       N       E                     dE             d eps       ncg     rms          ort
SDA:   1     0.757240954664E+02    0.75724E+02   -0.21360E+03  3360   0.534E+03 0.000E+00
DMP:   2    -0.824167841700E+01   -0.83966E+02   -0.14721E+03  3360   0.396E+03-0.742E+02
DMP:   3    -0.148198366030E+02   -0.65782E+01   -0.20811E+03  3360   0.712E+03-0.503E+03
DMP:   4    -0.222479646628E+02   -0.74281E+01   -0.10831E+03  3360   0.394E+03-0.322E+03
DMP:   5    -0.607277712397E+02   -0.38480E+02   -0.15174E+02  3360   0.713E+02-0.874E+02
DMP:   6    -0.658684028193E+02   -0.51406E+01   -0.83160E+01  3360   0.251E+02-0.112E+02
DMP:   7    -0.674313369818E+02   -0.15629E+01   -0.42175E+01  3360   0.150E+02-0.116E+02
DMP:   8    -0.690748802129E+02   -0.16435E+01   -0.78555E+00  3360   0.289E+01-0.243E+01
DMP:   9    -0.693925335446E+02   -0.31765E+00   -0.39210E+00  3360   0.112E+01-0.365E+00
DMP:  10    -0.694974948038E+02   -0.10496E+00   -0.15545E+00  3360   0.558E+00-0.445E+00
DMP:  11    -0.695683921985E+02   -0.70897E-01   -0.37052E-01  3360   0.106E+00-0.354E-01
DMP:  12    -0.695807804805E+02   -0.12388E-01   -0.23260E-01  3360   0.701E-01-0.312E-01
DMP:  13    -0.695906112868E+02   -0.98308E-02   -0.51951E-02  3360   0.164E-01-0.893E-02
DMP:  14    -0.695931202604E+02   -0.25090E-02   -0.38519E-02  3360   0.980E-02-0.435E-03
DMP:  15    -0.695946592962E+02   -0.15390E-02   -0.10610E-02  3360   0.339E-02-0.194E-02
DMP:  16    -0.695952471008E+02   -0.58780E-03   -0.41948E-03  3360   0.932E-03 0.306E-03
DMP:  17    -0.695954257714E+02   -0.17867E-03   -0.21351E-03  3360   0.591E-03-0.149E-03
DMP:  18    -0.695955463171E+02   -0.12055E-03   -0.58291E-04  3360   0.122E-03 0.608E-04
DMP:  19    -0.695955766528E+02   -0.30336E-04   -0.36570E-04  3360   0.907E-04 0.177E-05
DMP:  20    -0.695955973506E+02   -0.20698E-04   -0.12111E-04  3360   0.249E-04 0.141E-04
DMP:  21    -0.695956051735E+02   -0.78228E-05   -0.73874E-05  3360   0.147E-04 0.999E-05
   1 F= -.69595605E+02 E0= -.69595799E+02  d E =0.582979E-03
