 vasp.5.3.3 18Dez12 (build Nov 13 2015 09:58:40) complex                        
  
 executed on             LinuxIFC date 2017.10.18  13:04:00
 running on   48 total cores
 distrk:  each k-point on   16 cores,    3 groups
 distr:  one band on NCORES_PER_BAND=   1 cores,   16 groups


--------------------------------------------------------------------------------------------------------


 INCAR:
 POTCAR:    PAW_PBE Cu_pv 06Sep2000               
 POTCAR:    PAW_PBE Ge 05Jan2001                  
 POTCAR:    PAW_PBE S 17Jan2003                   

 ----------------------------------------------------------------------------- 
|                                                                             |
|           W    W    AA    RRRRR   N    N  II  N    N   GGGG   !!!           |
|           W    W   A  A   R    R  NN   N  II  NN   N  G    G  !!!           |
|           W    W  A    A  R    R  N N  N  II  N N  N  G       !!!           |
|           W WW W  AAAAAA  RRRRR   N  N N  II  N  N N  G  GGG   !            |
|           WW  WW  A    A  R   R   N   NN  II  N   NN  G    G                |
|           W    W  A    A  R    R  N    N  II  N    N   GGGG   !!!           |
|                                                                             |
|      For optimal performance we recommend that you set                      |
|        NPAR = 4 - approx SQRT( number of cores)                             |
|      (number of cores/NPAR must be integer)                                 |
|      This setting will greatly improve the performance of VASP for DFT.     |
|      The default NPAR=number of cores might be grossly inefficient          |
|      on modern multi-core architectures or massively parallel machines.     |
|      Do your own testing.                                                   |
|      Unfortunately you need to use the default for hybrid, GW and RPA       |
|      calculations.                                                          |
|                                                                             |
 ----------------------------------------------------------------------------- 


 ----------------------------------------------------------------------------- 
|                                                                             |
|           W    W    AA    RRRRR   N    N  II  N    N   GGGG   !!!           |
|           W    W   A  A   R    R  NN   N  II  NN   N  G    G  !!!           |
|           W    W  A    A  R    R  N N  N  II  N N  N  G       !!!           |
|           W WW W  AAAAAA  RRRRR   N  N N  II  N  N N  G  GGG   !            |
|           WW  WW  A    A  R   R   N   NN  II  N   NN  G    G                |
|           W    W  A    A  R    R  N    N  II  N    N   GGGG   !!!           |
|                                                                             |
|      You have enabled k-point parallelism (KPAR>1).                         |
|      This developmental code was originally  written by Paul Kent at ORNL,  |
|      and carefully double checked in Vienna.                                |
|      GW as well as linear response parallelism added by Martijn Marsman     |
|      and Georg Kresse.                                                      |
|      Carefully verify results versus KPAR=1.                                |
|      Report problems to Paul Kent and Vienna.                               |
|                                                                             |
 ----------------------------------------------------------------------------- 

 POTCAR:    PAW_PBE Cu_pv 06Sep2000               
   VRHFIN =Cu: d10 p1                                                           
   LEXCH  = PE                                                                  
   EATOM  =  4120.1201 eV,  302.8203 Ry                                         
                                                                                
   TITEL  = PAW_PBE Cu_pv 06Sep2000                                             
   LULTRA =        F    use ultrasoft PP ?                                      
   IUNSCR =        1    unscreen: 0-lin 1-nonlin 2-no                           
   RPACOR =    1.500    partial core radius                                     
   POMASS =   63.546; ZVAL   =   17.000    mass and valenz                      
   RCORE  =    2.000    outmost cutoff radius                                   
   RWIGS  =    2.000; RWIGS  =    1.058    wigner-seitz radius (au A)           
   ENMAX  =  368.648; ENMIN  =  276.486 eV                                      
   RCLOC  =    1.304    cutoff for local pot                                    
   LCOR   =        T    correct aug charges                                     
   LPAW   =        T    paw PP                                                  
   EAUG   =  758.233                                                            
   DEXC   =    0.000                                                            
   RMAX   =    2.046    core radius for proj-oper                               
   RAUG   =    1.300    factor for augmentation sphere                          
   RDEP   =    2.025    radius for radial grids                                 
   RDEPT  =    1.558    core radius for aug-charge                              
                                                                                
   Atomic configuration                                                         
    8 entries                                                                   
     n  l   j            E        occ.                                          
     1  0  0.50     -8850.2467   2.0000                                         
     2  0  0.50     -1062.3498   2.0000                                         
     2  1  1.50      -916.8226   6.0000                                         
     3  0  0.50      -114.6929   2.0000                                         
     3  1  1.50       -72.1325   6.0000                                         
     3  2  2.50        -5.0394  10.0000                                         
     4  0  0.50        -4.6097   1.0000                                         
     4  3  2.50        -1.3606   0.0000                                         
   Description                                                                  
     l       E           TYP  RCUT    TYP  RCUT                                 
     1    -72.1324777     23  1.700                                             
     1     -1.3605826     23  1.700                                             
     2     -5.0393776     23  2.000                                             
     2     -6.3999602     23  2.000                                             
     0     -4.6097062     23  1.800                                             
     0     14.1620818     23  1.800                                             
  local pseudopotential read in
  partial core-charges read in
  partial kinetic energy density read in
  atomic valenz-charges read in
  non local Contribution for L=           1  read in
    real space projection operators read in
  non local Contribution for L=           1  read in
    real space projection operators read in
  non local Contribution for L=           2  read in
    real space projection operators read in
  non local Contribution for L=           2  read in
    real space projection operators read in
  non local Contribution for L=           0  read in
    real space projection operators read in
  non local Contribution for L=           0  read in
    real space projection operators read in
    PAW grid and wavefunctions read in
 
   number of l-projection  operators is LMAX  =           6
   number of lm-projection operators is LMMAX =          18
 
 POTCAR:    PAW_PBE Ge 05Jan2001                  
   VRHFIN =Ge: s2p2                                                             
   LEXCH  = PE                                                                  
   EATOM  =   104.9960 eV,    7.7170 Ry                                         
                                                                                
   TITEL  = PAW_PBE Ge 05Jan2001                                                
   LULTRA =        F    use ultrasoft PP ?                                      
   IUNSCR =        1    unscreen: 0-lin 1-nonlin 2-no                           
   RPACOR =    2.170    partial core radius                                     
   POMASS =   72.610; ZVAL   =    4.000    mass and valenz                      
   RCORE  =    2.300    outmost cutoff radius                                   
   RWIGS  =    2.300; RWIGS  =    1.217    wigner-seitz radius (au A)           
   ENMAX  =  173.807; ENMIN  =  130.355 eV                                      
   ICORE  =        3    local potential                                         
   LCOR   =        T    correct aug charges                                     
   LPAW   =        T    paw PP                                                  
   EAUG   =  385.843                                                            
   DEXC   =    0.000                                                            
   RMAX   =    2.342    core radius for proj-oper                               
   RAUG   =    1.300    factor for augmentation sphere                          
   RDEP   =    2.318    radius for radial grids                                 
   RDEPT  =    2.103    core radius for aug-charge                              
                                                                                
   Atomic configuration                                                         
   10 entries                                                                   
     n  l   j            E        occ.                                          
     1  0  0.50    -10959.8463   2.0000                                         
     2  0  0.50     -1371.6056   2.0000                                         
     2  1  1.50     -1198.4791   6.0000                                         
     3  0  0.50      -168.4733   2.0000                                         
     3  1  1.50      -115.6019   6.0000                                         
     3  2  2.50       -29.3106  10.0000                                         
     4  0  0.50       -11.7309   2.0000                                         
     4  1  0.50        -3.8952   2.0000                                         
     4  2  1.50        -4.0817   0.0000                                         
     4  3  2.50        -4.0817   0.0000                                         
   Description                                                                  
     l       E           TYP  RCUT    TYP  RCUT                                 
     0    -11.7309493     23  2.300                                             
     0     -7.4578696     23  2.300                                             
     1     -3.8952261     23  2.300                                             
     1      6.1178114     23  2.300                                             
     2     -4.0817478     23  2.300                                             
     3     -1.3605826      7  2.300                                             
  local pseudopotential read in
  partial core-charges read in
  partial kinetic energy density read in
  atomic valenz-charges read in
  non local Contribution for L=           0  read in
    real space projection operators read in
  non local Contribution for L=           0  read in
    real space projection operators read in
  non local Contribution for L=           1  read in
    real space projection operators read in
  non local Contribution for L=           1  read in
    real space projection operators read in
  non local Contribution for L=           2  read in
    real space projection operators read in
    PAW grid and wavefunctions read in
 
   number of l-projection  operators is LMAX  =           5
   number of lm-projection operators is LMMAX =          13
 
 POTCAR:    PAW_PBE S 17Jan2003                   
   VRHFIN =S : s2p4                                                             
   LEXCH  = PE                                                                  
   EATOM  =   276.8230 eV,   20.3459 Ry                                         
                                                                                
   TITEL  = PAW_PBE S 17Jan2003                                                 
   LULTRA =        F    use ultrasoft PP ?                                      
   IUNSCR =        1    unscreen: 0-lin 1-nonlin 2-no                           
   RPACOR =    1.500    partial core radius                                     
   POMASS =   32.066; ZVAL   =    6.000    mass and valenz                      
   RCORE  =    1.900    outmost cutoff radius                                   
   RWIGS  =    2.200; RWIGS  =    1.164    wigner-seitz radius (au A)           
   ENMAX  =  280.000; ENMIN  =  194.016 eV                                      
   ICORE  =        2    local potential                                         
   LCOR   =        T    correct aug charges                                     
   LPAW   =        T    paw PP                                                  
   EAUG   =  335.092                                                            
   DEXC   =     .000                                                            
   RMAX   =    2.867    core radius for proj-oper                               
   RAUG   =    1.300    factor for augmentation sphere                          
   RDEP   =    1.954    radius for radial grids                                 
   QCUT   =   -4.360; QGAM   =    8.721    optimization parameters              
                                                                                
   Description                                                                  
     l     E      TYP  RCUT    TYP  RCUT                                        
     0   .000     23  1.900                                                     
     0   .000     23  1.900                                                     
     1   .000     23  1.900                                                     
     1   .000     23  1.900                                                     
     2   .000     23  1.900                                                     
  local pseudopotential read in
  partial core-charges read in
  atomic valenz-charges read in
  non local Contribution for L=           0  read in
    real space projection operators read in
  non local Contribution for L=           0  read in
    real space projection operators read in
  non local Contribution for L=           1  read in
    real space projection operators read in
  non local Contribution for L=           1  read in
    real space projection operators read in
    PAW grid and wavefunctions read in
 
   number of l-projection  operators is LMAX  =           4
   number of lm-projection operators is LMMAX =           8
 
  PAW_PBE Cu_pv 06Sep2000               :
 energy of atom  1       EATOM=-4120.1201
 kinetic energy error for atom=    0.0996 (will be added to EATOM!!)
  PAW_PBE Ge 05Jan2001                  :
 energy of atom  2       EATOM= -104.9960
 kinetic energy error for atom=    0.0003 (will be added to EATOM!!)
  PAW_PBE S 17Jan2003                   :
 energy of atom  3       EATOM= -276.8230
 kinetic energy error for atom=    0.0046 (will be added to EATOM!!)
 
 
 POSCAR: Cu Ge S                                 
  positions in direct lattice
  No initial velocities read in
 exchange correlation table for  LEXCH =        8
   RHO(1)=    0.500       N(1)  =     2000
   RHO(2)=  100.500       N(2)  =     4000
 


--------------------------------------------------------------------------------------------------------


 ion  position               nearest neighbor table
   1  0.618  0.120  0.120-  11 2.29   9 2.29  12 2.30   8 2.36
   2  0.121  0.618  0.620-  12 2.29   7 2.29   9 2.30  10 2.35
   3  0.963  0.790  0.119-  11 2.30  12 2.30   7 2.31   8 2.36
   4  0.790  0.963  0.619-   7 2.30   9 2.30  11 2.31  10 2.36
   5  0.440  0.267  0.599-   7 2.19   9 2.19  10 2.31   8 2.33
   6  0.267  0.440  0.099-  11 2.19  12 2.19   8 2.31  10 2.33
   7  0.079  0.912  0.497-   5 2.19   2 2.29   4 2.30   3 2.31
   8  0.571  0.412  0.980-   6 2.31   5 2.33   3 2.36   1 2.36
   9  0.737  0.250  0.495-   5 2.19   1 2.29   4 2.30   2 2.30
  10  0.412  0.571  0.480-   5 2.31   6 2.33   2 2.35   4 2.36
  11  0.912  0.079  0.997-   6 2.19   1 2.29   3 2.30   4 2.31
  12  0.250  0.737  0.995-   6 2.19   2 2.29   3 2.30   1 2.30
 
  Warning from LATTYP: Got some problem with cell dimensions!
  Tried to take original basis but could not verify dimensions!
  LATTYP: Found a base centered monoclinic cell.
 ALAT       =     6.4499010947
 B/A-ratio  =     1.7500516418
 C/A-ratio  =     1.9305142024
 COS(beta)  =    -0.4326083233
  
  Lattice vectors:
  
 A1 = (   3.2247960000,   5.6438300000,   0.0315720000)
 A2 = (   3.2247960000,  -5.6438300000,   0.0315720000)
 A3 = ( -10.7972380000,   0.0000000000,  -6.2018250000)


Analysis of symmetry for initial positions (statically):
=====================================================================
 Subroutine PRICEL returns:
 Original cell was already a primitive cell.
 

 Routine SETGRP: Setting up the symmetry group for a 
 base centered monoclinic supercell.


 Subroutine GETGRP returns: Found  1 space group operations
 (whereof  1 operations were pure point group operations)
 out of a pool of  4 trial point group operations.


The static configuration has the point symmetry C_1 .


Analysis of symmetry for dynamics (positions and initial velocities):
=====================================================================
 Subroutine PRICEL returns:
 Original cell was already a primitive cell.
 

 Routine SETGRP: Setting up the symmetry group for a 
 base centered monoclinic supercell.


 Subroutine GETGRP returns: Found  1 space group operations
 (whereof  1 operations were pure point group operations)
 out of a pool of  4 trial point group operations.


The dynamic configuration has the point symmetry C_1 .


 irot  :   1
 --------------------------------------------------------------------
 isymop:   1   0   0
           0   1   0
           0   0   1

 gtrans:     0.0000000     0.0000000     0.0000000

 ptrans:     0.0000000     0.0000000     0.0000000
 rotmap:
 (   1->   1)  (   2->   2)  (   3->   3)  (   4->   4)  (   5->   5) 
 (   6->   6)  (   7->   7)  (   8->   8)  (   9->   9)  (  10->  10) 
 (  11->  11)  (  12->  12) 
 
 
 KPOINTS: pymatgen 4.7.6+ generated KPOINTS with g

Automatic generation of k-mesh.
Space group operators:
 irot       det(A)        alpha          n_x          n_y          n_z        tau_x        tau_y        tau_z
    1     1.000000     0.000000     1.000000     0.000000     0.000000     0.000000     0.000000     0.000000
 
 Subroutine IBZKPT returns following result:
 ===========================================
 
 Found     42 irreducible k-points:
 
 Following reciprocal coordinates:
            Coordinates               Weight
  0.000000  0.000000  0.000000      1.000000
  0.250000  0.000000  0.000000      2.000000
  0.500000  0.000000  0.000000      1.000000
  0.000000  0.250000  0.000000      2.000000
  0.250000  0.250000  0.000000      2.000000
  0.500000  0.250000 -0.000000      2.000000
 -0.250000  0.250000  0.000000      2.000000
  0.000000  0.500000  0.000000      1.000000
  0.250000  0.500000 -0.000000      2.000000
  0.500000  0.500000  0.000000      1.000000
 -0.000000 -0.000000  0.200000      2.000000
  0.250000  0.000000  0.200000      2.000000
  0.500000  0.000000  0.200000      2.000000
 -0.250000 -0.000000  0.200000      2.000000
  0.000000  0.250000  0.200000      2.000000
  0.250000  0.250000  0.200000      2.000000
  0.500000  0.250000  0.200000      2.000000
 -0.250000  0.250000  0.200000      2.000000
  0.000000  0.500000  0.200000      2.000000
  0.250000  0.500000  0.200000      2.000000
  0.500000  0.500000  0.200000      2.000000
 -0.250000  0.500000  0.200000      2.000000
 -0.000000 -0.250000  0.200000      2.000000
  0.250000 -0.250000  0.200000      2.000000
  0.500000 -0.250000  0.200000      2.000000
 -0.250000 -0.250000  0.200000      2.000000
 -0.000000 -0.000000  0.400000      2.000000
  0.250000  0.000000  0.400000      2.000000
  0.500000  0.000000  0.400000      2.000000
 -0.250000  0.000000  0.400000      2.000000
  0.000000  0.250000  0.400000      2.000000
  0.250000  0.250000  0.400000      2.000000
  0.500000  0.250000  0.400000      2.000000
 -0.250000  0.250000  0.400000      2.000000
  0.000000  0.500000  0.400000      2.000000
  0.250000  0.500000  0.400000      2.000000
  0.500000  0.500000  0.400000      2.000000
 -0.250000  0.500000  0.400000      2.000000
  0.000000 -0.250000  0.400000      2.000000
  0.250000 -0.250000  0.400000      2.000000
  0.500000 -0.250000  0.400000      2.000000
 -0.250000 -0.250000  0.400000      2.000000
 
 Following cartesian coordinates:
            Coordinates               Weight
  0.000000  0.000000  0.000000      1.000000
  0.038631 -0.022148  0.013365      2.000000
  0.077263 -0.044296  0.026730      1.000000
  0.038631  0.022148  0.013365      2.000000
  0.077263  0.000000  0.026730      2.000000
  0.115894 -0.022148  0.040096      2.000000
  0.000000  0.044296  0.000000      2.000000
  0.077263  0.044296  0.026730      1.000000
  0.115894  0.022148  0.040096      2.000000
  0.154525  0.000000  0.053461      1.000000
 -0.000321  0.000000  0.032808      2.000000
  0.038310 -0.022148  0.046173      2.000000
  0.076941 -0.044296  0.059538      2.000000
 -0.038952  0.022148  0.019443      2.000000
  0.038310  0.022148  0.046173      2.000000
  0.076941  0.000000  0.059538      2.000000
  0.115573 -0.022148  0.072903      2.000000
 -0.000321  0.044296  0.032808      2.000000
  0.076941  0.044296  0.059538      2.000000
  0.115573  0.022148  0.072903      2.000000
  0.154204  0.000000  0.086269      2.000000
  0.038310  0.066444  0.046173      2.000000
 -0.038952 -0.022148  0.019443      2.000000
 -0.000321 -0.044296  0.032808      2.000000
  0.038310 -0.066444  0.046173      2.000000
 -0.077584  0.000000  0.006077      2.000000
 -0.000642  0.000000  0.065616      2.000000
  0.037989 -0.022148  0.078981      2.000000
  0.076620 -0.044296  0.092346      2.000000
 -0.039274  0.022148  0.052250      2.000000
  0.037989  0.022148  0.078981      2.000000
  0.076620  0.000000  0.092346      2.000000
  0.115251 -0.022148  0.105711      2.000000
 -0.000642  0.044296  0.065616      2.000000
  0.076620  0.044296  0.092346      2.000000
  0.115251  0.022148  0.105711      2.000000
  0.153883  0.000000  0.119076      2.000000
  0.037989  0.066444  0.078981      2.000000
 -0.039274 -0.022148  0.052250      2.000000
 -0.000642 -0.044296  0.065616      2.000000
  0.037989 -0.066444  0.078981      2.000000
 -0.077905  0.000000  0.038885      2.000000
 
 
 Subroutine IBZKPT_HF returns following result:
 ==============================================
 
 Found     80 k-points in 1st BZ
 the following     80 k-points will be used (e.g. in the exchange kernel)
 Following reciprocal coordinates:   # in IRBZ
  0.000000  0.000000  0.000000       1 t-inv F
  0.250000  0.000000  0.000000       2 t-inv F
  0.500000  0.000000  0.000000       3 t-inv F
  0.000000  0.250000  0.000000       4 t-inv F
  0.250000  0.250000  0.000000       5 t-inv F
  0.500000  0.250000 -0.000000       6 t-inv F
 -0.250000  0.250000  0.000000       7 t-inv F
  0.000000  0.500000  0.000000       8 t-inv F
  0.250000  0.500000 -0.000000       9 t-inv F
  0.500000  0.500000  0.000000      10 t-inv F
 -0.000000 -0.000000  0.200000      11 t-inv F
  0.250000  0.000000  0.200000      12 t-inv F
  0.500000  0.000000  0.200000      13 t-inv F
 -0.250000 -0.000000  0.200000      14 t-inv F
  0.000000  0.250000  0.200000      15 t-inv F
  0.250000  0.250000  0.200000      16 t-inv F
  0.500000  0.250000  0.200000      17 t-inv F
 -0.250000  0.250000  0.200000      18 t-inv F
  0.000000  0.500000  0.200000      19 t-inv F
  0.250000  0.500000  0.200000      20 t-inv F
  0.500000  0.500000  0.200000      21 t-inv F
 -0.250000  0.500000  0.200000      22 t-inv F
 -0.000000 -0.250000  0.200000      23 t-inv F
  0.250000 -0.250000  0.200000      24 t-inv F
  0.500000 -0.250000  0.200000      25 t-inv F
 -0.250000 -0.250000  0.200000      26 t-inv F
 -0.000000 -0.000000  0.400000      27 t-inv F
  0.250000  0.000000  0.400000      28 t-inv F
  0.500000  0.000000  0.400000      29 t-inv F
 -0.250000  0.000000  0.400000      30 t-inv F
  0.000000  0.250000  0.400000      31 t-inv F
  0.250000  0.250000  0.400000      32 t-inv F
  0.500000  0.250000  0.400000      33 t-inv F
 -0.250000  0.250000  0.400000      34 t-inv F
  0.000000  0.500000  0.400000      35 t-inv F
  0.250000  0.500000  0.400000      36 t-inv F
  0.500000  0.500000  0.400000      37 t-inv F
 -0.250000  0.500000  0.400000      38 t-inv F
  0.000000 -0.250000  0.400000      39 t-inv F
  0.250000 -0.250000  0.400000      40 t-inv F
  0.500000 -0.250000  0.400000      41 t-inv F
 -0.250000 -0.250000  0.400000      42 t-inv F
 -0.250000 -0.000000 -0.000000       2 t-inv T
 -0.000000 -0.250000 -0.000000       4 t-inv T
 -0.250000 -0.250000  0.000000       5 t-inv T
 -0.500000 -0.250000  0.000000       6 t-inv T
  0.250000 -0.250000  0.000000       7 t-inv T
 -0.250000 -0.500000  0.000000       9 t-inv T
  0.000000  0.000000 -0.200000      11 t-inv T
 -0.250000 -0.000000 -0.200000      12 t-inv T
 -0.500000 -0.000000 -0.200000      13 t-inv T
  0.250000  0.000000 -0.200000      14 t-inv T
 -0.000000 -0.250000 -0.200000      15 t-inv T
 -0.250000 -0.250000 -0.200000      16 t-inv T
 -0.500000 -0.250000 -0.200000      17 t-inv T
  0.250000 -0.250000 -0.200000      18 t-inv T
 -0.000000 -0.500000 -0.200000      19 t-inv T
 -0.250000 -0.500000 -0.200000      20 t-inv T
 -0.500000 -0.500000 -0.200000      21 t-inv T
  0.250000 -0.500000 -0.200000      22 t-inv T
  0.000000  0.250000 -0.200000      23 t-inv T
 -0.250000  0.250000 -0.200000      24 t-inv T
 -0.500000  0.250000 -0.200000      25 t-inv T
  0.250000  0.250000 -0.200000      26 t-inv T
  0.000000  0.000000 -0.400000      27 t-inv T
 -0.250000 -0.000000 -0.400000      28 t-inv T
 -0.500000 -0.000000 -0.400000      29 t-inv T
  0.250000 -0.000000 -0.400000      30 t-inv T
 -0.000000 -0.250000 -0.400000      31 t-inv T
 -0.250000 -0.250000 -0.400000      32 t-inv T
 -0.500000 -0.250000 -0.400000      33 t-inv T
  0.250000 -0.250000 -0.400000      34 t-inv T
 -0.000000 -0.500000 -0.400000      35 t-inv T
 -0.250000 -0.500000 -0.400000      36 t-inv T
 -0.500000 -0.500000 -0.400000      37 t-inv T
  0.250000 -0.500000 -0.400000      38 t-inv T
 -0.000000  0.250000 -0.400000      39 t-inv T
 -0.250000  0.250000 -0.400000      40 t-inv T
 -0.500000  0.250000 -0.400000      41 t-inv T
  0.250000  0.250000 -0.400000      42 t-inv T


--------------------------------------------------------------------------------------------------------




 Dimension of arrays:
   k-points           NKPTS =     42   k-points in BZ     NKDIM =     80   number of bands    NBANDS=     80
   number of dos      NEDOS =    301   number of ions     NIONS =     12
   non local maximal  LDIM  =      6   non local SUM 2l+1 LMDIM =     18
   total plane-waves  NPLWV =  32768
   max r-space proj   IRMAX =      1   max aug-charges    IRDMAX=   8224
   dimension x,y,z NGX =    32 NGY =   32 NGZ =   32
   dimension x,y,z NGXF=    64 NGYF=   64 NGZF=   64
   support grid    NGXF=    64 NGYF=   64 NGZF=   64
   ions per type =               4   2   6
 NGX,Y,Z   is equivalent  to a cutoff of   8.18,  8.18,  8.27 a.u.
 NGXF,Y,Z  is equivalent  to a cutoff of  16.37, 16.37, 16.55 a.u.


 I would recommend the setting:
   dimension x,y,z NGX =    32 NGY =   32 NGZ =   31
 SYSTEM =  CGS                                     
 POSCAR =  Cu Ge S                                 

 Startparameter for this run:
   NWRITE =      2    write-flag & timer
   PREC   = normal    normal or accurate (medium, high low for compatibility)
   ISTART =      1    job   : 0-new  1-cont  2-samecut
   ICHARG =      0    charge: 1-file 2-atom 10-const
   ISPIN  =      1    spin polarized calculation?
   LNONCOLLINEAR =      F non collinear calculations
   LSORBIT =      F    spin-orbit coupling
   INIWAV =      1    electr: 0-lowe 1-rand  2-diag
   LASPH  =      F    aspherical Exc in radial PAW
   METAGGA=      F    non-selfconsistent MetaGGA calc.

 Electronic Relaxation 1
   ENCUT  =  400.0 eV  29.40 Ry    5.42 a.u.  10.60 10.60 10.48*2*pi/ulx,y,z
   ENINI  =  400.0     initial cutoff
   ENAUG  =  758.2 eV  augmentation charge cutoff
   NELM   =     60;   NELMIN=  2; NELMDL=  0     # of ELM steps 
   EDIFF  = 0.1E-04   stopping-criterion for ELM
   LREAL  =      F    real-space projection
   NLSPLINE    = F    spline interpolate recip. space projectors
   LCOMPAT=      F    compatible to vasp.4.4
   GGA_COMPAT  = T    GGA compatible to vasp.4.4-vasp.4.6
   LMAXPAW     = -100 max onsite density
   LMAXMIX     =    2 max onsite mixed and CHGCAR
   VOSKOWN=      0    Vosko Wilk Nusair interpolation
   ROPT   =    0.00000   0.00000   0.00000
 Ionic relaxation
   EDIFFG = 0.1E-03   stopping-criterion for IOM
   NSW    =      0    number of steps for IOM
   NBLOCK =      1;   KBLOCK =      1    inner block; outer block 
   IBRION =     -1    ionic relax: 0-MD 1-quasi-New 2-CG
   NFREE  =      0    steps in history (QN), initial steepest desc. (CG)
   ISIF   =      0    stress and relaxation
   IWAVPR =     10    prediction:  0-non 1-charg 2-wave 3-comb
   ISYM   =      3    0-nonsym 1-usesym 2-fastsym
   LCORR  =      T    Harris-Foulkes like correction to forces

   POTIM  = 0.5000    time-step for ionic-motion
   TEIN   =    0.0    initial temperature
   TEBEG  =    0.0;   TEEND  =   0.0 temperature during run
   SMASS  =  -3.00    Nose mass-parameter (am)
   estimated Nose-frequenzy (Omega)   =  0.10E-29 period in steps =****** mass=  -0.966E-27a.u.
   SCALEE = 1.0000    scale energy and forces
   NPACO  =    256;   APACO  = 16.0  distance and # of slots for P.C.
   PSTRESS=    0.0 pullay stress

  Mass of Ions in am
   POMASS =  63.55 72.61 32.07
  Ionic Valenz
   ZVAL   =  17.00  4.00  6.00
  Atomic Wigner-Seitz radii
   RWIGS  =  -1.00 -1.00 -1.00
  virtual crystal weights 
   VCA    =   1.00  1.00  1.00
   NELECT =     112.0000    total number of electrons
   NUPDOWN=      -1.0000    fix difference up-down

 DOS related values:
   EMIN   =  10.00;   EMAX   =-10.00  energy-range for DOS
   EFERMI =   0.00
   ISMEAR =     1;   SIGMA  =   0.10  broadening in eV -4-tet -1-fermi 0-gaus

 Electronic relaxation 2 (details)
   IALGO  =     53    algorithm
   LDIAG  =      T    sub-space diagonalisation (order eigenvalues)
   LSUBROT=      T    optimize rotation matrix (better conditioning)
   TURBO    =      0    0=normal 1=particle mesh
   IRESTART =      0    0=no restart 2=restart with 2 vectors
   NREBOOT  =      0    no. of reboots
   NMIN     =      0    reboot dimension
   EREF     =   0.00    reference energy to select bands
   IMIX   =      4    mixing-type and parameters
     AMIX     =   0.40;   BMIX     =  1.00
     AMIX_MAG =   1.60;   BMIX_MAG =  1.00
     AMIN     =   0.10
     WC   =   100.;   INIMIX=   1;  MIXPRE=   1;  MAXMIX= -45

 Intra band minimization:
   WEIMIN = 0.0000     energy-eigenvalue tresh-hold
   EBREAK =  0.31E-07  absolut break condition
   DEPER  =   0.30     relativ break condition  

   TIME   =   0.40     timestep for ELM

  volume/ion in A,a.u.               =      18.49       124.79
  Fermi-wavevector in a.u.,A,eV,Ry     =   1.303450  2.463163 23.116052  1.698982
  Thomas-Fermi vector in A             =   2.434451
 
 Write flags
   LWAVE  =      T    write WAVECAR
   LCHARG =      T    write CHGCAR
   LVTOT  =      F    write LOCPOT, total local potential
   LVHAR  =      F    write LOCPOT, Hartree potential only
   LELF   =      F    write electronic localiz. function (ELF)
   LORBIT =      0    0 simple, 1 ext, 2 COOP (PROOUT)


 Dipole corrections
   LMONO  =      F    monopole corrections only (constant potential shift)
   LDIPOL =      F    correct potential (dipole corrections)
   IDIPOL =      0    1-x, 2-y, 3-z, 4-all directions 
   EPSILON=  1.0000000 bulk dielectric constant

 Exchange correlation treatment:
   GGA     =    PE    GGA type
   LEXCH   =     8    internal setting for exchange type
   VOSKOWN=      0    Vosko Wilk Nusair interpolation
   EXXOEP  =     0    0=HF, 1=EXX-LHF (local Hartree Fock) 2=EXX OEP
   LHFCALC =     T    Hartree Fock is set to
   LSYMGRAD=     F    symmetrize gradient (conserves proper symmetry)
   PRECFOCK=fast      Normal, Fast or Accurate (Low or Medium for compatibility)
   LRHFCALC=     F    long range Hartree Fock
   LRSCOR  =     F    long range correlation only (use DFT for short range part)
   LTHOMAS =     F    Thomas Fermi screening in HF
   LMODELHF=     F    short range full HF, long range fraction AEXX
   ENCUT4O =  -1.0   cutoff for four orbital integrals eV
   LMAXFOCK=     4    L truncation for augmentation on plane wave grid
   LMAXFOCKAE=  -1    L truncation for all-electron charge restoration on plane wave grid
   NMAXFOCKAE=   1    number of basis functions for all-electron charge restoration
   LFOCKAEDFT=     F  apply the AE augmentation even for DFT
   NKREDX  =     1    reduce k-point grid by
   NKREDY  =     1    reduce k-point grid by
   NKREDZ  =     1    reduce k-point grid by
   SHIFTRED=     F    shift reduced grid of Gamma
   HFKIDENT=     F    idential grid for each k-point
   ODDONLY =     F    use only odd q-grid points
   EVENONLY=     F    use only even q-grid points
   HFALPHA =   -1.0000 decay constant for conv. correction
   MCALPHA =    0.0000 extent of test-charge in conv. correction in multipole expansion
   AEXX    =    0.2500 exact exchange contribution
   HFSCREEN=    0.2000 screening length (either q_TF or 0.3 A-1)
   HFSCREENC=   0.2000 screening length for correlation (either q_TF or 0.3 A-1)
   HFRCUT  =    0.0000 spherical cutoff for potential kernel
   ALDAX   =    0.7500 LDA exchange part
   AGGAX   =    0.7500 GGA exchange part
   ALDAC   =    1.0000 LDA correlation
   AGGAC   =    1.0000 GGA correlation
   NBANDSGWLOW=     1    first orbital included in HF term
 Linear response parameters
   LEPSILON=     F    determine dielectric tensor
   LRPA    =     F    only Hartree local field effects (RPA)
   LNABLA  =     F    use nabla operator in PAW spheres
   LVEL    =     F    velocity operator in full k-point grid
   LINTERFAST=   F  fast interpolation
   KINTER  =     0    interpolate to denser k-point grid
   CSHIFT  =0.1000    complex shift for real part using Kramers Kronig
   OMEGAMAX=  -1.0    maximum frequency
   DEG_THRESHOLD= 0.2000000E-02 threshold for treating states as degnerate
   RTIME   =    0.100 relaxation time in fs

 Orbital magnetization related:
   ORBITALMAG=     F  switch on orbital magnetization
   LCHIMAG   =     F  perturbation theory with respect to B field
   DQ        =  0.001000  dq finite difference perturbation B field



--------------------------------------------------------------------------------------------------------


 Static calculation
 charge density and potential will be updated during run
 non-spin polarized calculation
 Conjugate gradient for all bands, subspace preconditioning
 perform sub-space diagonalisation
    before iterative eigenvector-optimisation
 modified Broyden-mixing scheme, WC =      100.0
 initial mixing is a Kerker type mixing with AMIX =  0.4000 and BMIX =      1.0000
 Hartree-type preconditioning will be used
 using additional bands           24
 reciprocal scheme for non local part
 use partial core corrections
 no Harris-corrections to forces 
 use gradient corrections 
 use of overlap-Matrix (Vanderbilt PP)
 Methfessel and Paxton  Order N= 1 SIGMA  =   0.10


--------------------------------------------------------------------------------------------------------


  energy-cutoff  :      400.00
  volume of cell :      221.90
      direct lattice vectors                 reciprocal lattice vectors
     3.224796000 -5.643830000  0.031572000     0.154525165 -0.088592321  0.053460880
     3.224796000  5.643830000  0.031572000     0.154525165  0.088592321  0.053460880
    -2.101946000  0.000000000  6.075537000    -0.001606004  0.000000000  0.164038877

  length of vectors
     6.500240234  6.500240234  6.428866683     0.185969598  0.185969598  0.164046738


 
 old parameters found on file WAVECAR:
  energy-cutoff  :      400.00
  volume of cell :      222.35
      direct lattice vectors                 reciprocal lattice vectors
     3.227235519 -5.642745207  0.030241751     0.154430495 -0.088609353  0.053450002
     3.227235519  5.642745207  0.030241751     0.154430495  0.088609353  0.053450002
    -2.106135241  0.000000000  6.085154262    -0.001534965  0.000000000  0.163803104

  length of vectors

 
 k-points in units of 2pi/SCALE and weight: pymatgen 4.7.6+ generated KPOINTS with g
   0.00000000  0.00000000  0.00000000       0.013
   0.03863129 -0.02214808  0.01336522       0.025
   0.07726258 -0.04429616  0.02673044       0.013
   0.03863129  0.02214808  0.01336522       0.025
   0.07726258  0.00000000  0.02673044       0.025
   0.11589387 -0.02214808  0.04009566       0.025
   0.00000000  0.04429616  0.00000000       0.025
   0.07726258  0.04429616  0.02673044       0.013
   0.11589387  0.02214808  0.04009566       0.025
   0.15452516  0.00000000  0.05346088       0.013
  -0.00032120  0.00000000  0.03280778       0.025
   0.03831009 -0.02214808  0.04617300       0.025
   0.07694138 -0.04429616  0.05953822       0.025
  -0.03895249  0.02214808  0.01944256       0.025
   0.03831009  0.02214808  0.04617300       0.025
   0.07694138  0.00000000  0.05953822       0.025
   0.11557267 -0.02214808  0.07290344       0.025
  -0.00032120  0.04429616  0.03280778       0.025
   0.07694138  0.04429616  0.05953822       0.025
   0.11557267  0.02214808  0.07290344       0.025
   0.15420396  0.00000000  0.08626865       0.025
   0.03831009  0.06644424  0.04617300       0.025
  -0.03895249 -0.02214808  0.01944256       0.025
  -0.00032120 -0.04429616  0.03280778       0.025
   0.03831009 -0.06644424  0.04617300       0.025
  -0.07758378  0.00000000  0.00607734       0.025
  -0.00064240  0.00000000  0.06561555       0.025
   0.03798889 -0.02214808  0.07898077       0.025
   0.07662018 -0.04429616  0.09234599       0.025
  -0.03927369  0.02214808  0.05225033       0.025
   0.03798889  0.02214808  0.07898077       0.025
   0.07662018  0.00000000  0.09234599       0.025
   0.11525147 -0.02214808  0.10571121       0.025
  -0.00064240  0.04429616  0.06561555       0.025
   0.07662018  0.04429616  0.09234599       0.025
   0.11525147  0.02214808  0.10571121       0.025
   0.15388276  0.00000000  0.11907643       0.025
   0.03798889  0.06644424  0.07898077       0.025
  -0.03927369 -0.02214808  0.05225033       0.025
  -0.00064240 -0.04429616  0.06561555       0.025
   0.03798889 -0.06644424  0.07898077       0.025
  -0.07790498  0.00000000  0.03888511       0.025
 
 k-points in reciprocal lattice and weights: pymatgen 4.7.6+ generated KPOINTS with g
   0.00000000  0.00000000  0.00000000       0.013
   0.25000000  0.00000000  0.00000000       0.025
   0.50000000  0.00000000  0.00000000       0.013
   0.00000000  0.25000000  0.00000000       0.025
   0.25000000  0.25000000  0.00000000       0.025
   0.50000000  0.25000000 -0.00000000       0.025
  -0.25000000  0.25000000  0.00000000       0.025
   0.00000000  0.50000000  0.00000000       0.013
   0.25000000  0.50000000 -0.00000000       0.025
   0.50000000  0.50000000  0.00000000       0.013
  -0.00000000 -0.00000000  0.20000000       0.025
   0.25000000  0.00000000  0.20000000       0.025
   0.50000000  0.00000000  0.20000000       0.025
  -0.25000000 -0.00000000  0.20000000       0.025
   0.00000000  0.25000000  0.20000000       0.025
   0.25000000  0.25000000  0.20000000       0.025
   0.50000000  0.25000000  0.20000000       0.025
  -0.25000000  0.25000000  0.20000000       0.025
   0.00000000  0.50000000  0.20000000       0.025
   0.25000000  0.50000000  0.20000000       0.025
   0.50000000  0.50000000  0.20000000       0.025
  -0.25000000  0.50000000  0.20000000       0.025
  -0.00000000 -0.25000000  0.20000000       0.025
   0.25000000 -0.25000000  0.20000000       0.025
   0.50000000 -0.25000000  0.20000000       0.025
  -0.25000000 -0.25000000  0.20000000       0.025
  -0.00000000 -0.00000000  0.40000000       0.025
   0.25000000  0.00000000  0.40000000       0.025
   0.50000000  0.00000000  0.40000000       0.025
  -0.25000000  0.00000000  0.40000000       0.025
   0.00000000  0.25000000  0.40000000       0.025
   0.25000000  0.25000000  0.40000000       0.025
   0.50000000  0.25000000  0.40000000       0.025
  -0.25000000  0.25000000  0.40000000       0.025
   0.00000000  0.50000000  0.40000000       0.025
   0.25000000  0.50000000  0.40000000       0.025
   0.50000000  0.50000000  0.40000000       0.025
  -0.25000000  0.50000000  0.40000000       0.025
   0.00000000 -0.25000000  0.40000000       0.025
   0.25000000 -0.25000000  0.40000000       0.025
   0.50000000 -0.25000000  0.40000000       0.025
  -0.25000000 -0.25000000  0.40000000       0.025
 
 position of ions in fractional coordinates (direct lattice) 
   0.61844300  0.11963260  0.11953300
   0.12117100  0.61844300  0.61953300
   0.96295700  0.79032200  0.11881300
   0.79032200  0.96295700  0.61881300
   0.43973200  0.26728100  0.59904700
   0.26728100  0.43973200  0.09904700
   0.07949800  0.91167500  0.49736300
   0.57140300  0.41236400  0.98018400
   0.73711100  0.25006200  0.49504900
   0.41236400  0.57140300  0.48018400
   0.91167500  0.07949800  0.99736300
   0.25006200  0.73711100  0.99504900
 
 position of ions in cartesian coordinates  (Angst):
   2.12889132 -2.81520113  0.74952969
   1.08287936  2.80651863  3.78734676
   5.40422860 -0.97432259  0.77720730
   4.35325560  0.97432259  3.81497580
   1.02080825 -0.97328413  3.66185403
   2.07178125  0.97328413  0.62408553
   2.15090056  4.69666552  3.05304062
   1.11215405 -0.89758908  5.98620365
   2.14286528 -2.74882176  3.03885554
   2.16312705  0.89758908  2.94843515
   1.09992756 -4.69666552  6.09080912
   1.09189228  2.74882176  6.07662404
 


--------------------------------------------------------------------------------------------------------


 k-point  1 :   0.0000 0.0000 0.0000  plane waves:    4051
 k-point  2 :   0.2500 0.0000 0.0000  plane waves:    4032
 k-point  3 :   0.5000 0.0000 0.0000  plane waves:    4030
 k-point  4 :   0.0000 0.2500 0.0000  plane waves:    4032
 k-point  5 :   0.2500 0.2500 0.0000  plane waves:    4038
 k-point  6 :   0.5000 0.2500-0.0000  plane waves:    4037
 k-point  7 :  -0.2500 0.2500 0.0000  plane waves:    4042
 k-point  8 :   0.0000 0.5000 0.0000  plane waves:    4030
 k-point  9 :   0.2500 0.5000-0.0000  plane waves:    4037
 k-point 10 :   0.5000 0.5000 0.0000  plane waves:    4026
 k-point 11 :  -0.0000-0.0000 0.2000  plane waves:    4046
 k-point 12 :   0.2500 0.0000 0.2000  plane waves:    4034
 k-point 13 :   0.5000 0.0000 0.2000  plane waves:    4025
 k-point 14 :  -0.2500-0.0000 0.2000  plane waves:    4044
 k-point 15 :   0.0000 0.2500 0.2000  plane waves:    4034
 k-point 16 :   0.2500 0.2500 0.2000  plane waves:    4017
 k-point 17 :   0.5000 0.2500 0.2000  plane waves:    4039
 k-point 18 :  -0.2500 0.2500 0.2000  plane waves:    4042
 k-point 19 :   0.0000 0.5000 0.2000  plane waves:    4025
 k-point 20 :   0.2500 0.5000 0.2000  plane waves:    4039
 k-point 21 :   0.5000 0.5000 0.2000  plane waves:    4030
 k-point 22 :  -0.2500 0.5000 0.2000  plane waves:    4030
 k-point 23 :  -0.0000-0.2500 0.2000  plane waves:    4044
 k-point 24 :   0.2500-0.2500 0.2000  plane waves:    4042
 k-point 25 :   0.5000-0.2500 0.2000  plane waves:    4030
 k-point 26 :  -0.2500-0.2500 0.2000  plane waves:    4020
 k-point 27 :  -0.0000-0.0000 0.4000  plane waves:    4027
 k-point 28 :   0.2500 0.0000 0.4000  plane waves:    4034
 k-point 29 :   0.5000 0.0000 0.4000  plane waves:    4013
 k-point 30 :  -0.2500 0.0000 0.4000  plane waves:    4042
 k-point 31 :   0.0000 0.2500 0.4000  plane waves:    4034
 k-point 32 :   0.2500 0.2500 0.4000  plane waves:    4009
 k-point 33 :   0.5000 0.2500 0.4000  plane waves:    4026
 k-point 34 :  -0.2500 0.2500 0.4000  plane waves:    4027
 k-point 35 :   0.0000 0.5000 0.4000  plane waves:    4013
 k-point 36 :   0.2500 0.5000 0.4000  plane waves:    4026
 k-point 37 :   0.5000 0.5000 0.4000  plane waves:    4037
 k-point 38 :  -0.2500 0.5000 0.4000  plane waves:    4022
 k-point 39 :   0.0000-0.2500 0.4000  plane waves:    4042
 k-point 40 :   0.2500-0.2500 0.4000  plane waves:    4027
 k-point 41 :   0.5000-0.2500 0.4000  plane waves:    4022
 k-point 42 :  -0.2500-0.2500 0.4000  plane waves:    4015

 maximum and minimum number of plane-waves per node :      4051     4009

 maximum number of plane-waves:      4051
 maximum index in each direction: 
   IXMAX=   10   IYMAX=   10   IZMAX=   10
   IXMIN=  -11   IYMIN=  -11   IZMIN=  -10

 WARNING: aliasing errors must be expected set NGX to  44 to avoid them
 WARNING: aliasing errors must be expected set NGY to  44 to avoid them
 WARNING: aliasing errors must be expected set NGZ to  42 to avoid them
 aliasing errors are usually negligible using standard VASP settings
 and one can safely disregard these warnings

 serial   3D FFT for wavefunctions
 parallel 3D FFT for charge:
    minimum data exchange during FFTs selected (reduces bandwidth)


 FFT grid for exact exchange (Hartree Fock) 
  NGX = 24; NGY = 24; NGZ = 24

 
 Radii for the augmentation spheres in the non-local exchange
 for species   1 augmentation radius   1.120 (default was   0.830)
       energy cutoff for augmentation   1600.0
 for species   2 augmentation radius   1.570 (default was   1.163)
       energy cutoff for augmentation   1600.0
 for species   3 augmentation radius   1.034 (default was   0.970)
       energy cutoff for augmentation   1600.0

 total amount of memory used by VASP on root node   151697. kBytes
========================================================================

   base      :      30000. kBytes
   nonl-proj :      74517. kBytes
   fftplans  :        702. kBytes
   grid      :       2400. kBytes
   one-center:        186. kBytes
   HF        :        194. kBytes
   nonlr-proj:       1122. kBytes
   wavefun   :      42576. kBytes
 
 Broyden mixing: mesh for mixing (old mesh)
   NGX = 21   NGY = 21   NGZ = 21
  (NGX  = 64   NGY  = 64   NGZ  = 64)
  gives a total of   9261 points

 charge density for first step will be calculated from the start-wavefunctions


--------------------------------------------------------------------------------------------------------


 Maximum index for augmentation-charges          485 (set IRDMAX)


--------------------------------------------------------------------------------------------------------


 initial charge from wavefunction
 First call to EWALD:  gamma=   0.293
 Maximum number of real-space cells 3x 3x 3
 Maximum number of reciprocal cells 3x 3x 3

 FEWALD executed in parallel
    FEWALD:  cpu time    0.00: real time    0.00


----------------------------------------- Iteration    1(   1)  ---------------------------------------


    POTLOK:  cpu time    0.05: real time    0.05
    SETDIJ:  cpu time    2.01: real time    2.03
 
    SUBROT:  cpu time    0.70: real time    0.71
    SUBROT:  cpu time    0.33: real time    0.34
    SUBROT:  cpu time    0.32: real time    0.32
    --------------------------------------------
    SUBRT+:  cpu time    1.35: real time    1.39

 Broyden mixing:
  rms(total) = 0.27715E-01    rms(broyden)= 0.27699E-01
  rms(prec ) = 0.42995E-01
  weight for this iteration     100.00

 eigenvalues of (default mixing * dielectric matrix)
  average eigenvalue GAMMA=   1.7469
  1.0445  2.4492
 
    TRIAL :  cpu time  241.54: real time  242.49
    CORREC:  cpu time    0.00: real time    0.00
    CHARGE:  cpu time    0.06: real time    0.06
    --------------------------------------------
      LOOP:  cpu time  243.67: real time  244.64

 eigenvalue-minimisations  :     0
 total energy-change (2. order) : 0.7572410E+02  (-0.2135978E+03)
 number of electron     112.0001574 magnetization 
 augmentation part       38.9143599 magnetization 

 Free energy of the ion-electron system (eV)
  ---------------------------------------------------
  alpha Z        PSCENC =       339.31929130
  Ewald energy   TEWEN  =     -9063.74120398
  -1/2 Hartree   DENC   =     -8067.52153734
  -exchange  EXHF       =       327.43828400
  -V(xc)+E(xc)   XCENC  =       369.89257134
  PAW double counting   =     16958.56484478   -17451.30712995
  entropy T*S    EENTRO =        -0.00145492
  eigenvalues    EBANDS =     -1657.90470803
  atomic energy  EATOM  =     18320.98302006
  ---------------------------------------------------
  free energy    TOTEN  =        75.72409547 eV

  energy without entropy =       75.72555038  energy(sigma->0) =       75.72458044


--------------------------------------------------------------------------------------------------------




----------------------------------------- Iteration    1(   2)  ---------------------------------------


    POTLOK:  cpu time    0.05: real time    0.05
    SETDIJ:  cpu time    2.06: real time    2.07
 
    SUBROT:  cpu time    0.68: real time    0.68
    SUBROT:  cpu time    0.34: real time    0.34
    SUBROT:  cpu time    0.35: real time    0.35
    SUBROT:  cpu time    0.35: real time    0.35
    --------------------------------------------
    SUBRT+:  cpu time    1.71: real time    1.74

 Broyden mixing:
  rms(total) = 0.28158E-01    rms(broyden)= 0.28148E-01
  rms(prec ) = 0.51094E-01
  weight for this iteration     100.00

 eigenvalues of (default mixing * dielectric matrix)
  average eigenvalue GAMMA=   1.5404
  2.5367  1.2308  0.8538
 
    TRIAL :  cpu time  246.78: real time  247.62
    CORREC:  cpu time    0.00: real time    0.00
    CHARGE:  cpu time    0.06: real time    0.06
    --------------------------------------------
      LOOP:  cpu time  248.95: real time  249.82

 eigenvalue-minimisations  :     0
 total energy-change (2. order) :-0.8396577E+02  (-0.1472117E+03)
 number of electron     112.0001471 magnetization 
 augmentation part       35.4387066 magnetization 

 Free energy of the ion-electron system (eV)
  ---------------------------------------------------
  alpha Z        PSCENC =       339.31929130
  Ewald energy   TEWEN  =     -9063.74120398
  -1/2 Hartree   DENC   =     -8372.15892535
  -exchange  EXHF       =       338.97263691
  -V(xc)+E(xc)   XCENC  =       377.34180231
  PAW double counting   =     17434.76456610   -17974.04020340
  entropy T*S    EENTRO =        -0.00177132
  eigenvalues    EBANDS =     -1409.68120744
  atomic energy  EATOM  =     18320.98302006
  ---------------------------------------------------
  free energy    TOTEN  =        -8.24167842 eV

  energy without entropy =       -8.23990710  energy(sigma->0) =       -8.24108798


--------------------------------------------------------------------------------------------------------




----------------------------------------- Iteration    1(   3)  ---------------------------------------


    POTLOK:  cpu time    0.05: real time    0.05
    SETDIJ:  cpu time    2.06: real time    2.07
 
    SUBROT:  cpu time    0.71: real time    0.71
    SUBROT:  cpu time    0.33: real time    0.33
    SUBROT:  cpu time    0.33: real time    0.33
    SUBROT:  cpu time    0.33: real time    0.33
    --------------------------------------------
    SUBRT+:  cpu time    1.71: real time    1.71

 Broyden mixing:
  rms(total) = 0.28094E-01    rms(broyden)= 0.28083E-01
  rms(prec ) = 0.52390E-01
  weight for this iteration     100.00

 eigenvalues of (default mixing * dielectric matrix)
  average eigenvalue GAMMA=   1.7749
  1.0114  2.4989  1.8144
 
    TRIAL :  cpu time  243.33: real time  243.24
    CORREC:  cpu time    0.00: real time    0.00
    CHARGE:  cpu time    0.06: real time    0.06
    --------------------------------------------
      LOOP:  cpu time  245.51: real time  245.44

 eigenvalue-minimisations  :     0
 total energy-change (2. order) :-0.6578158E+01  (-0.2081098E+03)
 number of electron     112.0001605 magnetization 
 augmentation part       39.7000341 magnetization 

 Free energy of the ion-electron system (eV)
  ---------------------------------------------------
  alpha Z        PSCENC =       339.31929130
  Ewald energy   TEWEN  =     -9063.74120398
  -1/2 Hartree   DENC   =     -7474.22923309
  -exchange  EXHF       =       324.90590160
  -V(xc)+E(xc)   XCENC  =       357.31331119
  PAW double counting   =     15147.78241050   -15577.04944098
  entropy T*S    EENTRO =         0.00016590
  eigenvalues    EBANDS =     -2390.10212189
  atomic energy  EATOM  =     18320.98302006
  ---------------------------------------------------
  free energy    TOTEN  =       -14.81983660 eV

  energy without entropy =      -14.82000251  energy(sigma->0) =      -14.81989190


--------------------------------------------------------------------------------------------------------




----------------------------------------- Iteration    1(   4)  ---------------------------------------


    POTLOK:  cpu time    0.05: real time    0.05
    SETDIJ:  cpu time    2.07: real time    2.07
 
    SUBROT:  cpu time    0.69: real time    0.69
    SUBROT:  cpu time    0.33: real time    0.33
    SUBROT:  cpu time    0.34: real time    0.34
    SUBROT:  cpu time    0.33: real time    0.33
    SUBROT:  cpu time    0.34: real time    0.34
    --------------------------------------------
    SUBRT+:  cpu time    2.03: real time    2.03

 Broyden mixing:
  rms(total) = 0.14259E+00    rms(broyden)= 0.14237E+00
  rms(prec ) = 0.24957E+00
  weight for this iteration     100.00

 eigenvalues of (default mixing * dielectric matrix)
  average eigenvalue GAMMA=   1.1434
  2.4994  1.1329  0.5888  0.3524
 
    TRIAL :  cpu time  250.92: real time  250.72
    CORREC:  cpu time    0.00: real time    0.00
    CHARGE:  cpu time    0.07: real time    0.07
    --------------------------------------------
      LOOP:  cpu time  253.12: real time  252.92

 eigenvalue-minimisations  :     0
 total energy-change (2. order) :-0.7428128E+01  (-0.1083091E+03)
 number of electron     112.0001519 magnetization 
 augmentation part       37.2280067 magnetization 

 Free energy of the ion-electron system (eV)
  ---------------------------------------------------
  alpha Z        PSCENC =       339.31929130
  Ewald energy   TEWEN  =     -9063.74120398
  -1/2 Hartree   DENC   =     -8547.71277659
  -exchange  EXHF       =       343.04007873
  -V(xc)+E(xc)   XCENC  =       381.73956929
  PAW double counting   =     17649.06665646   -18230.53016820
  entropy T*S    EENTRO =         0.00037481
  eigenvalues    EBANDS =     -1214.41259762
  atomic energy  EATOM  =     18320.98302006
  ---------------------------------------------------
  free energy    TOTEN  =       -22.24796466 eV

  energy without entropy =      -22.24833947  energy(sigma->0) =      -22.24808960


--------------------------------------------------------------------------------------------------------




----------------------------------------- Iteration    1(   5)  ---------------------------------------


    POTLOK:  cpu time    0.05: real time    0.05
    SETDIJ:  cpu time    2.07: real time    2.06
 
    SUBROT:  cpu time    0.70: real time    0.70
    SUBROT:  cpu time    0.34: real time    0.34
    SUBROT:  cpu time    0.34: real time    0.34
    SUBROT:  cpu time    0.35: real time    0.35
    --------------------------------------------
    SUBRT+:  cpu time    1.73: real time    1.74

 Broyden mixing:
  rms(total) = 0.49936E-01    rms(broyden)= 0.49923E-01
  rms(prec ) = 0.10029E+00
  weight for this iteration     100.00

 eigenvalues of (default mixing * dielectric matrix)
  average eigenvalue GAMMA=   1.6799
  2.4572  0.9361  1.6463
 
    TRIAL :  cpu time  246.27: real time  246.10
    CORREC:  cpu time    0.00: real time    0.00
    CHARGE:  cpu time    0.06: real time    0.06
    --------------------------------------------
      LOOP:  cpu time  248.45: real time  248.28

 eigenvalue-minimisations  :     0
 total energy-change (2. order) :-0.3847981E+02  (-0.1517430E+02)
 number of electron     112.0001519 magnetization 
 augmentation part       37.2389988 magnetization 

 Free energy of the ion-electron system (eV)
  ---------------------------------------------------
  alpha Z        PSCENC =       339.31929130
  Ewald energy   TEWEN  =     -9063.74120398
  -1/2 Hartree   DENC   =     -8004.29820411
  -exchange  EXHF       =       336.28887529
  -V(xc)+E(xc)   XCENC  =       368.29822265
  PAW double counting   =     15864.72595514   -16333.86693305
  entropy T*S    EENTRO =         0.00060161
  eigenvalues    EBANDS =     -1888.43716933
  atomic energy  EATOM  =     18320.98302006
  ---------------------------------------------------
  free energy    TOTEN  =       -60.72777124 eV

  energy without entropy =      -60.72837285  energy(sigma->0) =      -60.72797178


--------------------------------------------------------------------------------------------------------




----------------------------------------- Iteration    1(   6)  ---------------------------------------


    POTLOK:  cpu time    0.05: real time    0.05
    SETDIJ:  cpu time    2.06: real time    2.06
 
    SUBROT:  cpu time    0.68: real time    0.68
    SUBROT:  cpu time    0.35: real time    0.35
    SUBROT:  cpu time    0.35: real time    0.35
    SUBROT:  cpu time    0.34: real time    0.34
    --------------------------------------------
    SUBRT+:  cpu time    1.72: real time    1.74

 Broyden mixing:
  rms(total) = 0.29227E-02    rms(broyden)= 0.29220E-02
  rms(prec ) = 0.47607E-02
  weight for this iteration     100.00

 eigenvalues of (default mixing * dielectric matrix)
  average eigenvalue GAMMA=   1.8314
  0.9930  1.9694  2.5318
 
    TRIAL :  cpu time  247.96: real time  247.78
    CORREC:  cpu time    0.00: real time    0.00
    CHARGE:  cpu time    0.06: real time    0.06
    --------------------------------------------
      LOOP:  cpu time  250.13: real time  249.95

 eigenvalue-minimisations  :     0
 total energy-change (2. order) :-0.5140632E+01  (-0.8316044E+01)
 number of electron     112.0001552 magnetization 
 augmentation part       38.2323764 magnetization 

 Free energy of the ion-electron system (eV)
  ---------------------------------------------------
  alpha Z        PSCENC =       339.31929130
  Ewald energy   TEWEN  =     -9063.74120398
  -1/2 Hartree   DENC   =     -7999.10743776
  -exchange  EXHF       =       337.07579468
  -V(xc)+E(xc)   XCENC  =       368.73203005
  PAW double counting   =     15769.48931400   -16238.67439875
  entropy T*S    EENTRO =         0.00065178
  eigenvalues    EBANDS =     -1899.94541403
  atomic energy  EATOM  =     18320.98302006
  ---------------------------------------------------
  free energy    TOTEN  =       -65.86840282 eV

  energy without entropy =      -65.86905460  energy(sigma->0) =      -65.86862008


--------------------------------------------------------------------------------------------------------




----------------------------------------- Iteration    1(   7)  ---------------------------------------


    POTLOK:  cpu time    0.05: real time    0.05
    SETDIJ:  cpu time    2.06: real time    2.06
 
    SUBROT:  cpu time    0.68: real time    0.68
    SUBROT:  cpu time    0.33: real time    0.33
    SUBROT:  cpu time    0.32: real time    0.32
    SUBROT:  cpu time    0.32: real time    0.33
    --------------------------------------------
    SUBRT+:  cpu time    1.66: real time    1.68

 Broyden mixing:
  rms(total) = 0.13481E-01    rms(broyden)= 0.13477E-01
  rms(prec ) = 0.24001E-01
  weight for this iteration     100.00

 eigenvalues of (default mixing * dielectric matrix)
  average eigenvalue GAMMA=   1.6225
  2.5052  0.8850  1.4773
 
    TRIAL :  cpu time  248.64: real time  248.46
    CORREC:  cpu time    0.00: real time    0.00
    CHARGE:  cpu time    0.05: real time    0.05
    --------------------------------------------
      LOOP:  cpu time  250.81: real time  250.65

 eigenvalue-minimisations  :     0
 total energy-change (2. order) :-0.1562934E+01  (-0.4217513E+01)
 number of electron     112.0001534 magnetization 
 augmentation part       37.7008441 magnetization 

 Free energy of the ion-electron system (eV)
  ---------------------------------------------------
  alpha Z        PSCENC =       339.31929130
  Ewald energy   TEWEN  =     -9063.74120398
  -1/2 Hartree   DENC   =     -8244.72171994
  -exchange  EXHF       =       341.61238838
  -V(xc)+E(xc)   XCENC  =       374.57898180
  PAW double counting   =     16212.23499736   -16716.04235457
  entropy T*S    EENTRO =         0.00044076
  eigenvalues    EBANDS =     -1631.65538917
  atomic energy  EATOM  =     18320.98302006
  ---------------------------------------------------
  free energy    TOTEN  =       -67.43133698 eV

  energy without entropy =      -67.43177775  energy(sigma->0) =      -67.43148390


--------------------------------------------------------------------------------------------------------




----------------------------------------- Iteration    1(   8)  ---------------------------------------


    POTLOK:  cpu time    0.05: real time    0.05
    SETDIJ:  cpu time    2.07: real time    2.07
 
    SUBROT:  cpu time    0.67: real time    0.67
    SUBROT:  cpu time    0.33: real time    0.33
    SUBROT:  cpu time    0.34: real time    0.34
    SUBROT:  cpu time    0.34: real time    0.34
    --------------------------------------------
    SUBRT+:  cpu time    1.69: real time    1.70

 Broyden mixing:
  rms(total) = 0.86162E-02    rms(broyden)= 0.86136E-02
  rms(prec ) = 0.14494E-01
  weight for this iteration     100.00

 eigenvalues of (default mixing * dielectric matrix)
  average eigenvalue GAMMA=   1.6777
  2.4550  0.9450  1.6331
 
    TRIAL :  cpu time  249.10: real time  249.01
    CORREC:  cpu time    0.00: real time    0.00
    CHARGE:  cpu time    0.08: real time    0.08
    --------------------------------------------
      LOOP:  cpu time  251.31: real time  251.23

 eigenvalue-minimisations  :     0
 total energy-change (2. order) :-0.1643543E+01  (-0.7855459E+00)
 number of electron     112.0001534 magnetization 
 augmentation part       37.7231344 magnetization 

 Free energy of the ion-electron system (eV)
  ---------------------------------------------------
  alpha Z        PSCENC =       339.31929130
  Ewald energy   TEWEN  =     -9063.74120398
  -1/2 Hartree   DENC   =     -8116.21062123
  -exchange  EXHF       =       339.48562078
  -V(xc)+E(xc)   XCENC  =       371.34949200
  PAW double counting   =     15915.77741787   -16397.09286431
  entropy T*S    EENTRO =         0.00073813
  eigenvalues    EBANDS =     -1778.94547346
  atomic energy  EATOM  =     18320.98302006
  ---------------------------------------------------
  free energy    TOTEN  =       -69.07488021 eV

  energy without entropy =      -69.07561835  energy(sigma->0) =      -69.07512626


--------------------------------------------------------------------------------------------------------




----------------------------------------- Iteration    1(   9)  ---------------------------------------


    POTLOK:  cpu time    0.05: real time    0.05
    SETDIJ:  cpu time    2.07: real time    2.07
 
    SUBROT:  cpu time    0.73: real time    0.73
    SUBROT:  cpu time    0.34: real time    0.34
    SUBROT:  cpu time    0.35: real time    0.35
    SUBROT:  cpu time    0.35: real time    0.35
    --------------------------------------------
    SUBRT+:  cpu time    1.77: real time    1.77

 Broyden mixing:
  rms(total) = 0.51476E-03    rms(broyden)= 0.51411E-03
  rms(prec ) = 0.83298E-03
  weight for this iteration     100.00

 eigenvalues of (default mixing * dielectric matrix)
  average eigenvalue GAMMA=   1.6666
  2.5134  0.9975  1.4889
 
    TRIAL :  cpu time  248.37: real time  248.23
    CORREC:  cpu time    0.00: real time    0.00
    CHARGE:  cpu time    0.06: real time    0.06
    --------------------------------------------
      LOOP:  cpu time  250.56: real time  250.42

 eigenvalue-minimisations  :     0
 total energy-change (2. order) :-0.3176533E+00  (-0.3921000E+00)
 number of electron     112.0001540 magnetization 
 augmentation part       37.9068974 magnetization 

 Free energy of the ion-electron system (eV)
  ---------------------------------------------------
  alpha Z        PSCENC =       339.31929130
  Ewald energy   TEWEN  =     -9063.74120398
  -1/2 Hartree   DENC   =     -8124.93106390
  -exchange  EXHF       =       339.58359332
  -V(xc)+E(xc)   XCENC  =       371.43579883
  PAW double counting   =     15913.70155463   -16394.95258871
  entropy T*S    EENTRO =         0.00086823
  eigenvalues    EBANDS =     -1770.79167322
  atomic energy  EATOM  =     18320.98302006
  ---------------------------------------------------
  free energy    TOTEN  =       -69.39253354 eV

  energy without entropy =      -69.39340177  energy(sigma->0) =      -69.39282295


--------------------------------------------------------------------------------------------------------




----------------------------------------- Iteration    1(  10)  ---------------------------------------


    POTLOK:  cpu time    0.05: real time    0.05
    SETDIJ:  cpu time    2.06: real time    2.06
 
    SUBROT:  cpu time    0.69: real time    0.69
    SUBROT:  cpu time    0.36: real time    0.36
    SUBROT:  cpu time    0.35: real time    0.35
    SUBROT:  cpu time    0.35: real time    0.35
    --------------------------------------------
    SUBRT+:  cpu time    1.75: real time    1.76

 Broyden mixing:
  rms(total) = 0.23429E-02    rms(broyden)= 0.23424E-02
  rms(prec ) = 0.39124E-02
  weight for this iteration     100.00

 eigenvalues of (default mixing * dielectric matrix)
  average eigenvalue GAMMA=   1.6769
  2.4765  0.9868  1.5675
 
    TRIAL :  cpu time  248.51: real time  248.32
    CORREC:  cpu time    0.00: real time    0.00
    CHARGE:  cpu time    0.07: real time    0.07
    --------------------------------------------
      LOOP:  cpu time  250.69: real time  250.51

 eigenvalue-minimisations  :     0
 total energy-change (2. order) :-0.1049613E+00  (-0.1554494E+00)
 number of electron     112.0001538 magnetization 
 augmentation part       37.8180564 magnetization 

 Free energy of the ion-electron system (eV)
  ---------------------------------------------------
  alpha Z        PSCENC =       339.31929130
  Ewald energy   TEWEN  =     -9063.74120398
  -1/2 Hartree   DENC   =     -8173.03140898
  -exchange  EXHF       =       340.40391084
  -V(xc)+E(xc)   XCENC  =       372.55004783
  PAW double counting   =     15996.51699439   -16484.55104616
  entropy T*S    EENTRO =         0.00073533
  eigenvalues    EBANDS =     -1717.94796834
  atomic energy  EATOM  =     18320.98302006
  ---------------------------------------------------
  free energy    TOTEN  =       -69.49749480 eV

  energy without entropy =      -69.49823013  energy(sigma->0) =      -69.49773991


--------------------------------------------------------------------------------------------------------




----------------------------------------- Iteration    1(  11)  ---------------------------------------


    POTLOK:  cpu time    0.05: real time    0.05
    SETDIJ:  cpu time    2.07: real time    2.07
 
    SUBROT:  cpu time    0.74: real time    0.74
    SUBROT:  cpu time    0.36: real time    0.36
    SUBROT:  cpu time    0.37: real time    0.37
    SUBROT:  cpu time    0.35: real time    0.35
    --------------------------------------------
    SUBRT+:  cpu time    1.83: real time    1.84

 Broyden mixing:
  rms(total) = 0.80215E-03    rms(broyden)= 0.80190E-03
  rms(prec ) = 0.16068E-02
  weight for this iteration     100.00

 eigenvalues of (default mixing * dielectric matrix)
  average eigenvalue GAMMA=   1.6780
  2.4934  0.9843  1.5564
 
    TRIAL :  cpu time  249.10: real time  248.91
    CORREC:  cpu time    0.00: real time    0.00
    CHARGE:  cpu time    0.09: real time    0.09
    --------------------------------------------
      LOOP:  cpu time  251.31: real time  251.14

 eigenvalue-minimisations  :     0
 total energy-change (2. order) :-0.7089739E-01  (-0.3705159E-01)
 number of electron     112.0001537 magnetization 
 augmentation part       37.7854016 magnetization 

 Free energy of the ion-electron system (eV)
  ---------------------------------------------------
  alpha Z        PSCENC =       339.31929130
  Ewald energy   TEWEN  =     -9063.74120398
  -1/2 Hartree   DENC   =     -8151.25811049
  -exchange  EXHF       =       340.07065347
  -V(xc)+E(xc)   XCENC  =       372.06751881
  PAW double counting   =     15943.30531338   -16428.22097883
  entropy T*S    EENTRO =         0.00062166
  eigenvalues    EBANDS =     -1742.09463124
  atomic energy  EATOM  =     18320.98302006
  ---------------------------------------------------
  free energy    TOTEN  =       -69.56839220 eV

  energy without entropy =      -69.56901386  energy(sigma->0) =      -69.56859942


--------------------------------------------------------------------------------------------------------




----------------------------------------- Iteration    1(  12)  ---------------------------------------


    POTLOK:  cpu time    0.06: real time    0.06
    SETDIJ:  cpu time    2.08: real time    2.08
 
    SUBROT:  cpu time    0.73: real time    0.73
    SUBROT:  cpu time    0.36: real time    0.36
    SUBROT:  cpu time    0.36: real time    0.36
    SUBROT:  cpu time    0.35: real time    0.35
    --------------------------------------------
    SUBRT+:  cpu time    1.80: real time    1.80

 Broyden mixing:
  rms(total) = 0.21334E-03    rms(broyden)= 0.21325E-03
  rms(prec ) = 0.46085E-03
  weight for this iteration     100.00

 eigenvalues of (default mixing * dielectric matrix)
  average eigenvalue GAMMA=   1.6185
  2.5087  0.9981  1.3487
 
    TRIAL :  cpu time  246.20: real time  246.00
    CORREC:  cpu time    0.00: real time    0.00
    CHARGE:  cpu time    0.08: real time    0.08
    --------------------------------------------
      LOOP:  cpu time  248.42: real time  248.22

 eigenvalue-minimisations  :     0
 total energy-change (2. order) :-0.1238828E-01  (-0.2325952E-01)
 number of electron     112.0001538 magnetization 
 augmentation part       37.8262905 magnetization 

 Free energy of the ion-electron system (eV)
  ---------------------------------------------------
  alpha Z        PSCENC =       339.31929130
  Ewald energy   TEWEN  =     -9063.74120398
  -1/2 Hartree   DENC   =     -8142.92028544
  -exchange  EXHF       =       339.95546919
  -V(xc)+E(xc)   XCENC  =       371.89329191
  PAW double counting   =     15921.23454131   -16405.06793243
  entropy T*S    EENTRO =         0.00056801
  eigenvalues    EBANDS =     -1751.23759406
  atomic energy  EATOM  =     18320.98302006
  ---------------------------------------------------
  free energy    TOTEN  =       -69.58078048 eV

  energy without entropy =      -69.58134849  energy(sigma->0) =      -69.58096982


--------------------------------------------------------------------------------------------------------




----------------------------------------- Iteration    1(  13)  ---------------------------------------


    POTLOK:  cpu time    0.05: real time    0.05
    SETDIJ:  cpu time    2.07: real time    2.07
 
    SUBROT:  cpu time    0.72: real time    0.72
    SUBROT:  cpu time    0.36: real time    0.36
    SUBROT:  cpu time    0.35: real time    0.35
    SUBROT:  cpu time    0.36: real time    0.36
    --------------------------------------------
    SUBRT+:  cpu time    1.79: real time    1.80

 Broyden mixing:
  rms(total) = 0.56271E-03    rms(broyden)= 0.56260E-03
  rms(prec ) = 0.95774E-03
  weight for this iteration     100.00

 eigenvalues of (default mixing * dielectric matrix)
  average eigenvalue GAMMA=   1.6904
  2.4813  0.9961  1.5938
 
    TRIAL :  cpu time  246.73: real time  246.70
    CORREC:  cpu time    0.00: real time    0.00
    CHARGE:  cpu time    0.09: real time    0.09
    --------------------------------------------
      LOOP:  cpu time  248.95: real time  248.92

 eigenvalue-minimisations  :     0
 total energy-change (2. order) :-0.9830806E-02  (-0.5195069E-02)
 number of electron     112.0001538 magnetization 
 augmentation part       37.8300842 magnetization 

 Free energy of the ion-electron system (eV)
  ---------------------------------------------------
  alpha Z        PSCENC =       339.31929130
  Ewald energy   TEWEN  =     -9063.74120398
  -1/2 Hartree   DENC   =     -8152.94940497
  -exchange  EXHF       =       340.12977251
  -V(xc)+E(xc)   XCENC  =       372.13022288
  PAW double counting   =     15937.43642585   -16422.78695559
  entropy T*S    EENTRO =         0.00055621
  eigenvalues    EBANDS =     -1740.11234736
  atomic energy  EATOM  =     18320.98302006
  ---------------------------------------------------
  free energy    TOTEN  =       -69.59061129 eV

  energy without entropy =      -69.59116750  energy(sigma->0) =      -69.59079669


--------------------------------------------------------------------------------------------------------




----------------------------------------- Iteration    1(  14)  ---------------------------------------


    POTLOK:  cpu time    0.05: real time    0.05
    SETDIJ:  cpu time    2.08: real time    2.07
 
    SUBROT:  cpu time    0.73: real time    0.73
    SUBROT:  cpu time    0.36: real time    0.36
    SUBROT:  cpu time    0.35: real time    0.35
    SUBROT:  cpu time    0.36: real time    0.36
    --------------------------------------------
    SUBRT+:  cpu time    1.80: real time    1.83

 Broyden mixing:
  rms(total) = 0.70799E-04    rms(broyden)= 0.70785E-04
  rms(prec ) = 0.14443E-03
  weight for this iteration     100.00

 eigenvalues of (default mixing * dielectric matrix)
  average eigenvalue GAMMA=   1.6257
  2.5207  0.9874  1.3689
 
    TRIAL :  cpu time  246.57: real time  246.39
    CORREC:  cpu time    0.00: real time    0.00
    CHARGE:  cpu time    0.09: real time    0.09
    --------------------------------------------
      LOOP:  cpu time  248.79: real time  248.61

 eigenvalue-minimisations  :     0
 total energy-change (2. order) :-0.2508974E-02  (-0.3851944E-02)
 number of electron     112.0001537 magnetization 
 augmentation part       37.8123195 magnetization 

 Free energy of the ion-electron system (eV)
  ---------------------------------------------------
  alpha Z        PSCENC =       339.31929130
  Ewald energy   TEWEN  =     -9063.74120398
  -1/2 Hartree   DENC   =     -8153.43871762
  -exchange  EXHF       =       340.12675989
  -V(xc)+E(xc)   XCENC  =       372.13867168
  PAW double counting   =     15935.18126474   -16420.69645013
  entropy T*S    EENTRO =         0.00057609
  eigenvalues    EBANDS =     -1739.46631241
  atomic energy  EATOM  =     18320.98302006
  ---------------------------------------------------
  free energy    TOTEN  =       -69.59312026 eV

  energy without entropy =      -69.59369635  energy(sigma->0) =      -69.59331229


--------------------------------------------------------------------------------------------------------




----------------------------------------- Iteration    1(  15)  ---------------------------------------


    POTLOK:  cpu time    0.05: real time    0.05
    SETDIJ:  cpu time    2.07: real time    2.07
 
    SUBROT:  cpu time    0.73: real time    0.73
    SUBROT:  cpu time    0.35: real time    0.36
    SUBROT:  cpu time    0.36: real time    0.36
    SUBROT:  cpu time    0.35: real time    0.35
    --------------------------------------------
    SUBRT+:  cpu time    1.79: real time    1.80

 Broyden mixing:
  rms(total) = 0.19423E-03    rms(broyden)= 0.19417E-03
  rms(prec ) = 0.33022E-03
  weight for this iteration     100.00

 eigenvalues of (default mixing * dielectric matrix)
  average eigenvalue GAMMA=   1.6705
  2.4741  0.9883  1.5489
 
    TRIAL :  cpu time  248.67: real time  248.50
    CORREC:  cpu time    0.00: real time    0.00
    CHARGE:  cpu time    0.08: real time    0.08
    --------------------------------------------
      LOOP:  cpu time  250.88: real time  250.73

 eigenvalue-minimisations  :     0
 total energy-change (2. order) :-0.1539036E-02  (-0.1060957E-02)
 number of electron     112.0001538 magnetization 
 augmentation part       37.8166812 magnetization 

 Free energy of the ion-electron system (eV)
  ---------------------------------------------------
  alpha Z        PSCENC =       339.31929130
  Ewald energy   TEWEN  =     -9063.74120398
  -1/2 Hartree   DENC   =     -8148.66005321
  -exchange  EXHF       =       340.03635797
  -V(xc)+E(xc)   XCENC  =       372.02604278
  PAW double counting   =     15922.94733429   -16407.84778361
  entropy T*S    EENTRO =         0.00058932
  eigenvalues    EBANDS =     -1744.65824098
  atomic energy  EATOM  =     18320.98302006
  ---------------------------------------------------
  free energy    TOTEN  =       -69.59465930 eV

  energy without entropy =      -69.59524862  energy(sigma->0) =      -69.59485574


--------------------------------------------------------------------------------------------------------




----------------------------------------- Iteration    1(  16)  ---------------------------------------


    POTLOK:  cpu time    0.05: real time    0.05
    SETDIJ:  cpu time    2.07: real time    2.07
 
    SUBROT:  cpu time    0.74: real time    0.74
    SUBROT:  cpu time    0.36: real time    0.36
    SUBROT:  cpu time    0.36: real time    0.36
    SUBROT:  cpu time    0.37: real time    0.37
    --------------------------------------------
    SUBRT+:  cpu time    1.83: real time    1.84

 Broyden mixing:
  rms(total) = 0.87717E-04    rms(broyden)= 0.87699E-04
  rms(prec ) = 0.14543E-03
  weight for this iteration     100.00

 eigenvalues of (default mixing * dielectric matrix)
  average eigenvalue GAMMA=   1.6916
  2.4852  0.9901  1.5996
 
    TRIAL :  cpu time  242.55: real time  242.36
    CORREC:  cpu time    0.00: real time    0.00
    CHARGE:  cpu time    0.09: real time    0.09
    --------------------------------------------
      LOOP:  cpu time  244.76: real time  244.57

 eigenvalue-minimisations  :     0
 total energy-change (2. order) :-0.5878046E-03  (-0.4194793E-03)
 number of electron     112.0001538 magnetization 
 augmentation part       37.8215483 magnetization 

 Free energy of the ion-electron system (eV)
  ---------------------------------------------------
  alpha Z        PSCENC =       339.31929130
  Ewald energy   TEWEN  =     -9063.74120398
  -1/2 Hartree   DENC   =     -8149.78386576
  -exchange  EXHF       =       340.05502488
  -V(xc)+E(xc)   XCENC  =       372.05348751
  PAW double counting   =     15923.75504391   -16408.84743414
  entropy T*S    EENTRO =         0.00058943
  eigenvalues    EBANDS =     -1743.38920019
  atomic energy  EATOM  =     18320.98302006
  ---------------------------------------------------
  free energy    TOTEN  =       -69.59524710 eV

[...]
     22      -2.2880      2.00000
     23      -1.9529      2.00000
     24      -1.6177      2.00000
     25      -1.2181      2.00000
     26      -1.0022      2.00000
     27      -0.9763      2.00000
     28      -0.7141      2.00000
     29      -0.5466      2.00000
     30      -0.3897      2.00000
     31      -0.2871      2.00000
     32      -0.1996      2.00000
     33      -0.1851      2.00000
     34      -0.1397      2.00000
     35      -0.0185      2.00000
     36       0.0164      2.00000
     37       1.2964      2.00000
     38       1.3086      2.00000
     39       1.3696      2.00000
     40       1.4115      2.00000
     41       1.4508      2.00000
     42       1.4665      2.00000
     43       1.5067      2.00000
     44       1.5500      2.00000
     45       1.7640      2.00000
     46       1.8946      2.00000
     47       1.9828      2.00000
     48       2.1510      2.00000
     49       2.3709      2.00000
     50       2.5758      2.00000
     51       2.7045      2.00000
     52       2.9100      2.00000
     53       3.0126      2.00000
     54       3.2212      2.00000
     55       3.4034      2.00000
     56       3.6567      2.00000
     57       6.3794     -0.00000
     58       6.5192     -0.00000
     59       7.7181      0.00000
     60       7.9028      0.00000
     61       8.2970      0.00000
     62       8.5741      0.00000
     63       9.3259      0.00000
     64       9.8433      0.00000
     65      10.0213      0.00000
     66      10.3536      0.00000
     67      10.5855      0.00000
     68      10.7856      0.00000
     69      10.9759      0.00000
     70      11.2565      0.00000
     71      11.3083      0.00000
     72      11.7054      0.00000
     73      12.2518      0.00000
     74      12.4642      0.00000
     75      13.0887      0.00000
     76      13.4595      0.00000
     77      13.7976      0.00000
     78      14.6663      0.00000
     79      14.9950      0.00000
     80      15.7235      0.00000

 k-point  40 :       0.2500   -0.2500    0.4000
  band No.  band energies     occupation 
      1     -68.6454      2.00000
      2     -68.6432      2.00000
      3     -68.6335      2.00000
      4     -68.6334      2.00000
      5     -68.6134      2.00000
      6     -68.6118      2.00000
      7     -68.5961      2.00000
      8     -68.5939      2.00000
      9     -68.5777      2.00000
     10     -68.5776      2.00000
     11     -68.5608      2.00000
     12     -68.5607      2.00000
     13     -12.2186      2.00000
     14     -11.8180      2.00000
     15     -10.8200      2.00000
     16     -10.6716      2.00000
     17     -10.3524      2.00000
     18     -10.2789      2.00000
     19      -5.4461      2.00000
     20      -5.1163      2.00000
     21      -2.4289      2.00000
     22      -2.1554      2.00000
     23      -2.0144      2.00000
     24      -1.5234      2.00000
     25      -1.3548      2.00000
     26      -1.1653      2.00000
     27      -0.9383      2.00000
     28      -0.8142      2.00000
     29      -0.5836      2.00000
     30      -0.5326      2.00000
     31      -0.2789      2.00000
     32      -0.2377      2.00000
     33      -0.1384      2.00000
     34      -0.0946      2.00000
     35      -0.0251      2.00000
     36       0.0336      2.00000
     37       1.3132      2.00000
     38       1.3462      2.00000
     39       1.3639      2.00000
     40       1.3981      2.00000
     41       1.4521      2.00000
     42       1.4823      2.00000
     43       1.4997      2.00000
     44       1.5650      2.00000
     45       1.8020      2.00000
     46       1.8462      2.00000
     47       1.9609      2.00000
     48       2.1073      2.00000
     49       2.2971      2.00000
     50       2.5299      2.00000
     51       2.6405      2.00000
     52       2.7697      2.00000
     53       2.9295      2.00000
     54       3.1623      2.00000
     55       3.3037      2.00000
     56       3.5745      2.00000
     57       6.5628     -0.00000
     58       6.7182     -0.00000
     59       7.9654      0.00000
     60       8.0020      0.00000
     61       8.7300      0.00000
     62       9.0929      0.00000
     63       9.4605      0.00000
     64       9.8265      0.00000
     65      10.2979      0.00000
     66      10.3681      0.00000
     67      10.7766      0.00000
     68      10.8488      0.00000
     69      11.1142      0.00000
     70      11.2718      0.00000
     71      11.3692      0.00000
     72      11.6185      0.00000
     73      12.0476      0.00000
     74      12.2952      0.00000
     75      12.6515      0.00000
     76      13.1240      0.00000
     77      13.2871      0.00000
     78      14.2450      0.00000
     79      15.6267      0.00000
     80      15.8258      0.00000

 k-point  41 :       0.5000   -0.2500    0.4000
  band No.  band energies     occupation 
      1     -68.6453      2.00000
      2     -68.6431      2.00000
      3     -68.6333      2.00000
      4     -68.6332      2.00000
      5     -68.6133      2.00000
      6     -68.6118      2.00000
      7     -68.5959      2.00000
      8     -68.5937      2.00000
      9     -68.5777      2.00000
     10     -68.5776      2.00000
     11     -68.5606      2.00000
     12     -68.5607      2.00000
     13     -12.0780      2.00000
     14     -11.7748      2.00000
     15     -10.8463      2.00000
     16     -10.7582      2.00000
     17     -10.5349      2.00000
     18     -10.3187      2.00000
     19      -5.4189      2.00000
     20      -4.9398      2.00000
     21      -2.4004      2.00000
     22      -2.1303      2.00000
     23      -1.8631      2.00000
     24      -1.7229      2.00000
     25      -1.4439      2.00000
     26      -1.1214      2.00000
     27      -0.8818      2.00000
     28      -0.6488      2.00000
     29      -0.6017      2.00000
     30      -0.4484      2.00000
     31      -0.2633      2.00000
     32      -0.1810      2.00000
     33      -0.1247      2.00000
     34      -0.0542      2.00000
     35      -0.0223      2.00000
     36       0.0205      2.00000
     37       1.2625      2.00000
     38       1.3165      2.00000
     39       1.4103      2.00000
     40       1.4374      2.00000
     41       1.4842      2.00000
     42       1.4933      2.00000
     43       1.5155      2.00000
     44       1.5748      2.00000
     45       1.7608      2.00000
     46       1.8424      2.00000
     47       2.1177      2.00000
     48       2.1849      2.00000
     49       2.3654      2.00000
     50       2.4601      2.00000
     51       2.4947      2.00000
     52       2.6966      2.00000
     53       2.8222      2.00000
     54       3.0907      2.00000
     55       3.2896      2.00000
     56       3.5245      2.00000
     57       6.4968     -0.00000
     58       6.5848     -0.00000
     59       7.4538      0.00000
     60       7.7207      0.00000
     61       8.5891      0.00000
     62       8.7464      0.00000
     63       9.3004      0.00000
     64       9.5324      0.00000
     65       9.9519      0.00000
     66      10.1865      0.00000
     67      10.6789      0.00000
     68      11.1146      0.00000
     69      11.2492      0.00000
     70      11.5665      0.00000
     71      11.7072      0.00000
     72      11.8956      0.00000
     73      12.2992      0.00000
     74      12.6567      0.00000
     75      13.0106      0.00000
     76      13.2319      0.00000
     77      13.6711      0.00000
     78      14.0774      0.00000
     79      14.3999      0.00000
     80      16.5504      0.00000

 k-point  42 :      -0.2500   -0.2500    0.4000
  band No.  band energies     occupation 
      1     -68.6454      2.00000
      2     -68.6433      2.00000
      3     -68.6332      2.00000
      4     -68.6332      2.00000
      5     -68.6130      2.00000
      6     -68.6121      2.00000
      7     -68.5959      2.00000
      8     -68.5938      2.00000
      9     -68.5778      2.00000
     10     -68.5776      2.00000
     11     -68.5609      2.00000
     12     -68.5608      2.00000
     13     -12.1773      2.00000
     14     -11.7043      2.00000
     15     -10.7168      2.00000
     16     -10.6928      2.00000
     17     -10.5891      2.00000
     18     -10.3943      2.00000
     19      -5.4455      2.00000
     20      -5.0713      2.00000
     21      -2.5078      2.00000
     22      -2.3799      2.00000
     23      -1.9642      2.00000
     24      -1.3658      2.00000
     25      -1.3316      2.00000
     26      -1.0544      2.00000
     27      -0.8285      2.00000
     28      -0.7665      2.00000
     29      -0.4233      2.00000
     30      -0.3384      2.00000
     31      -0.2710      2.00000
     32      -0.2099      2.00000
     33      -0.1437      2.00000
     34      -0.1401      2.00000
     35      -0.0159      2.00000
     36       0.0283      2.00000
     37       1.1736      2.00000
     38       1.3714      2.00000
     39       1.3970      2.00000
     40       1.4531      2.00000
     41       1.4543      2.00000
     42       1.4993      2.00000
     43       1.5172      2.00000
     44       1.5494      2.00000
     45       1.7435      2.00000
     46       1.8218      2.00000
     47       1.9736      2.00000
     48       2.2270      2.00000
     49       2.3981      2.00000
     50       2.6120      2.00000
     51       2.6554      2.00000
     52       2.9156      2.00000
     53       3.0701      2.00000
     54       3.1173      2.00000
     55       3.2888      2.00000
     56       3.5830      2.00000
     57       6.2909     -0.00000
     58       6.3802     -0.00000
     59       7.3559      0.00000
     60       7.5260      0.00000
     61       8.3101      0.00000
     62       8.3346      0.00000
     63       9.1059      0.00000
     64       9.3592      0.00000
     65       9.7170      0.00000
     66       9.9486      0.00000
     67      10.5227      0.00000
     68      10.9895      0.00000
     69      11.4249      0.00000
     70      11.5632      0.00000
     71      12.0181      0.00000
     72      12.2853      0.00000
     73      12.4312      0.00000
     74      12.4769      0.00000
     75      13.0344      0.00000
     76      13.1498      0.00000
     77      14.1371      0.00000
     78      14.4347      0.00000
     79      15.1619      0.00000
     80      15.8688      0.00000


--------------------------------------------------------------------------------------------------------


 soft charge-density along one line, spin component           1
         0         1         2         3         4         5         6         7         8         9
 total charge-density along one line
 
 pseudopotential strength for first ion, spin component:           1
-65.422   0.002   0.007   7.362   0.000  -0.003   0.001   0.007
  0.002 -65.392  -0.005   0.000   7.352   0.002  -0.001  -0.024
  0.007  -0.005 -65.383  -0.003   0.002   7.349  -0.037  -0.001
  7.362   0.000  -0.003   6.111   0.000   0.001   0.002  -0.004
  0.000   7.352   0.002   0.000   6.113  -0.000   0.000   0.007
 -0.003   0.002   7.349   0.001  -0.000   6.114   0.009   0.000
  0.001  -0.001  -0.037   0.002   0.000   0.009  -2.978  -0.003
  0.007  -0.024  -0.001  -0.004   0.007   0.000  -0.003  -2.983
  0.022   0.042   0.009  -0.005  -0.008  -0.003  -0.004   0.008
 -0.001  -0.017   0.007   0.000   0.005  -0.003   0.004   0.008
  0.026  -0.000  -0.035  -0.007   0.000   0.007  -0.000   0.007
  0.001  -0.001  -0.036   0.002   0.000   0.008  -3.625  -0.003
  0.007  -0.024  -0.001  -0.003   0.007   0.000  -0.003  -3.629
  0.022   0.042   0.009  -0.005  -0.008  -0.003  -0.004   0.008
 -0.001  -0.017   0.007   0.000   0.004  -0.003   0.004   0.008
  0.025  -0.000  -0.034  -0.007   0.000   0.006  -0.000   0.007
  0.007  -0.005   0.004  -0.001   0.001  -0.001  -0.002   0.001
  0.015  -0.010   0.009  -0.002   0.001  -0.002  -0.004   0.001
 total augmentation occupancy for first ion, spin component:           1
  2.000  -0.000   0.000  -0.003  -0.000   0.000   0.007  -0.005   0.000  -0.001  -0.005  -0.008   0.005  -0.001   0.001   0.005
 -0.000   2.000  -0.000  -0.000  -0.003   0.000  -0.001   0.005   0.004   0.001  -0.000   0.001  -0.005  -0.005  -0.001   0.000
  0.000  -0.000   2.000   0.000   0.000  -0.003  -0.000  -0.000  -0.001  -0.005  -0.004   0.000   0.000   0.001   0.005   0.005
 -0.003  -0.000   0.000   0.094   0.007  -0.006  -0.333   0.229  -0.077   0.008   0.015   0.280  -0.194   0.061  -0.004  -0.008
 -0.000  -0.003   0.000   0.007   0.102   0.002   0.017  -0.047  -0.444   0.016   0.014  -0.010   0.036   0.376  -0.011  -0.012
  0.000   0.000  -0.003  -0.006   0.002   0.100   0.100  -0.006  -0.015   0.239   0.356  -0.080   0.004   0.013  -0.205  -0.299
  0.007  -0.001  -0.000  -0.333   0.017   0.100   4.008  -0.790   0.108   0.223   0.145  -1.737   0.740  -0.102  -0.191  -0.141
 -0.005   0.005  -0.000   0.229  -0.047  -0.006  -0.790   3.507   0.294   0.152   0.291   0.740  -1.265  -0.218  -0.106  -0.198
  0.000   0.004  -0.001  -0.077  -0.444  -0.015   0.108   0.294   4.693  -0.042  -0.120  -0.102  -0.219  -2.401   0.034   0.092
 -0.001   0.001  -0.005   0.008   0.016   0.239   0.223   0.152  -0.042   3.642   0.799  -0.191  -0.106   0.034  -1.362  -0.763
 -0.005  -0.000  -0.004   0.015   0.014   0.356   0.145   0.291  -0.120   0.799   3.997  -0.142  -0.198   0.092  -0.763  -1.744
 -0.008   0.001   0.000   0.280  -0.010  -0.080  -1.737   0.740  -0.102  -0.191  -0.142   1.444  -0.691   0.097   0.164   0.137
  0.005  -0.005   0.000  -0.194   0.036   0.004   0.740  -1.265  -0.219  -0.106  -0.198  -0.691   1.000   0.157   0.068   0.123
 -0.001  -0.005   0.001   0.061   0.376   0.013  -0.102  -0.218  -2.401   0.034   0.092   0.097   0.157   2.084  -0.028  -0.070
  0.001  -0.001   0.005  -0.004  -0.011  -0.205  -0.191  -0.106   0.034  -1.362  -0.763   0.164   0.068  -0.028   1.068   0.726
  0.005   0.000   0.005  -0.008  -0.012  -0.299  -0.141  -0.198   0.092  -0.763  -1.744   0.137   0.123  -0.070   0.726   1.465
 -0.025   0.016  -0.013  -0.023   0.011  -0.008   0.104  -0.120  -0.019  -0.018   0.008  -0.082   0.104   0.031   0.015   0.020
  0.012  -0.008   0.006   0.002  -0.000   0.000  -0.011   0.005  -0.004   0.006  -0.017   0.006  -0.007  -0.002  -0.002   0.002


------------------------ aborting loop because EDIFF is reached ----------------------------------------


    FORLOC:  cpu time    0.00: real time    0.00
    FORHF :  cpu time  498.36: real time  497.95
    FORNL :  cpu time    0.40: real time    0.40
    FORCOR:  cpu time    2.11: real time    2.11

 VOLUME and BASIS-vectors are now :
 -----------------------------------------------------------------------------
  energy-cutoff  :      400.00
  volume of cell :      221.90
      direct lattice vectors                 reciprocal lattice vectors
     3.224796000 -5.643830000  0.031572000     0.154525165 -0.088592321  0.053460880
     3.224796000  5.643830000  0.031572000     0.154525165  0.088592321  0.053460880
    -2.101946000  0.000000000  6.075537000    -0.001606004  0.000000000  0.164038877

  length of vectors
     6.500240234  6.500240234  6.428866683     0.185969598  0.185969598  0.164046738


 FORCES acting on ions:
    Electron-Ion                     Ewald-Force                    Non-Local-Force
 -----------------------------------------------------------------------------------------------
   -.165E+02 -.100E+03 0.110E+02   0.153E+02 0.979E+02 -.946E+01   0.108E+01 0.220E+01 -.140E+01
   -.140E+02 0.966E+02 0.122E+02   0.127E+02 -.942E+02 -.106E+02   0.103E+01 -.210E+01 -.140E+01
   0.263E+02 -.155E+02 0.445E+01   -.230E+02 0.153E+02 -.317E+01   -.283E+01 0.160E+00 -.112E+01
   0.252E+02 0.174E+02 0.402E+01   -.220E+02 -.172E+02 -.275E+01   -.284E+01 -.162E+00 -.111E+01
   -.111E+02 -.314E+02 -.112E+02   0.104E+02 0.301E+02 0.101E+02   0.683E+00 0.135E+01 0.113E+01
   -.108E+02 0.319E+02 -.112E+02   0.101E+02 -.305E+02 0.100E+02   0.684E+00 -.134E+01 0.113E+01
   -.135E+03 -.972E+01 -.492E+02   0.132E+03 0.975E+01 0.484E+02   0.278E+01 -.277E-01 0.732E+00
   0.713E+02 -.124E+03 0.952E+02   -.696E+02 0.121E+03 -.931E+02   -.155E+01 0.231E+01 -.188E+01
   0.661E+02 -.133E+03 -.497E+02   -.646E+02 0.131E+03 0.487E+02   -.136E+01 0.217E+01 0.877E+00
   0.704E+02 0.126E+03 0.963E+02   -.687E+02 -.124E+03 -.942E+02   -.156E+01 -.229E+01 -.188E+01
   -.137E+03 0.106E+02 -.487E+02   0.134E+03 -.106E+02 0.478E+02   0.278E+01 0.295E-01 0.739E+00
   0.679E+02 0.132E+03 -.492E+02   -.664E+02 -.129E+03 0.482E+02   -.135E+01 -.218E+01 0.878E+00
 -----------------------------------------------------------------------------------------------
   0.271E+01 -.874E-01 0.373E+01   -.853E-13 -.284E-13 -.426E-13   -.245E+01 0.106E+00 -.330E+01
 
 
 POSITION                                       TOTAL-FORCE (eV/Angst)
 -----------------------------------------------------------------------------------
      2.12889     -2.81520      0.74953         0.016060      0.033944      0.003620
      1.08288      2.80652      3.78735        -0.003492      0.000756     -0.000593
      5.40423     -0.97432      0.77721         0.000266     -0.001701      0.001137
      4.35326      0.97432      3.81498         0.002399     -0.001093      0.000912
      1.02081     -0.97328      3.66185         0.000288      0.005910      0.005766
      2.07178      0.97328      0.62409         0.002462     -0.012900      0.002653
      2.15090      4.69667      3.05304         0.001419      0.000617     -0.002026
      1.11215     -0.89759      5.98620        -0.009390     -0.018368      0.003120
      2.14287     -2.74882      3.03886        -0.000454      0.002642     -0.000698
      2.16313      0.89759      2.94844        -0.000973      0.006814      0.000976
      1.09993     -4.69667      6.09081         0.006990     -0.015638     -0.008703
      1.09189      2.74882      6.07662        -0.015574     -0.000984     -0.006164
 -----------------------------------------------------------------------------------
    total drift:                               -0.053761      0.008782     -0.057150


--------------------------------------------------------------------------------------------------------



  FREE ENERGIE OF THE ION-ELECTRON SYSTEM (eV)
  ---------------------------------------------------
  free  energy   TOTEN  =       -69.59560517 eV

  energy  without entropy=      -69.59618815  energy(sigma->0) =      -69.59579950
 


--------------------------------------------------------------------------------------------------------


    POTLOK:  cpu time    2.10: real time    2.10


--------------------------------------------------------------------------------------------------------


 writing wavefunctions
     LOOP+:  cpu time 5766.15: real time 5767.77
    4ORBIT:  cpu time    0.00: real time    0.00

 total amount of memory used by VASP on root node   155705. kBytes
========================================================================

   base      :      30000. kBytes
   nonl-proj :      74517. kBytes
   fftplans  :        702. kBytes
   grid      :       2400. kBytes
   one-center:        186. kBytes
   HF        :        194. kBytes
   nonlr-proj:       5130. kBytes
   wavefun   :      42576. kBytes
 
  
  
 General timing and accounting informations for this job:
 ========================================================
  
                  Total CPU time used (sec):     5807.921
                            User time (sec):     5803.525
                          System time (sec):        4.396
                         Elapsed time (sec):     5815.648
  
                   Maximum memory used (kb):      294828.
                   Average memory used (kb):           0.
  
                          Minor page faults:        77909
                          Major page faults:           38
                 Voluntary context switches:         4993
