   12   12    1    1
  0.1849176E+02  0.6500240E-09  0.6500240E-09  0.6428867E-09  0.5000000E-15
  1.000000000000000E-004
  CAR 
 CGS                                     
  112   42   80
 
  0.0000000E+00  0.0000000E+00  0.0000000E+00  0.1250000E-01
   1      -68.650881
   2      -68.645442
   3      -68.633626
   4      -68.633851
   5      -68.618647
   6      -68.613632
   7      -68.601537
   8      -68.596150
   9      -68.578513
  10      -68.577907
  11      -68.561144
  12      -68.561264
  13      -12.718034
  14      -11.133979
  15      -10.909719
  16      -10.603011
  17      -10.251727
  18      -10.235754
  19       -5.980776
  20       -4.986355
  21       -2.761268
  22       -2.208155
  23       -2.070452
  24       -1.921646
  25       -1.578828
  26       -0.984835
  27       -0.953793
  28       -0.675130
  29       -0.399686
  30       -0.280509
  31       -0.263569
  32       -0.237589
  33       -0.188346
  34       -0.157491
  35       -0.040922
  36        0.029456
  37        1.348076
  38        1.361071
  39        1.412343
  40        1.456471
  41        1.470442
  42        1.472408
  43        1.518710
  44        1.531588
  45        1.572594
  46        1.709520
  47        1.890878
  48        1.926095
  49        2.059130
  50        2.651222
  51        2.729750
  52        3.090739
  53        3.220342
  54        4.007633
  55        4.037527
  56        4.171176
  57        5.533405
  58        6.354509
  59        7.628225
  60        7.977940
  61        8.625322
  62        8.800838
  63        9.574599
  64        9.738915
  65        9.808741
  66       10.416912
  67       10.580846
  68       10.696128
  69       10.713082
  70       11.280275
  71       11.714163
  72       12.390671
  73       12.447521
  74       12.729516
  75       13.324848
  76       13.388252
  77       13.824879
  78       13.889774
  79       14.138344
  80       14.180160
 
  0.2500000E+00  0.7372575E-17  0.1387779E-16  0.2500000E-01
   1      -68.650856
   2      -68.645395
   3      -68.633533
   4      -68.633879
   5      -68.618545
   6      -68.613525
   7      -68.601536
   8      -68.596177
   9      -68.578453
  10      -68.577845
  11      -68.561095
  12      -68.561245
  13      -12.592807
  14      -11.127159
  15      -10.980369
  16      -10.676871
  17      -10.366748
  18      -10.278116
  19       -5.928334
  20       -4.776329
  21       -2.645975
  22       -2.251369
  23       -2.085723
  24       -1.690155
  25       -1.346214
  26       -0.996688
  27       -0.770222
  28       -0.621372
  29       -0.553694
  30       -0.440677
  31       -0.359655
  32       -0.244429
  33       -0.194220
  34       -0.171209
  35       -0.046985
  36        0.038406
  37        1.277451
  38        1.334941
  39        1.353423
  40        1.389951
  41        1.425216
  42        1.470627
  43        1.497353
  44        1.529772
  45        1.724869
  46        1.857340
  47        2.056807
  48        2.094820
  49        2.230202
  50        2.413772
  51        2.554482
  52        2.825583
  53        2.948730
  54        3.241838
  55        3.661644
  56        4.040296
  57        6.161700
  58        6.907187
  59        8.130670
  60        8.265547
  61        8.598533
  62        9.014946
  63        9.243030
  64        9.529723
  65        9.868650
  66       10.375840
  67       10.632843
  68       10.817422
  69       10.939109
  70       11.187823
  71       11.656179
  72       11.769754
  73       12.116617
  74       12.441742
  75       12.618071
  76       13.010664
  77       13.508578
  78       13.875946
  79       14.209804
  80       14.715242
 
  0.5000000E+00  0.1474515E-16  0.2775558E-16  0.1250000E-01
   1      -68.650686
   2      -68.645281
   3      -68.633742
   4      -68.633513
   5      -68.618531
   6      -68.613472
   7      -68.601468
   8      -68.596092
   9      -68.578356
  10      -68.577874
  11      -68.560926
  12      -68.561129
  13      -12.433044
  14      -11.245048
  15      -10.958971
  16      -10.765839
  17      -10.427003
  18      -10.358634
  19       -5.865297
  20       -4.551824
  21       -2.495297
  22       -2.241119
  23       -1.945756
  24       -1.461612
  25       -1.224578
  26       -1.107488
  27       -0.900756
  28       -0.862962
  29       -0.604846
  30       -0.536913
  31       -0.274644
  32       -0.205526
  33       -0.203221
  34       -0.146558
  35       -0.030780
  36        0.080473
  37        1.252743
  38        1.326706
  39        1.345295
  40        1.394763
  41        1.470708
  42        1.478059
  43        1.498234
  44        1.552579
  45        1.754328
  46        1.792441
  47        1.968420
  48        2.146022
  49        2.320922
  50        2.362867
  51        2.550615
  52        2.669906
  53        2.934617
  54        3.080067
  55        3.248977
  56        3.862221
  57        6.374898
  58        7.102756
  59        7.975067
  60        8.202758
  61        8.514659
  62        8.813958
  63        9.330523
  64        9.884918
  65       10.014512
  66       10.522724
  67       10.691175
  68       10.793017
  69       11.143232
  70       11.411007
  71       11.615308
  72       11.774992
  73       11.942308
  74       12.504547
  75       12.785626
  76       13.005014
  77       13.396209
  78       13.544881
  79       13.933805
  80       14.269519
 
  0.7372575E-17  0.2500000E+00  0.1387779E-16  0.2500000E-01
   1      -68.650835
   2      -68.645418
   3      -68.633560
   4      -68.633852
   5      -68.618540
   6      -68.613530
   7      -68.601561
   8      -68.596150
   9      -68.578473
  10      -68.577825
  11      -68.561095
  12      -68.561244
  13      -12.592754
  14      -11.128262
  15      -10.980240
  16      -10.675108
  17      -10.367125
  18      -10.278518
  19       -5.928379
  20       -4.776162
  21       -2.646659
  22       -2.253002
  23       -2.087555
  24       -1.685697
  25       -1.346545
  26       -0.998237
  27       -0.764354
  28       -0.621545
  29       -0.558128
  30       -0.439556
  31       -0.360550
  32       -0.244898
  33       -0.195394
  34       -0.169124
  35       -0.048010
  36        0.039083
  37        1.277992
  38        1.334992
  39        1.353395
  40        1.390890
  41        1.425346
  42        1.470612
  43        1.496618
  44        1.529631
  45        1.724401
  46        1.857681
  47        2.056682
  48        2.093402
  49        2.229892
  50        2.413632
  51        2.555441
  52        2.826704
  53        2.947254
  54        3.241755
  55        3.662845
  56        4.038297
  57        6.165295
  58        6.904040
  59        8.140138
  60        8.263018
  61        8.591533
  62        9.017846
  63        9.248928
  64        9.532749
  65        9.862527
  66       10.373856
  67       10.634185
  68       10.812522
  69       10.939776
  70       11.188515
  71       11.655727
  72       11.770369
  73       12.115977
  74       12.442934
  75       12.615746
  76       13.004548
  77       13.519708
  78       13.899422
  79       14.271492
  80       14.844410
 
  0.2500000E+00  0.2500000E+00  0.0000000E+00  0.2500000E-01
   1      -68.650858
   2      -68.645418
   3      -68.633668
   4      -68.633531
   5      -68.618678
   6      -68.613661
   7      -68.601436
   8      -68.596052
   9      -68.578586
  10      -68.577960
  11      -68.561133
  12      -68.561241
  13      -12.436794
  14      -11.187728
  15      -10.944375
  16      -10.878094
  17      -10.390723
  18      -10.351809
  19       -5.870255
  20       -4.525068
  21       -2.419457
  22       -2.244060
  23       -1.794333
  24       -1.681560
  25       -1.352393
  26       -1.296810
  27       -1.081816
  28       -0.683941
  29       -0.526629
  30       -0.296961
  31       -0.284788
  32       -0.225647
  33       -0.188193
  34       -0.129373
  35       -0.093246
  36        0.080645
  37        1.291909
  38        1.310223
  39        1.414363
  40        1.424478
  41        1.461267
  42        1.481478
  43        1.493933
  44        1.570928
  45        1.671780
  46        1.879983
  47        1.940038
  48        2.134700
  49        2.278717
  50        2.320163
  51        2.559364
  52        2.648728
  53        2.903637
  54        2.943870
  55        3.697850
  56        3.831047
  57        6.165527
  58        6.991894
  59        7.997107
  60        8.331071
  61        8.431159
  62        8.573242
  63        9.133369
  64        9.246346
  65       10.368063
  66       10.500227
  67       10.922977
  68       11.185812
  69       11.335822
  70       11.558905
  71       11.813300
  72       11.965205
  73       12.313142
  74       12.503149
  75       12.708533
  76       12.914946
  77       13.340138
  78       13.446878
  79       14.263127
  80       14.370078
 
  0.5000000E+00  0.2500000E+00 -0.2775558E-16  0.2500000E-01
   1      -68.650619
   2      -68.645223
   3      -68.633751
   4      -68.633584
   5      -68.618453
   6      -68.613437
   7      -68.601493
   8      -68.596104
   9      -68.578148
  10      -68.577992
  11      -68.560953
  12      -68.561127
  13      -12.437200
  14      -11.350772
  15      -10.939605
  16      -10.738522
  17      -10.389822
  18      -10.271964
  19       -5.941528
  20       -4.645313
  21       -2.390733
  22       -2.225627
  23       -2.057617
  24       -1.635364
  25       -1.362445
  26       -1.288692
  27       -1.023491
  28       -0.514691
  29       -0.484009
  30       -0.329548
  31       -0.282282
  32       -0.218275
  33       -0.151272
  34       -0.136606
  35       -0.011832
  36        0.113613
  37        1.244846
  38        1.313276
  39        1.381745
  40        1.436037
  41        1.460182
  42        1.489850
  43        1.495862
  44        1.549648
  45        1.747371
  46        1.828096
  47        1.921446
  48        2.133113
  49        2.222707
  50        2.384951
  51        2.561918
  52        2.789332
  53        2.978161
  54        3.311703
  55        3.601843
  56        3.749545
  57        6.077646
  58        6.941169
  59        7.608312
  60        8.062929
  61        8.413086
  62        8.619731
  63        8.978499
  64        9.149850
  65       10.091640
  66       10.334888
  67       10.737271
  68       11.110165
  69       11.465183
  70       11.595770
  71       11.800008
  72       12.086618
  73       12.479038
  74       12.916067
  75       13.037967
  76       13.830728
  77       14.193650
  78       14.656254
  79       15.423496
  80       15.641230
 
 -0.2500000E+00  0.2500000E+00  0.0000000E+00  0.2500000E-01
   1      -68.650847
   2      -68.645408
   3      -68.633625
   4      -68.633732
   5      -68.618476
   6      -68.613460
   7      -68.601531
   8      -68.596148
   9      -68.578395
  10      -68.577800
  11      -68.561093
  12      -68.561249
  13      -12.595710
  14      -11.249496
  15      -10.991808
  16      -10.569564
  17      -10.367718
  18      -10.180462
  19       -6.004744
  20       -4.897248
  21       -2.645782
  22       -2.316290
  23       -1.971034
  24       -1.646268
  25       -1.493120
  26       -1.185003
  27       -0.789788
  28       -0.585136
  29       -0.449672
  30       -0.337049
  31       -0.293541
  32       -0.233716
  33       -0.176653
  34       -0.130380
  35       -0.010811
  36        0.071502
  37        1.257817
  38        1.319465
  39        1.362699
  40        1.421791
  41        1.429499
  42        1.474386
  43        1.502628
  44        1.540840
  45        1.723664
  46        1.812401
  47        1.994317
  48        2.072318
  49        2.416645
  50        2.461884
  51        2.528180
  52        2.872672
  53        3.142294
  54        3.230192
  55        3.784417
  56        4.068919
  57        5.970302
  58        6.686560
  59        7.535207
  60        8.218556
  61        8.619230
  62        8.924523
  63        9.306721
  64        9.430604
  65        9.803314
  66       10.270574
  67       10.544272
  68       10.831094
  69       10.972181
  70       11.381759
  71       11.469986
  72       11.733294
  73       12.099813
  74       12.658782
  75       12.939793
  76       13.101554
  77       13.354387
  78       13.522117
  79       14.473699
  80       14.755886
 
  0.1474515E-16  0.5000000E+00  0.2775558E-16  0.1250000E-01
   1      -68.650714
   2      -68.645246
   3      -68.633775
   4      -68.633479
   5      -68.618487
   6      -68.613518
   7      -68.601474
   8      -68.596086
   9      -68.578419
  10      -68.577813
  11      -68.560991
  12      -68.561068
  13      -12.432827
  14      -11.248177
  15      -10.958254
  16      -10.760845
  17      -10.428880
  18      -10.359475
  19       -5.865294
  20       -4.551588
  21       -2.494294
  22       -2.245774
  23       -1.947724
  24       -1.458397
  25       -1.224834
  26       -1.101802
  27       -0.906142
  28       -0.860690
  29       -0.601705
  30       -0.538583
  31       -0.274665
  32       -0.207415
  33       -0.202740
  34       -0.146202
  35       -0.031991
  36        0.081387
  37        1.252913
  38        1.326087
  39        1.345721
  40        1.397633
  41        1.469470
  42        1.477653
  43        1.499214
  44        1.552616
  45        1.752092
  46        1.791604
  47        1.968303
  48        2.145537
  49        2.319819
  50        2.362134
  51        2.554222
  52        2.669158
  53        2.936313
  54        3.079440
  55        3.248240
  56        3.859792
  57        6.380194
  58        7.099003
  59        7.979761
  60        8.209027
  61        8.514824
  62        8.813424
  63        9.326037
  64        9.891392
  65       10.005479
  66       10.518362
  67       10.696312
  68       10.791969
  69       11.141386
  70       11.404746
  71       11.615497
  72       11.777450
  73       11.947257
  74       12.504049
  75       12.831335
  76       13.028852
  77       13.551173
  78       13.682435
  79       14.551290
  80       15.247228
 
  0.2500000E+00  0.5000000E+00 -0.2775558E-16  0.2500000E-01
   1      -68.650647
   2      -68.645202
   3      -68.633723
   4      -68.633571
   5      -68.618427
   6      -68.613484
   7      -68.601492
   8      -68.596124
   9      -68.578176
  10      -68.577961
  11      -68.561024
  12      -68.561055
  13      -12.437109
  14      -11.351571
  15      -10.939370
  16      -10.737366
  17      -10.390543
  18      -10.271862
  19       -5.941570
  20       -4.645114
  21       -2.391437
  22       -2.229333
  23       -2.055312
  24       -1.638247
  25       -1.363204
  26       -1.281207
  27       -1.022977
  28       -0.513213
  29       -0.486730
  30       -0.330862
  31       -0.283912
  32       -0.214635
  33       -0.152475
  34       -0.137216
  35       -0.011658
  36        0.113686
  37        1.244669
  38        1.314875
  39        1.380197
  40        1.435230
  41        1.460150
  42        1.491151
  43        1.496160
  44        1.549329
  45        1.747374
  46        1.829075
  47        1.920010
  48        2.132503
  49        2.221142
  50        2.386520
  51        2.561228
  52        2.788956
  53        2.978458
  54        3.312806
  55        3.602817
  56        3.747702
  57        6.080413
  58        6.938849
  59        7.610455
  60        8.062562
  61        8.414061
  62        8.618059
  63        8.979090
  64        9.150394
  65       10.094160
  66       10.339810
  67       10.731841
  68       11.113278
  69       11.458227
  70       11.574970
  71       11.787529
  72       12.035677
  73       12.519054
  74       12.675271
  75       12.912828
  76       13.212898
  77       14.232326
  78       14.765254
  79       15.246123
  80       15.907088
 
  0.5000000E+00  0.5000000E+00  0.0000000E+00  0.1250000E-01
   1      -68.650475
   2      -68.645027
   3      -68.633547
   4      -68.633404
   5      -68.618324
   6      -68.613359
   7      -68.601294
   8      -68.595922
   9      -68.578282
  10      -68.577671
  11      -68.560735
  12      -68.560941
  13      -12.429015
  14      -11.498752
  15      -10.914539
  16      -10.617684
  17      -10.399427
  18      -10.199422
  19       -6.019652
  20       -4.812699
  21       -2.309864
  22       -2.267813
  23       -2.087064
  24       -1.706429
  25       -1.248848
  26       -1.109411
  27       -0.843294
  28       -0.784717
  29       -0.727863
  30       -0.242106
  31       -0.201170
  32       -0.182747
  33       -0.155424
  34       -0.039091
  35       -0.002760
  36        0.184973
  37        1.265018
  38        1.315760
  39        1.372761
  40        1.412364
  41        1.432225
  42        1.490496
  43        1.506405
  44        1.547961
  45        1.787523
  46        1.848714
  47        1.993676
  48        2.149720
  49        2.252329
  50        2.335604
  51        2.560857
  52        2.762571
  53        2.774933
  54        3.369373
  55        3.765347
  56        4.006093
  57        5.843894
  58        6.763986
  59        7.082837
  60        8.413174
  61        8.553137
  62        8.770549
  63        9.146976
  64        9.249454
  65        9.956594
  66       10.290282
  67       10.723736
  68       10.829530
  69       10.878031
  70       11.274498
  71       11.758281
  72       11.913399
  73       11.969464
  74       12.369117
  75       12.543816
  76       13.451496
  77       14.286845
  78       14.670346
  79       16.744665
  80       16.752772
 
 -0.2168404E-18 -0.2168404E-18  0.2000000E+00  0.2500000E-01
   1      -68.650883
   2      -68.645443
   3      -68.633588
   4      -68.633826
   5      -68.618571
   6      -68.613554
   7      -68.601556
   8      -68.596172
   9      -68.578485
  10      -68.577881
  11      -68.561150
  12      -68.561262
  13      -12.614912
  14      -11.424836
  15      -10.775988
  16      -10.608067
  17      -10.250498
  18      -10.237761
  19       -5.827831
  20       -5.049242
  21       -2.600202
  22       -2.369896
  23       -1.960883
  24       -1.776835
  25       -1.447484
  26       -1.127081
  27       -1.064738
  28       -0.765806
  29       -0.468393
  30       -0.292884
  31       -0.241629
  32       -0.236893
  33       -0.195150
  34       -0.147864
  35       -0.018486
  36        0.022879
  37        1.331467
  38        1.379926
  39        1.414040
  40        1.438031
  41        1.463695
  42        1.465536
  43        1.512880
  44        1.544964
  45        1.630511
  46        1.756914
  47        1.785337
  48        1.949216
  49        2.089253
  50        2.660819
  51        2.719238
  52        3.195602
  53        3.254821
  54        3.517341
  55        3.896777
  56        3.976498
  57        6.041887
  58        6.413678
  59        7.817750
  60        7.903041
  61        8.372731
  62        8.826878
  63        9.773670
  64        9.792808
  65       10.063329
  66       10.583204
  67       10.643072
  68       10.813017
  69       10.856060
  70       11.491374
  71       11.559098
  72       12.026932
  73       12.578793
  74       12.777409
  75       12.910229
  76       13.210065
  77       13.535592
  78       13.823318
  79       14.196938
  80       14.706592
 
  0.2500000E+00  0.1517883E-17  0.2000000E+00  0.2500000E-01
   1      -68.650821
   2      -68.645379
   3      -68.633582
   4      -68.633804
   5      -68.618607
   6      -68.613602
   7      -68.601519
   8      -68.596123
   9      -68.578521
  10      -68.577867
  11      -68.561071
  12      -68.561214
  13      -12.455549
  14      -11.464756
  15      -10.864275
  16      -10.688880
  17      -10.373885
  18      -10.245838
  19       -5.762664
  20       -4.806958
  21       -2.444331
  22       -2.229548
  23       -1.853514
  24       -1.713358
  25       -1.431802
  26       -1.188203
  27       -0.890671
  28       -0.746232
  29       -0.606437
  30       -0.521884
  31       -0.312887
  32       -0.245961
  33       -0.177546
  34       -0.124153
  35       -0.053538
  36        0.061106
  37        1.300773
  38        1.333751
  39        1.367896
  40        1.430882
  41        1.443819
  42        1.477926
  43        1.520511
  44        1.545932
  45        1.644179
  46        1.871618
  47        1.978391
  48        2.047063
  49        2.193779
  50        2.475381
  51        2.593544
  52        2.838332
  53        2.964384
  54        3.131919
  55        3.565583
  56        3.724664
  57        6.434108
  58        6.960727
  59        8.167755
  60        8.246367
  61        8.827498
  62        9.133377
  63        9.462216
  64        9.792667
  65       10.084002
  66       10.303330
  67       10.739208
  68       11.080711
  69       11.289969
  70       11.424806
  71       11.630862
  72       11.724346
  73       12.090941
  74       12.268707
  75       12.540682
  76       12.660683
  77       12.954782
  78       13.059058
  79       13.644388
  80       14.693503
 
  0.5000000E+00  0.9107298E-17  0.2000000E+00  0.2500000E-01
   1      -68.650627
   2      -68.645248
   3      -68.633703
   4      -68.633500
   5      -68.618479
   6      -68.613451
   7      -68.601440
   8      -68.596031
   9      -68.578240
  10      -68.577947
  11      -68.560988
  12      -68.561152
  13      -12.352833
  14      -11.409743
  15      -10.954601
  16      -10.685785
  17      -10.478136
  18      -10.334941
  19       -5.747175
  20       -4.724327
  21       -2.521869
  22       -2.184501
  23       -1.951318
  24       -1.533829
  25       -1.302144
  26       -1.095804
  27       -0.870567
  28       -0.761502
  29       -0.549587
  30       -0.445283
  31       -0.291084
  32       -0.181952
  33       -0.146925
  34       -0.107911
  35       -0.045616
  36        0.022890
  37        1.271125
  38        1.296010
  39        1.349533
  40        1.427906
  41        1.451177
  42        1.479010
  43        1.500002
  44        1.586770
  45        1.719562
  46        1.932038
  47        2.077590
  48        2.146443
  49        2.266918
  50        2.402817
  51        2.567059
  52        2.598223
  53        2.896654
  54        3.006550
  55        3.357432
  56        3.900503
  57        6.355638
  58        6.902245
  59        7.573089
  60        8.080158
  61        8.544002
  62        8.794228
  63        9.283506
  64        9.631656
  65        9.927756
  66       10.274729
  67       10.661887
  68       10.927972
  69       10.975363
  70       11.282592
  71       11.518072
  72       11.788972
  73       12.247234
  74       12.543052
  75       13.054904
  76       13.513869
  77       14.303341
  78       14.573935
  79       15.132492
  80       16.273927
 
 -0.2500000E+00 -0.4098284E-16  0.2000000E+00  0.2500000E-01
   1      -68.650873
   2      -68.645440
   3      -68.633498
   4      -68.633869
   5      -68.618584
   6      -68.613557
   7      -68.601541
   8      -68.596156
   9      -68.578521
  10      -68.577880
  11      -68.561128
  12      -68.561271
  13      -12.538330
  14      -11.335579
  15      -10.872363
  16      -10.606399
  17      -10.399388
  18      -10.283560
  19       -5.820667
  20       -4.976571
  21       -2.664403
  22       -2.452689
  23       -2.038123
  24       -1.579045
  25       -1.172455
  26       -0.980197
  27       -0.793847
  28       -0.655822
  29       -0.516612
  30       -0.390401
  31       -0.270597
  32       -0.255685
  33       -0.192720
  34       -0.145541
  35       -0.047733
  36        0.012846
  37        1.288934
  38        1.308852
  39        1.387829
  40        1.406659
  41        1.432093
  42        1.454409
  43        1.490899
  44        1.563873
  45        1.686514
  46        1.913936
  47        1.985568
  48        2.145913
  49        2.333464
  50        2.564769
  51        2.617188
  52        2.828768
  53        2.972941
  54        3.248888
  55        3.681764
  56        3.944873
  57        6.170866
  58        6.638178
  59        7.765468
  60        7.969630
  61        8.215725
  62        8.569617
  63        9.380239
  64        9.574720
  65        9.905402
  66       10.250108
  67       10.545407
  68       10.786791
  69       10.843931
  70       11.070834
  71       11.564886
  72       12.017503
  73       12.526171
  74       12.758210
  75       12.953855
  76       13.302373
  77       13.411546
  78       13.745893
  79       13.846743
  80       14.726833
 
  0.1517883E-17  0.2500000E+00  0.2000000E+00  0.2500000E-01
   1      -68.650818
   2      -68.645381
   3      -68.633637
   4      -68.633749
   5      -68.618615
   6      -68.613595
   7      -68.601512
   8      -68.596130
   9      -68.578501
  10      -68.577886
  11      -68.561062
  12      -68.561224
  13      -12.455482
  14      -11.465223
  15      -10.864152
  16      -10.688075
  17      -10.373941
  18      -10.246282
  19       -5.762662
  20       -4.806779
  21       -2.444922
  22       -2.231629
  23       -1.851657
  24       -1.711993
  25       -1.433902
  26       -1.188025
  27       -0.887038
  28       -0.745540
  29       -0.605892
  30       -0.527522
  31       -0.312998
  32       -0.244796
  33       -0.176595
  34       -0.123933
  35       -0.054130
  36        0.061193
  37        1.300307
  38        1.334905
  39        1.367614
  40        1.430224
  41        1.445539
  42        1.477239
  43        1.520575
  44        1.546561
  45        1.642821
  46        1.870695
  47        1.978584
  48        2.047462
  49        2.193047
  50        2.475619
  51        2.594780
  52        2.837353
  53        2.964522
  54        3.131112
  55        3.566430
  56        3.724741
  57        6.441281
  58        6.955311
  59        8.170474
  60        8.242962
  61        8.830250
  62        9.127802
  63        9.464870
  64        9.795535
  65       10.087586
  66       10.297522
  67       10.742119
  68       11.076318
  69       11.291875
  70       11.422909
  71       11.632996
  72       11.725324
  73       12.088468
  74       12.264911
  75       12.541551
  76       12.656652
  77       12.953138
  78       13.057575
  79       13.657482
  80       14.696966
 
  0.2500000E+00  0.2500000E+00  0.2000000E+00  0.2500000E-01
   1      -68.650729
   2      -68.645289
   3      -68.633605
   4      -68.633479
   5      -68.618453
   6      -68.613437
   7      -68.601389
   8      -68.596006
   9      -68.578364
  10      -68.577762
  11      -68.561047
  12      -68.561060
  13      -12.323249
  14      -11.472106
  15      -10.863808
  16      -10.858395
  17      -10.406698
  18      -10.287998
  19       -5.743031
  20       -4.693869
  21       -2.240912
  22       -2.136341
  23       -1.930903
  24       -1.850747
  25       -1.451395
  26       -1.395031
  27       -1.040018
  28       -0.519644
  29       -0.464167
  30       -0.350181
  31       -0.251375
  32       -0.218597
  33       -0.162692
  34       -0.114732
  35       -0.090935
  36        0.080919
  37        1.260238
  38        1.346032
  39        1.396784
  40        1.433485
  41        1.451567
  42        1.508860
  43        1.534784
  44        1.541799
  45        1.752450
  46        1.817142
  47        2.040325
  48        2.135537
  49        2.284639
  50        2.310052
  51        2.520586
  52        2.768851
  53        2.896839
  54        3.262029
  55        3.494404
  56        3.800630
  57        6.179681
  58        6.842506
  59        7.827649
  60        8.041769
  61        8.188409
  62        8.723080
  63        9.153366
  64        9.300376
  65       10.222288
  66       10.446859
  67       10.593931
  68       11.009614
  69       11.241674
  70       11.486863
  71       11.814587
  72       12.172557
  73       12.206650
  74       12.574652
  75       12.690532
  76       13.109919
  77       13.414857
  78       13.885242
  79       14.005720
  80       14.529568
 
  0.5000000E+00  0.2500000E+00  0.2000000E+00  0.2500000E-01
   1      -68.650602
   2      -68.645163
   3      -68.633764
   4      -68.633532
   5      -68.618428
   6      -68.613511
   7      -68.601471
   8      -68.596066
   9      -68.578211
  10      -68.577967
  11      -68.560973
  12      -68.561066
  13      -12.370076
  14      -11.469954
  15      -10.938660
  16      -10.653753
  17      -10.419833
  18      -10.305417
  19       -5.795420
  20       -4.838058
  21       -2.525319
  22       -2.242140
  23       -1.873450
  24       -1.642232
  25       -1.504092
  26       -1.311119
  27       -0.902248
  28       -0.532154
  29       -0.378561
  30       -0.351281
  31       -0.225188
  32       -0.179656
  33       -0.164825
  34       -0.076836
  35       -0.026423
  36        0.079863
  37        1.187820
  38        1.362384
  39        1.396177
  40        1.440472
  41        1.462046
  42        1.504577
  43        1.517092
  44        1.584424
  45        1.737538
  46        1.818881
  47        2.035456
  48        2.236161
  49        2.268695
  50        2.363965
  51        2.487600
  52        2.668885
  53        3.052024
  54        3.410411
  55        3.728622
  56        3.864368
  57        5.924477
  58        6.613216
  59        7.352421
  60        7.943291
  61        8.067936
  62        8.725476
  63        8.898870
  64        9.138815
  65        9.846016
  66       10.331416
  67       10.557978
  68       10.926057
  69       11.224785
  70       11.421571
  71       11.749306
  72       12.005595
  73       12.496498
  74       12.827537
  75       13.212738
  76       14.271885
  77       14.716654
  78       15.166468
  79       15.908220
  80       16.565331
 
 -0.2500000E+00  0.2500000E+00  0.2000000E+00  0.2500000E-01
   1      -68.650820
   2      -68.645344
   3      -68.633707
   4      -68.633768
   5      -68.618526