       N       E                     dE             d eps       ncg     rms          ort
SDA:   1     0.755361453991E+02    0.75536E+02   -0.21321E+03  3360   0.533E+03 0.000E+00
DMP:   2    -0.837638888217E+01   -0.83913E+02   -0.14689E+03  3360   0.395E+03-0.737E+02
DMP:   3    -0.151366324473E+02   -0.67602E+01   -0.20368E+03  3360   0.693E+03-0.480E+03
DMP:   4    -0.226066715320E+02   -0.74700E+01   -0.10748E+03  3360   0.391E+03-0.320E+03
DMP:   5    -0.608091134540E+02   -0.38202E+02   -0.15086E+02  3360   0.707E+02-0.863E+02
DMP:   6    -0.659322262600E+02   -0.51231E+01   -0.81739E+01  3360   0.247E+02-0.110E+02
DMP:   7    -0.674722096783E+02   -0.15400E+01   -0.41380E+01  3360   0.147E+02-0.114E+02
DMP:   8    -0.690842660539E+02   -0.16121E+01   -0.77187E+00  3360   0.284E+01-0.238E+01
DMP:   9    -0.693949215681E+02   -0.31066E+00   -0.38626E+00  3360   0.111E+01-0.366E+00
DMP:  10    -0.694986671718E+02   -0.10375E+00   -0.15248E+00  3360   0.548E+00-0.437E+00
DMP:  11    -0.695683409975E+02   -0.69674E-01   -0.36890E-01  3360   0.105E+00-0.341E-01
DMP:  12    -0.695806981796E+02   -0.12357E-01   -0.22857E-01  3360   0.690E-01-0.309E-01
DMP:  13    -0.695903601661E+02   -0.96620E-02   -0.51243E-02  3360   0.162E-01-0.877E-02
DMP:  14    -0.695928195170E+02   -0.24594E-02   -0.37819E-02  3360   0.965E-02-0.506E-03
DMP:  15    -0.695943265368E+02   -0.15070E-02   -0.10387E-02  3360   0.333E-02-0.193E-02
DMP:  16    -0.695948983520E+02   -0.57182E-03   -0.40993E-03  3360   0.917E-03 0.281E-03
DMP:  17    -0.695950718289E+02   -0.17348E-03   -0.20897E-03  3360   0.580E-03-0.151E-03
DMP:  18    -0.695951890032E+02   -0.11717E-03   -0.56301E-04  3360   0.120E-03 0.553E-04
DMP:  19    -0.695952179900E+02   -0.28987E-04   -0.35371E-04  3360   0.884E-04-0.242E-07
DMP:  20    -0.695952378073E+02   -0.19817E-04   -0.11602E-04  3360   0.242E-04 0.126E-04
DMP:  21    -0.695952452128E+02   -0.74055E-05   -0.70370E-05  3360   0.141E-04 0.916E-05
   1 F= -.69595245E+02 E0= -.69595440E+02  d E =0.583130E-03
