<?xml version="1.0" encoding="ISO-8859-1"?>
<modeling>
 <generator>
  <i name="program" type="string">vasp </i>
  <i name="version" type="string">5.3.3  </i>
  <i name="subversion" type="string">18Dez12 (build Nov 13 2015 09:58:40) complex                          parallel </i>
  <i name="platform" type="string">LinuxIFC </i>
  <i name="date" type="string">2017 10 18 </i>
  <i name="time" type="string">13:15:29 </i>
 </generator>
 <incar>
  <i type="string" name="SYSTEM"> CGS</i>
  <i type="string" name="PREC">normal</i>
  <i type="string" name="ALGO"> D</i>
  <i type="logical" name="LDIAG"> T  </i>
  <i name="EDIFF">      0.00001000</i>
  <i name="ENCUT">    400.00000000</i>
  <i name="TIME">      0.40000000</i>
  <i type="int" name="ISMEAR">     1</i>
  <i name="SIGMA">      0.10000000</i>
  <i type="logical" name="LHFCALC"> T  </i>
  <i type="string" name="GGA"> PE</i>
  <i name="HFSCREEN">      0.20000000</i>
  <i name="AEXX">      0.25000000</i>
  <i type="string" name="PRECFOCK">fast</i>
 </incar>
 <kpoints>
  <generation param="Gamma">
   <v type="int" name="divisions">       4        4        5 </v>
   <v name="usershift">      0.00000000       0.00000000       0.00000000 </v>
   <v name="genvec1">      0.25000000       0.00000000       0.00000000 </v>
   <v name="genvec2">      0.00000000       0.25000000       0.00000000 </v>
   <v name="genvec3">      0.00000000       0.00000000       0.20000000 </v>
   <v name="shift">      0.00000000       0.00000000       0.00000000 </v>
  </generation>
  <varray name="kpointlist" >
   <v>       0.00000000       0.00000000       0.00000000 </v>
   <v>       0.25000000       0.00000000       0.00000000 </v>
   <v>       0.50000000       0.00000000       0.00000000 </v>
   <v>       0.00000000       0.25000000       0.00000000 </v>
   <v>       0.25000000       0.25000000       0.00000000 </v>
   <v>       0.50000000       0.25000000      -0.00000000 </v>
   <v>      -0.25000000       0.25000000       0.00000000 </v>
   <v>       0.00000000       0.50000000       0.00000000 </v>
   <v>       0.25000000       0.50000000      -0.00000000 </v>
   <v>       0.50000000       0.50000000       0.00000000 </v>
   <v>      -0.00000000      -0.00000000       0.20000000 </v>
   <v>       0.25000000       0.00000000       0.20000000 </v>
   <v>       0.50000000       0.00000000       0.20000000 </v>
   <v>      -0.25000000      -0.00000000       0.20000000 </v>
   <v>       0.00000000       0.25000000       0.20000000 </v>
   <v>       0.25000000       0.25000000       0.20000000 </v>
   <v>       0.50000000       0.25000000       0.20000000 </v>
   <v>      -0.25000000       0.25000000       0.20000000 </v>
   <v>       0.00000000       0.50000000       0.20000000 </v>
   <v>       0.25000000       0.50000000       0.20000000 </v>
   <v>       0.50000000       0.50000000       0.20000000 </v>
   <v>      -0.25000000       0.50000000       0.20000000 </v>
   <v>      -0.00000000      -0.25000000       0.20000000 </v>
   <v>       0.25000000      -0.25000000       0.20000000 </v>
   <v>       0.50000000      -0.25000000       0.20000000 </v>
   <v>      -0.25000000      -0.25000000       0.20000000 </v>
   <v>      -0.00000000      -0.00000000       0.40000000 </v>
   <v>       0.25000000       0.00000000       0.40000000 </v>
   <v>       0.50000000       0.00000000       0.40000000 </v>
   <v>      -0.25000000       0.00000000       0.40000000 </v>
   <v>       0.00000000       0.25000000       0.40000000 </v>
   <v>       0.25000000       0.25000000       0.40000000 </v>
   <v>       0.50000000       0.25000000       0.40000000 </v>
   <v>      -0.25000000       0.25000000       0.40000000 </v>
   <v>       0.00000000       0.50000000       0.40000000 </v>
   <v>       0.25000000       0.50000000       0.40000000 </v>
   <v>       0.50000000       0.50000000       0.40000000 </v>
   <v>      -0.25000000       0.50000000       0.40000000 </v>
   <v>       0.00000000      -0.25000000       0.40000000 </v>
   <v>       0.25000000      -0.25000000       0.40000000 </v>
   <v>       0.50000000      -0.25000000       0.40000000 </v>
   <v>      -0.25000000      -0.25000000       0.40000000 </v>
  </varray>
  <varray name="weights" >
   <v>       0.01250000 </v>
   <v>       0.02500000 </v>
   <v>       0.01250000 </v>
   <v>       0.02500000 </v>
   <v>       0.02500000 </v>
   <v>       0.02500000 </v>
   <v>       0.02500000 </v>
   <v>       0.01250000 </v>
   <v>       0.02500000 </v>
   <v>       0.01250000 </v>
   <v>       0.02500000 </v>
   <v>       0.02500000 </v>
   <v>       0.02500000 </v>
   <v>       0.02500000 </v>
   <v>       0.02500000 </v>
   <v>       0.02500000 </v>
   <v>       0.02500000 </v>
   <v>       0.02500000 </v>
   <v>       0.02500000 </v>
   <v>       0.02500000 </v>
   <v>       0.02500000 </v>
   <v>       0.02500000 </v>
   <v>       0.02500000 </v>
   <v>       0.02500000 </v>
   <v>       0.02500000 </v>
   <v>       0.02500000 </v>
   <v>       0.02500000 </v>
   <v>       0.02500000 </v>
   <v>       0.02500000 </v>
   <v>       0.02500000 </v>
   <v>       0.02500000 </v>
   <v>       0.02500000 </v>
   <v>       0.02500000 </v>
   <v>       0.02500000 </v>
   <v>       0.02500000 </v>
   <v>       0.02500000 </v>
   <v>       0.02500000 </v>
   <v>       0.02500000 </v>
   <v>       0.02500000 </v>
   <v>       0.02500000 </v>
   <v>       0.02500000 </v>
   <v>       0.02500000 </v>
  </varray>
 </kpoints>
 <parameters>
  <separator name="general" >
   <i type="string" name="SYSTEM">CGS</i>
   <i type="logical" name="LCOMPAT"> F  </i>
  </separator>
  <separator name="electronic" >
   <i type="string" name="PREC">normal</i>
   <i name="ENMAX">    400.00000000</i>
   <i name="ENAUG">    758.23300000</i>
   <i name="EDIFF">      0.00001000</i>
   <i type="int" name="IALGO">    53</i>
   <i type="int" name="IWAVPR">    10</i>
   <i type="int" name="NBANDS">    80</i>
   <i name="NELECT">    112.00000000</i>
   <i type="int" name="TURBO">     0</i>
   <i type="int" name="IRESTART">     0</i>
   <i type="int" name="NREBOOT">     0</i>
   <i type="int" name="NMIN">     0</i>
   <i name="EREF">      0.00000000</i>
   <separator name="electronic smearing" >
    <i type="int" name="ISMEAR">     1</i>
    <i name="SIGMA">      0.10000000</i>
    <i name="KSPACING">      0.50000000</i>
    <i type="logical" name="KGAMMA"> T  </i>
   </separator>
   <separator name="electronic projectors" >
    <i type="logical" name="LREAL"> F  </i>
    <v name="ROPT">      0.00000000      0.00000000      0.00000000</v>
    <i type="int" name="LMAXPAW">  -100</i>
    <i type="int" name="LMAXMIX">     2</i>
    <i type="logical" name="NLSPLINE"> F  </i>
   </separator>
   <separator name="electronic startup" >
    <i type="int" name="ISTART">     1</i>
    <i type="int" name="ICHARG">     0</i>
    <i type="int" name="INIWAV">     1</i>
   </separator>
   <separator name="electronic spin" >
    <i type="int" name="ISPIN">     1</i>
    <i type="logical" name="LNONCOLLINEAR"> F  </i>
    <v name="MAGMOM">      1.00000000      1.00000000      1.00000000      1.00000000      1.00000000      1.00000000      1.00000000      1.00000000      1.00000000      1.00000000      1.00000000      1.00000000</v>
    <i name="NUPDOWN">     -1.00000000</i>
    <i type="logical" name="LSORBIT"> F  </i>
    <v name="SAXIS">      0.00000000      0.00000000      1.00000000</v>
    <i type="logical" name="LSPIRAL"> F  </i>
    <v name="QSPIRAL">      0.00000000      0.00000000      0.00000000</v>
    <i type="logical" name="LZEROZ"> F  </i>
   </separator>
   <separator name="electronic exchange-correlation" >
    <i type="logical" name="LASPH"> F  </i>
    <i type="logical" name="LMETAGGA"> F  </i>
   </separator>
   <separator name="electronic convergence" >
    <i type="int" name="NELM">    60</i>
    <i type="int" name="NELMDL">     0</i>
    <i type="int" name="NELMIN">     2</i>
    <i name="ENINI">    400.00000000</i>
    <separator name="electronic convergence detail" >
     <i type="logical" name="LDIAG"> T  </i>
     <i type="logical" name="LSUBROT"> T  </i>
     <i name="WEIMIN">      0.00000000</i>
     <i name="EBREAK">      0.00000003</i>
     <i name="DEPER">      0.30000000</i>
     <i type="int" name="NRMM">     4</i>
     <i name="TIME">      0.40000000</i>
    </separator>
   </separator>
   <separator name="electronic mixer" >
    <i name="AMIX">      0.40000000</i>
    <i name="BMIX">      1.00000000</i>
    <i name="AMIN">      0.10000000</i>
    <i name="AMIX_MAG">      1.60000000</i>
    <i name="BMIX_MAG">      1.00000000</i>
    <separator name="electronic mixer details" >
     <i type="int" name="IMIX">     4</i>
     <i type="int" name="MAXMIX">   -45</i>
     <i name="WC">    100.00000000</i>
     <i type="int" name="INIMIX">     1</i>
     <i type="int" name="MIXPRE">     1</i>
     <i type="int" name="MREMOVE">     5</i>
    </separator>
   </separator>
   <separator name="electronic dipolcorrection" >
    <i type="logical" name="LDIPOL"> F  </i>
    <i type="logical" name="LMONO"> F  </i>
    <i type="int" name="IDIPOL">     0</i>
    <i name="EPSILON">      1.00000000</i>
    <v name="DIPOL">   -100.00000000   -100.00000000   -100.00000000</v>
    <i name="EFIELD">      0.00000000</i>
   </separator>
  </separator>
  <separator name="grids" >
   <i type="int" name="NGX">    32</i>
   <i type="int" name="NGY">    32</i>
   <i type="int" name="NGZ">    32</i>
   <i type="int" name="NGXF">    64</i>
   <i type="int" name="NGYF">    64</i>
   <i type="int" name="NGZF">    64</i>
   <i type="logical" name="ADDGRID"> F  </i>
  </separator>
  <separator name="ionic" >
   <i type="int" name="NSW">     0</i>
   <i type="int" name="IBRION">    -1</i>
   <i type="int" name="ISIF">     0</i>
   <i name="PSTRESS">      0.00000000</i>
   <i name="EDIFFG">      0.00010000</i>
   <i type="int" name="NFREE">     0</i>
   <i name="POTIM">      0.50000000</i>
   <i name="SMASS">     -3.00000000</i>
   <i name="SCALEE">      1.00000000</i>
  </separator>
  <separator name="ionic md" >
   <i name="TEBEG">      0.00010000</i>
   <i name="TEEND">      0.00010000</i>
   <i type="int" name="NBLOCK">     1</i>
   <i type="int" name="KBLOCK">     1</i>
   <i type="int" name="NPACO">   256</i>
   <i name="APACO">     16.00000000</i>
  </separator>
  <separator name="symmetry" >
   <i type="int" name="ISYM">     3</i>
   <i name="SYMPREC">      0.00001000</i>
  </separator>
  <separator name="dos" >
   <i type="logical" name="LORBIT"> F  </i>
   <v name="RWIGS">     -1.00000000     -1.00000000     -1.00000000</v>
   <i type="int" name="NEDOS">   301</i>
   <i name="EMIN">     10.00000000</i>
   <i name="EMAX">    -10.00000000</i>
   <i name="EFERMI">      0.00000000</i>
  </separator>
  <separator name="writing" >
   <i type="int" name="NWRITE">     2</i>
   <i type="logical" name="LWAVE"> T  </i>
   <i type="logical" name="LCHARG"> T  </i>
   <i type="logical" name="LPARD"> F  </i>
   <i type="logical" name="LVTOT"> F  </i>
   <i type="logical" name="LVHAR"> F  </i>
   <i type="logical" name="LELF"> F  </i>
   <i type="logical" name="LOPTICS"> F  </i>
   <v name="STM">      0.00000000      0.00000000      0.00000000      0.00000000      0.00000000      0.00000000      0.00000000</v>
  </separator>
  <separator name="performance" >
   <i type="int" name="NPAR">    16</i>
   <i type="int" name="NSIM">     4</i>
   <i type="int" name="NBLK">    -1</i>
   <i type="logical" name="LPLANE"> T  </i>
   <i type="logical" name="LSCALAPACK"> T  </i>
   <i type="logical" name="LSCAAWARE"> F  </i>
   <i type="logical" name="LSCALU"> F  </i>
   <i type="logical" name="LASYNC"> F  </i>
   <i type="logical" name="LORBITALREAL"> F  </i>
  </separator>
  <separator name="miscellaneous" >
   <i type="int" name="IDIOT">     3</i>
   <i type="logical" name="LMUSIC"> F  </i>
   <v name="POMASS">     63.54600000     72.61000000     32.06600000</v>
   <v name="DARWINR">      0.00000000      0.00000000      0.00000000</v>
   <v name="DARWINV">      1.00000000      1.00000000      1.00000000</v>
   <i type="logical" name="LCORR"> T  </i>
  </separator>
  <i type="logical" name="GGA_COMPAT"> T  </i>
  <i type="logical" name="LBERRY"> F  </i>
  <i type="int" name="ICORELEVEL">     0</i>
  <i type="logical" name="LDAU"> F  </i>
  <i type="int" name="I_CONSTRAINED_M">     0</i>
  <separator name="electronic exchange-correlation" >
   <i type="string" name="GGA">PE</i>
   <i type="int" name="VOSKOWN">     0</i>
   <i type="logical" name="LHFCALC"> T  </i>
   <i type="string" name="PRECFOCK">fast</i>
   <i type="logical" name="LSYMGRAD"> F  </i>
   <i type="logical" name="LHFONE"> F  </i>
   <i type="logical" name="LRHFCALC"> F  </i>
   <i type="logical" name="LTHOMAS"> F  </i>
   <i type="logical" name="LMODELHF"> F  </i>
   <i name="ENCUT4O">     -1.00000000</i>
   <i type="int" name="EXXOEP">     0</i>
   <i type="int" name="FOURORBIT">     0</i>
   <i name="AEXX">      0.25000000</i>
   <i name="HFALPHA">     -1.00000000</i>
   <i name="MCALPHA">      0.00000000</i>
   <i name="ALDAX">      0.75000000</i>
   <i name="AGGAX">      0.75000000</i>
   <i name="ALDAC">      1.00000000</i>
   <i name="AGGAC">      1.00000000</i>
   <i type="int" name="NKREDX">     1</i>
   <i type="int" name="NKREDY">     1</i>
   <i type="int" name="NKREDZ">     1</i>
   <i type="logical" name="SHIFTRED"> F  </i>
   <i type="logical" name="ODDONLY"> F  </i>
   <i type="logical" name="EVENONLY"> F  </i>
   <i type="int" name="LMAXFOCK">     4</i>
   <i type="int" name="NMAXFOCKAE">     1</i>
   <i type="logical" name="LFOCKAEDFT"> F  </i>
   <i name="HFSCREEN">      0.20000000</i>
   <i name="HFSCREENC">      0.20000000</i>
   <i type="int" name="NBANDSGWLOW">     1</i>
  </separator>
  <separator name="vdW DFT" >
   <i type="logical" name="LUSE_VDW"> F  </i>
   <i name="Zab_VDW">     -0.84910000</i>
   <i name="PARAM1">      0.12340000</i>
   <i name="PARAM2">      1.00000000</i>
   <i name="PARAM3">      0.00000000</i>
  </separator>
  <separator name="model GW" >
   <i type="int" name="MODEL_GW">     0</i>
   <i name="MODEL_EPS0">     11.09505304</i>
   <i name="MODEL_ALPHA">      1.00000000</i>
  </separator>
  <separator name="linear response parameters" >
   <i type="logical" name="LEPSILON"> F  </i>
   <i type="logical" name="LRPA"> F  </i>
   <i type="logical" name="LNABLA"> F  </i>
   <i type="logical" name="LVEL"> F  </i>
   <i type="int" name="KINTER">     0</i>
   <i name="CSHIFT">      0.10000000</i>
   <i name="OMEGAMAX">     -1.00000000</i>
   <i name="DEG_THRESHOLD">      0.00200000</i>
  </separator>
  <separator name="orbital magnetization" >
   <i type="logical" name="NUCIND"> F  </i>
   <v name="MAGPOS">      0.00000000      0.00000000      0.00000000</v>
   <i type="logical" name="LNICSALL"> T  </i>
   <i type="logical" name="ORBITALMAG"> F  </i>
   <i type="logical" name="LMAGBLOCH"> F  </i>
   <i type="logical" name="LCHIMAG"> F  </i>
   <i type="logical" name="LGAUGE"> T  </i>
   <i type="int" name="MAGATOM">     0</i>
   <v name="MAGDIPOL">      0.00000000      0.00000000      0.00000000</v>
   <v name="AVECCONST">      0.00000000      0.00000000      0.00000000</v>
  </separator>
  <separator name="response functions" >
   <i type="logical" name="LADDER"> F  </i>
   <i type="logical" name="LFXC"> F  </i>
   <i type="logical" name="LHARTREE"> T  </i>
   <i type="int" name="IBSE">     0</i>
   <i type="logical" name="LTCTE"> F  </i>
   <i type="logical" name="LTETE"> F  </i>
   <i type="logical" name="LTRIPLET"> F  </i>
   <i type="logical" name="LFXCEPS"> F  </i>
   <i type="logical" name="L2ORDER"> F  </i>
   <i type="logical" name="LUSEW"> F  </i>
   <i name="ENCUTGW">     -2.00000000</i>
   <i name="ENCUTGWSOFT">     -2.00000000</i>
   <i name="ENCUTLF">     -1.00000000</i>
   <i type="int" name="LMAXMP2">    -1</i>
   <i name="SCISSOR">      0.00000000</i>
   <i type="int" name="NOMEGA">     0</i>
   <i type="int" name="NOMEGAR">     0</i>
   <i type="int" name="NBANDSGW">    -1</i>
   <i type="int" name="NBANDSO">    -1</i>
   <i type="int" name="NBANDSV">    -1</i>
   <i type="int" name="NELM">     1</i>
   <i type="int" name="DIM">     3</i>
   <i type="int" name="ANTIRES">     0</i>
   <i name="OMEGAMAX">    -30.00000000</i>
   <i name="OMEGATL">   -200.00000000</i>
   <i type="int" name="OMEGAGRID">     0</i>
   <i name="CSHIFT">     -0.10000000</i>
   <i type="logical" name="SELFENERGY"> F  </i>
   <i type="logical" name="LSPECTRAL"> F  </i>
   <i type="logical" name="ODDONLYGW"> F  </i>
   <i type="logical" name="EVENONLYGW"> F  </i>
   <i type="int" name="NKREDLFX">     1</i>
   <i type="int" name="NKREDLFY">     1</i>
   <i type="int" name="NKREDLFZ">     1</i>
   <i type="int" name="MAXMEM">  1800</i>
   <i type="int" name="TELESCOPE">     0</i>
  </separator>
 </parameters>
 <atominfo>
  <atoms>      12 </atoms>
  <types>       3 </types>
  <array name="atoms" >
   <dimension dim="1">ion</dimension>
   <field type="string">element</field>
   <field type="int">atomtype</field>
   <set>
    <rc><c>Cu</c><c>   1</c></rc>
    <rc><c>Cu</c><c>   1</c></rc>
    <rc><c>Cu</c><c>   1</c></rc>
    <rc><c>Cu</c><c>   1</c></rc>
    <rc><c>Ge</c><c>   2</c></rc>
    <rc><c>Ge</c><c>   2</c></rc>
    <rc><c>S </c><c>   3</c></rc>
    <rc><c>S </c><c>   3</c></rc>
    <rc><c>S </c><c>   3</c></rc>
    <rc><c>S </c><c>   3</c></rc>
    <rc><c>S </c><c>   3</c></rc>
    <rc><c>S </c><c>   3</c></rc>
   </set>
  </array>
  <array name="atomtypes" >
   <dimension dim="1">type</dimension>
   <field type="int">atomspertype</field>
   <field type="string">element</field>
   <field>mass</field>
   <field>valence</field>
   <field type="string">pseudopotential</field>
   <set>
    <rc><c>   4</c><c>Cu</c><c>     63.54600000</c><c>     17.00000000</c><c>  PAW_PBE Cu_pv 06Sep2000               </c></rc>
    <rc><c>   2</c><c>Ge</c><c>     72.61000000</c><c>      4.00000000</c><c>  PAW_PBE Ge 05Jan2001                  </c></rc>
    <rc><c>   6</c><c>S </c><c>     32.06600000</c><c>      6.00000000</c><c>  PAW_PBE S 17Jan2003                   </c></rc>
   </set>
  </array>
 </atominfo>
 <structure name="initialpos" >
  <crystal>
   <varray name="basis" >
    <v>       3.22479600      -5.64383000       0.03157200 </v>
    <v>       3.22479600       5.64383000       0.03157200 </v>
    <v>      -2.10194600       0.00000000       6.07553700 </v>
   </varray>
   <i name="volume">    221.90106089 </i>
   <varray name="rec_basis" >
    <v>       0.15452516      -0.08859232       0.05346088 </v>
    <v>       0.15452516       0.08859232       0.05346088 </v>
    <v>      -0.00160600       0.00000000       0.16403888 </v>
   </varray>
  </crystal>
  <varray name="positions" >
   <v>       0.61844300       0.12117100       0.11953300 </v>
   <v>       0.12117100       0.61844300       0.61953300 </v>
   <v>       0.96295700       0.79032200       0.11881300 </v>
   <v>       0.79032200       0.96295700       0.61881300 </v>
   <v>       0.43973200       0.26728100       0.59904700 </v>
   <v>       0.26728100       0.43973200       0.09904700 </v>
   <v>       0.07949800       0.91167500       0.49736300 </v>
   <v>       0.57140300       0.41236400       0.98173948 </v>
   <v>       0.73711100       0.25006200       0.49504900 </v>
   <v>       0.41236400       0.57140300       0.48018400 </v>
   <v>       0.91167500       0.07949800       0.99736300 </v>
   <v>       0.25006200       0.73711100       0.99504900 </v>
  </varray>
 </structure>
 <calculation>
  <scstep>
   <time name="total">  248.45  249.48</time>
   <energy>
    <i name="alphaZ">    339.31929130 </i>
    <i name="ewald">  -9063.97964668 </i>
    <i name="hartreedc">  -8067.44322468 </i>
    <i name="XCdc">    369.90401180 </i>
    <i name="pawpsdc">  16899.44085485 </i>
    <i name="pawaedc"> -17392.25473821 </i>
    <i name="eentropy">     -0.00148631 </i>
    <i name="bandstr">  -1657.88346533 </i>
    <i name="atom">  18320.98302006 </i>
    <i name="e_fr_energy">     75.53614540 </i>
    <i name="e_wo_entrp">     75.53763171 </i>
    <i name="e_0_energy">     75.53664084 </i>
   </energy>
  </scstep>
  <scstep>
   <time name="total">  263.63  263.44</time>
   <energy>
    <i name="e_fr_energy">     -8.37638888 </i>
    <i name="e_wo_entrp">     -8.37605064 </i>
    <i name="e_0_energy">     -8.37627613 </i>
   </energy>
  </scstep>
  <scstep>
   <time name="total">  258.29  258.10</time>
   <energy>
    <i name="e_fr_energy">    -15.13663245 </i>
    <i name="e_wo_entrp">    -15.13701771 </i>
    <i name="e_0_energy">    -15.13676087 </i>
   </energy>
  </scstep>
  <scstep>
   <time name="total">  263.22  263.03</time>
   <energy>
    <i name="e_fr_energy">    -22.60667153 </i>
    <i name="e_wo_entrp">    -22.60704552 </i>
    <i name="e_0_energy">    -22.60679619 </i>
   </energy>
  </scstep>
  <scstep>
   <time name="total">  258.23  258.05</time>
   <energy>
    <i name="e_fr_energy">    -60.80911345 </i>
    <i name="e_wo_entrp">    -60.80972444 </i>
    <i name="e_0_energy">    -60.80931712 </i>
   </energy>
  </scstep>
  <scstep>
   <time name="total">  264.71  264.51</time>
   <energy>
    <i name="e_fr_energy">    -65.93222626 </i>
    <i name="e_wo_entrp">    -65.93292281 </i>
    <i name="e_0_energy">    -65.93245844 </i>
   </energy>
  </scstep>
  <scstep>
   <time name="total">  260.80  260.83</time>
   <energy>
    <i name="e_fr_energy">    -67.47220968 </i>
    <i name="e_wo_entrp">    -67.47266404 </i>
    <i name="e_0_energy">    -67.47236113 </i>
   </energy>
  </scstep>
  <scstep>
   <time name="total">  257.82  257.64</time>
   <energy>
    <i name="e_fr_energy">    -69.08426605 </i>
    <i name="e_wo_entrp">    -69.08501157 </i>
    <i name="e_0_energy">    -69.08451456 </i>
   </energy>
  </scstep>
  <scstep>
   <time name="total">  261.54  261.62</time>
   <energy>
    <i name="e_fr_energy">    -69.39492157 </i>
    <i name="e_wo_entrp">    -69.39580501 </i>
    <i name="e_0_energy">    -69.39521605 </i>
   </energy>
  </scstep>
  <scstep>
   <time name="total">  256.55  256.55</time>
   <energy>
    <i name="e_fr_energy">    -69.49866717 </i>
    <i name="e_wo_entrp">    -69.49940879 </i>
    <i name="e_0_energy">    -69.49891438 </i>
   </energy>
  </scstep>
  <scstep>
   <time name="total">  256.39  256.21</time>
   <energy>
    <i name="e_fr_energy">    -69.56834100 </i>
    <i name="e_wo_entrp">    -69.56896317 </i>
    <i name="e_0_energy">    -69.56854839 </i>
   </energy>
  </scstep>
  <scstep>
   <time name="total">  258.26  258.16</time>
   <energy>
    <i name="e_fr_energy">    -69.58069818 </i>
    <i name="e_wo_entrp">    -69.58126659 </i>
    <i name="e_0_energy">    -69.58088765 </i>
   </energy>
  </scstep>
  <scstep>
   <time name="total">  263.40  263.34</time>
   <energy>
    <i name="e_fr_energy">    -69.59036017 </i>
    <i name="e_wo_entrp">    -69.59091686 </i>
    <i name="e_0_energy">    -69.59054573 </i>
   </energy>
  </scstep>
  <scstep>
   <time name="total">  271.13  270.94</time>
   <energy>
    <i name="e_fr_energy">    -69.59281952 </i>
    <i name="e_wo_entrp">    -69.59339519 </i>
    <i name="e_0_energy">    -69.59301141 </i>
   </energy>
  </scstep>
  <scstep>
   <time name="total">  275.24  275.01</time>
   <energy>
    <i name="e_fr_energy">    -69.59432654 </i>
    <i name="e_wo_entrp">    -69.59491562 </i>
    <i name="e_0_energy">    -69.59452290 </i>
   </energy>
  </scstep>
  <scstep>
   <time name="total">  276.34  276.12</time>
   <energy>
    <i name="e_fr_energy">    -69.59489835 </i>
    <i name="e_wo_entrp">    -69.59548811 </i>
    <i name="e_0_energy">    -69.59509494 </i>
   </energy>
  </scstep>
  <scstep>
   <time name="total">  272.40  272.19</time>
   <energy>
    <i name="e_fr_energy">    -69.59507183 </i>
    <i name="e_wo_entrp">    -69.59565839 </i>
    <i name="e_0_energy">    -69.59526735 </i>
   </energy>
  </scstep>
  <scstep>
   <time name="total">  281.21  280.97</time>
   <energy>
    <i name="e_fr_energy">    -69.59518900 </i>
    <i name="e_wo_entrp">    -69.59577247 </i>
    <i name="e_0_energy">    -69.59538349 </i>
   </energy>
  </scstep>
  <scstep>
   <time name="total">  269.87  269.68</time>
   <energy>
    <i name="e_fr_energy">    -69.59521799 </i>
    <i name="e_wo_entrp">    -69.59580006 </i>
    <i name="e_0_energy">    -69.59541201 </i>
   </energy>
  </scstep>
  <scstep>
   <time name="total">  275.56  275.36</time>
   <energy>
    <i name="e_fr_energy">    -69.59523781 </i>
    <i name="e_wo_entrp">    -69.59582032 </i>
    <i name="e_0_energy">    -69.59543198 </i>
   </energy>
  </scstep>
  <scstep>
   <time name="total">  272.10  271.90</time>
   <energy>
    <i name="alphaZ">    339.31929130 </i>
    <i name="ewald">  -9063.97964668 </i>
    <i name="hartreedc">  -8150.03434679 </i>
    <i name="XCdc">    372.06605283 </i>
    <i name="pawpsdc">  15921.73642193 </i>
    <i name="pawaedc"> -16406.93956446 </i>
    <i name="eentropy">      0.00058313 </i>
    <i name="bandstr">  -1742.80764615 </i>
    <i name="atom">  18320.98302006 </i>
    <i name="e_fr_energy">    -69.59524521 </i>
    <i name="e_wo_entrp">    -69.59582834 </i>
    <i name="e_0_energy">    -69.59543959 </i>
   </energy>
  </scstep>
  <structure>
   <crystal>
    <varray name="basis" >
     <v>       3.22479600      -5.64383000       0.03157200 </v>
     <v>       3.22479600       5.64383000       0.03157200 </v>
     <v>      -2.10194600       0.00000000       6.07553700 </v>
    </varray>
    <i name="volume">    221.90106089 </i>
    <varray name="rec_basis" >
     <v>       0.15452516      -0.08859232       0.05346088 </v>
     <v>       0.15452516       0.08859232       0.05346088 </v>
     <v>      -0.00160600       0.00000000       0.16403888 </v>
    </varray>
   </crystal>
   <varray name="positions" >
    <v>       0.61844300       0.12117100       0.11953300 </v>
    <v>       0.12117100       0.61844300       0.61953300 </v>
    <v>       0.96295700       0.79032200       0.11881300 </v>
    <v>       0.79032200       0.96295700       0.61881300 </v>
    <v>       0.43973200       0.26728100       0.59904700 </v>
    <v>       0.26728100       0.43973200       0.09904700 </v>
    <v>       0.07949800       0.91167500       0.49736300 </v>
    <v>       0.57140300       0.41236400       0.98173948 </v>
    <v>       0.73711100       0.25006200       0.49504900 </v>
    <v>       0.41236400       0.57140300       0.48018400 </v>
    <v>       0.91167500       0.07949800       0.99736300 </v>
    <v>       0.25006200       0.73711100       0.99504900 </v>
   </varray>
  </structure>
  <varray name="forces" >
   <v>      -0.00610624      -0.00537502       0.00311564 </v>
   <v>      -0.00299858       0.00140490      -0.00102843 </v>
   <v>      -0.00054567       0.00070660       0.00197574 </v>
   <v>       0.00312544      -0.00012677       0.00020885 </v>
   <v>       0.00152238       0.00766389       0.04899242 </v>
   <v>      -0.00957658       0.00627626       0.01267482 </v>
   <v>       0.00651489       0.00126697       0.00497918 </v>
   <v>       0.02527359      -0.02122141      -0.09351351 </v>
   <v>      -0.00459027       0.00114870       0.01042424 </v>
   <v>      -0.00423872       0.00967911       0.01269196 </v>
   <v>      -0.00252753       0.00038359      -0.00090418 </v>
   <v>      -0.00585270      -0.00180683       0.00038327 </v>
  </varray>
  <energy>
   <i name="e_fr_energy">    -69.59524521 </i>
   <i name="e_wo_entrp">    -69.59543959 </i>
   <i name="e_0_energy">      0.00058313 </i>
  </energy>
  <time name="totalsc"> 6239.88 6239.33</time>
  <eigenvalues>
   <array>
    <dimension dim="1">band</dimension>
    <dimension dim="2">kpoint</dimension>
    <dimension dim="3">spin</dimension>
    <field>eigene</field>
    <field>occ</field>
    <set>
     <set comment="spin 1">
      <set comment="kpoint 1">
       <r>  -68.6509    1.0000 </r>
       <r>  -68.6454    1.0000 </r>
       <r>  -68.6336    1.0000 </r>
       <r>  -68.6339    1.0000 </r>
       <r>  -68.6186    1.0000 </r>
       <r>  -68.6136    1.0000 </r>
       <r>  -68.6015    1.0000 </r>
       <r>  -68.5962    1.0000 </r>
       <r>  -68.5785    1.0000 </r>
       <r>  -68.5779    1.0000 </r>
       <r>  -68.5611    1.0000 </r>
       <r>  -68.5613    1.0000 </r>
       <r>  -12.7180    1.0000 </r>
       <r>  -11.1340    1.0000 </r>
       <r>  -10.9097    1.0000 </r>
       <r>  -10.6030    1.0000 </r>
       <r>  -10.2517    1.0000 </r>
       <r>  -10.2358    1.0000 </r>
       <r>   -5.9808    1.0000 </r>
       <r>   -4.9864    1.0000 </r>
       <r>   -2.7613    1.0000 </r>
       <r>   -2.2082    1.0000 </r>
       <r>   -2.0705    1.0000 </r>
       <r>   -1.9216    1.0000 </r>
       <r>   -1.5788    1.0000 </r>
       <r>   -0.9848    1.0000 </r>
       <r>   -0.9538    1.0000 </r>
       <r>   -0.6751    1.0000 </r>
       <r>   -0.3997    1.0000 </r>
       <r>   -0.2805    1.0000 </r>
       <r>   -0.2636    1.0000 </r>
       <r>   -0.2376    1.0000 </r>
       <r>   -0.1883    1.0000 </r>
       <r>   -0.1575    1.0000 </r>
       <r>   -0.0409    1.0000 </r>
       <r>    0.0295    1.0000 </r>
       <r>    1.3481    1.0000 </r>
       <r>    1.3611    1.0000 </r>
       <r>    1.4123    1.0000 </r>
       <r>    1.4565    1.0000 </r>
       <r>    1.4704    1.0000 </r>
       <r>    1.4724    1.0000 </r>
       <r>    1.5187    1.0000 </r>
       <r>    1.5316    1.0000 </r>
       <r>    1.5726    1.0000 </r>
       <r>    1.7095    1.0000 </r>
       <r>    1.8909    1.0000 </r>
       <r>    1.9261    1.0000 </r>
       <r>    2.0591    1.0000 </r>
       <r>    2.6512    1.0000 </r>
       <r>    2.7297    1.0000 </r>
       <r>    3.0907    1.0000 </r>
       <r>    3.2203    1.0000 </r>
       <r>    4.0076    1.0055 </r>
       <r>    4.0375    1.0139 </r>
       <r>    4.1712    0.8566 </r>
       <r>    5.5334   -0.0000 </r>
       <r>    6.3545   -0.0000 </r>
       <r>    7.6282    0.0000 </r>
       <r>    7.9779    0.0000 </r>
       <r>    8.6253    0.0000 </r>
       <r>    8.8008    0.0000 </r>
       <r>    9.5746    0.0000 </r>
       <r>    9.7389    0.0000 </r>
       <r>    9.8087    0.0000 </r>
       <r>   10.4169    0.0000 </r>
       <r>   10.5808    0.0000 </r>
       <r>   10.6961    0.0000 </r>
       <r>   10.7131    0.0000 </r>
       <r>   11.2803    0.0000 </r>
       <r>   11.7142    0.0000 </r>
       <r>   12.3907    0.0000 </r>
       <r>   12.4475    0.0000 </r>
       <r>   12.7295    0.0000 </r>
       <r>   13.3248    0.0000 </r>
       <r>   13.3883    0.0000 </r>
       <r>   13.8249    0.0000 </r>
       <r>   13.8898    0.0000 </r>
       <r>   14.1383    0.0000 </r>
       <r>   14.1802    0.0000 </r>
      </set>
      <set comment="kpoint 2">
       <r>  -68.6509    1.0000 </r>
       <r>  -68.6454    1.0000 </r>
       <r>  -68.6335    1.0000 </r>
       <r>  -68.6339    1.0000 </r>
       <r>  -68.6185    1.0000 </r>
       <r>  -68.6135    1.0000 </r>
       <r>  -68.6015    1.0000 </r>
       <r>  -68.5962    1.0000 </r>
       <r>  -68.5785    1.0000 </r>
       <r>  -68.5778    1.0000 </r>
       <r>  -68.5611    1.0000 </r>
       <r>  -68.5612    1.0000 </r>
       <r>  -12.5928    1.0000 </r>
       <r>  -11.1272    1.0000 </r>
       <r>  -10.9804    1.0000 </r>
       <r>  -10.6769    1.0000 </r>
       <r>  -10.3667    1.0000 </r>
       <r>  -10.2781    1.0000 </r>
       <r>   -5.9283    1.0000 </r>
       <r>   -4.7763    1.0000 </r>
       <r>   -2.6460    1.0000 </r>
       <r>   -2.2514    1.0000 </r>
       <r>   -2.0857    1.0000 </r>
       <r>   -1.6902    1.0000 </r>
       <r>   -1.3462    1.0000 </r>
       <r>   -0.9967    1.0000 </r>
       <r>   -0.7702    1.0000 </r>
       <r>   -0.6214    1.0000 </r>
       <r>   -0.5537    1.0000 </r>
       <r>   -0.4407    1.0000 </r>
       <r>   -0.3597    1.0000 </r>
       <r>   -0.2444    1.0000 </r>
       <r>   -0.1942    1.0000 </r>
       <r>   -0.1712    1.0000 </r>
       <r>   -0.0470    1.0000 </r>
       <r>    0.0384    1.0000 </r>
       <r>    1.2775    1.0000 </r>
       <r>    1.3349    1.0000 </r>
       <r>    1.3534    1.0000 </r>
       <r>    1.3900    1.0000 </r>
       <r>    1.4252    1.0000 </r>
       <r>    1.4706    1.0000 </r>
       <r>    1.4974    1.0000 </r>
       <r>    1.5298    1.0000 </r>
       <r>    1.7249    1.0000 </r>
       <r>    1.8573    1.0000 </r>
       <r>    2.0568    1.0000 </r>
       <r>    2.0948    1.0000 </r>
       <r>    2.2302    1.0000 </r>
       <r>    2.4138    1.0000 </r>
       <r>    2.5545    1.0000 </r>
       <r>    2.8256    1.0000 </r>
       <r>    2.9487    1.0000 </r>
       <r>    3.2418    1.0000 </r>
       <r>    3.6616    1.0000 </r>
       <r>    4.0403    1.0150 </r>
       <r>    6.1617   -0.0000 </r>
       <r>    6.9072   -0.0000 </r>
       <r>    8.1307    0.0000 </r>
       <r>    8.2655    0.0000 </r>
       <r>    8.5985    0.0000 </r>
       <r>    9.0149    0.0000 </r>
       <r>    9.2430    0.0000 </r>
       <r>    9.5297    0.0000 </r>
       <r>    9.8686    0.0000 </r>
       <r>   10.3758    0.0000 </r>
       <r>   10.6328    0.0000 </r>
       <r>   10.8174    0.0000 </r>
       <r>   10.9391    0.0000 </r>
       <r>   11.1878    0.0000 </r>
       <r>   11.6562    0.0000 </r>
       <r>   11.7698    0.0000 </r>
       <r>   12.1166    0.0000 </r>
       <r>   12.4417    0.0000 </r>
       <r>   12.6181    0.0000 </r>
       <r>   13.0107    0.0000 </r>
       <r>   13.5086    0.0000 </r>
       <r>   13.8759    0.0000 </r>
       <r>   14.2098    0.0000 </r>
       <r>   14.7152    0.0000 </r>
      </set>
      <set comment="kpoint 3">
       <r>  -68.6507    1.0000 </r>
       <r>  -68.6453    1.0000 </r>
       <r>  -68.6337    1.0000 </r>
       <r>  -68.6335    1.0000 </r>
       <r>  -68.6185    1.0000 </r>
       <r>  -68.6135    1.0000 </r>
       <r>  -68.6015    1.0000 </r>
       <r>  -68.5961    1.0000 </r>
       <r>  -68.5784    1.0000 </r>
       <r>  -68.5779    1.0000 </r>
       <r>  -68.5609    1.0000 </r>
       <r>  -68.5611    1.0000 </r>
       <r>  -12.4330    1.0000 </r>
       <r>  -11.2450    1.0000 </r>
       <r>  -10.9590    1.0000 </r>
       <r>  -10.7658    1.0000 </r>
       <r>  -10.4270    1.0000 </r>
       <r>  -10.3586    1.0000 </r>
       <r>   -5.8653    1.0000 </r>
       <r>   -4.5518    1.0000 </r>
       <r>   -2.4953    1.0000 </r>
       <r>   -2.2411    1.0000 </r>
       <r>   -1.9458    1.0000 </r>
       <r>   -1.4616    1.0000 </r>
       <r>   -1.2246    1.0000 </r>
       <r>   -1.1075    1.0000 </r>
       <r>   -0.9008    1.0000 </r>
       <r>   -0.8630    1.0000 </r>
       <r>   -0.6048    1.0000 </r>
       <r>   -0.5369    1.0000 </r>
       <r>   -0.2746    1.0000 </r>
       <r>   -0.2055    1.0000 </r>
       <r>   -0.2032    1.0000 </r>
       <r>   -0.1466    1.0000 </r>
       <r>   -0.0308    1.0000 </r>
       <r>    0.0805    1.0000 </r>
       <r>    1.2527    1.0000 </r>
       <r>    1.3267    1.0000 </r>
       <r>    1.3453    1.0000 </r>
       <r>    1.3948    1.0000 </r>
       <r>    1.4707    1.0000 </r>
       <r>    1.4781    1.0000 </r>
       <r>    1.4982    1.0000 </r>
       <r>    1.5526    1.0000 </r>
       <r>    1.7543    1.0000 </r>
       <r>    1.7924    1.0000 </r>
       <r>    1.9684    1.0000 </r>
       <r>    2.1460    1.0000 </r>
       <r>    2.3209    1.0000 </r>
       <r>    2.3629    1.0000 </r>
       <r>    2.5506    1.0000 </r>
       <r>    2.6699    1.0000 </r>
       <r>    2.9346    1.0000 </r>
       <r>    3.0801    1.0000 </r>
       <r>    3.2490    1.0000 </r>
       <r>    3.8622    1.0000 </r>
       <r>    6.3749   -0.0000 </r>
       <r>    7.1028    0.0000 </r>
       <r>    7.9751    0.0000 </r>
       <r>    8.2028    0.0000 </r>
       <r>    8.5147    0.0000 </r>
       <r>    8.8140    0.0000 </r>
       <r>    9.3305    0.0000 </r>
       <r>    9.8849    0.0000 </r>
       <r>   10.0145    0.0000 </r>
       <r>   10.5227    0.0000 </r>
       <r>   10.6912    0.0000 </r>
       <r>   10.7930    0.0000 </r>
       <r>   11.1432    0.0000 </r>
       <r>   11.4110    0.0000 </r>
       <r>   11.6153    0.0000 </r>
       <r>   11.7750    0.0000 </r>
       <r>   11.9423    0.0000 </r>
       <r>   12.5045    0.0000 </r>
       <r>   12.7856    0.0000 </r>
       <r>   13.0050    0.0000 </r>
       <r>   13.3962    0.0000 </r>
       <r>   13.5449    0.0000 </r>
       <r>   13.9338    0.0000 </r>
       <r>   14.2695    0.0000 </r>
      </set>
      <set comment="kpoint 4">
       <r>  -68.6508    1.0000 </r>
       <r>  -68.6454    1.0000 </r>
       <r>  -68.6336    1.0000 </r>
       <r>  -68.6339    1.0000 </r>
       <r>  -68.6185    1.0000 </r>
       <r>  -68.6135    1.0000 </r>
       <r>  -68.6016    1.0000 </r>
       <r>  -68.5961    1.0000 </r>
       <r>  -68.5785    1.0000 </r>
       <r>  -68.5778    1.0000 </r>
       <r>  -68.5611    1.0000 </r>
       <r>  -68.5612    1.0000 </r>
       <r>  -12.5928    1.0000 </r>
       <r>  -11.1283    1.0000 </r>
       <r>  -10.9802    1.0000 </r>
       <r>  -10.6751    1.0000 </r>
       <r>  -10.3671    1.0000 </r>
       <r>  -10.2785    1.0000 </r>
       <r>   -5.9284    1.0000 </r>
       <r>   -4.7762    1.0000 </r>
       <r>   -2.6467    1.0000 </r>
       <r>   -2.2530    1.0000 </r>
       <r>   -2.0876    1.0000 </r>
       <r>   -1.6857    1.0000 </r>
       <r>   -1.3465    1.0000 </r>
       <r>   -0.9982    1.0000 </r>
       <r>   -0.7644    1.0000 </r>
       <r>   -0.6215    1.0000 </r>
       <r>   -0.5581    1.0000 </r>
       <r>   -0.4396    1.0000 </r>
       <r>   -0.3605    1.0000 </r>
       <r>   -0.2449    1.0000 </r>
       <r>   -0.1954    1.0000 </r>
       <r>   -0.1691    1.0000 </r>
       <r>   -0.0480    1.0000 </r>
       <r>    0.0391    1.0000 </r>
       <r>    1.2780    1.0000 </r>
       <r>    1.3350    1.0000 </r>
       <r>    1.3534    1.0000 </r>
       <r>    1.3909    1.0000 </r>
       <r>    1.4253    1.0000 </r>
       <r>    1.4706    1.0000 </r>
       <r>    1.4966    1.0000 </r>
       <r>    1.5296    1.0000 </r>
       <r>    1.7244    1.0000 </r>
       <r>    1.8577    1.0000 </r>
       <r>    2.0567    1.0000 </r>
       <r>    2.0934    1.0000 </r>
       <r>    2.2299    1.0000 </r>
       <r>    2.4136    1.0000 </r>
       <r>    2.5554    1.0000 </r>
       <r>    2.8267    1.0000 </r>
       <r>    2.9473    1.0000 </r>
       <r>    3.2418    1.0000 </r>
       <r>    3.6628    1.0000 </r>
       <r>    4.0383    1.0142 </r>
       <r>    6.1653   -0.0000 </r>
       <r>    6.9040   -0.0000 </r>
       <r>    8.1401    0.0000 </r>
       <r>    8.2630    0.0000 </r>
       <r>    8.5915    0.0000 </r>
       <r>    9.0178    0.0000 </r>
       <r>    9.2489    0.0000 </r>
       <r>    9.5327    0.0000 </r>
       <r>    9.8625    0.0000 </r>
       <r>   10.3739    0.0000 </r>
       <r>   10.6342    0.0000 </r>
       <r>   10.8125    0.0000 </r>
       <r>   10.9398    0.0000 </r>
       <r>   11.1885    0.0000 </r>
       <r>   11.6557    0.0000 </r>
       <r>   11.7704    0.0000 </r>
       <r>   12.1160    0.0000 </r>
       <r>   12.4429    0.0000 </r>
       <r>   12.6157    0.0000 </r>
       <r>   13.0045    0.0000 </r>
       <r>   13.5197    0.0000 </r>
       <r>   13.8994    0.0000 </r>
       <r>   14.2715    0.0000 </r>
       <r>   14.8444    0.0000 </r>
      </set>
      <set comment="kpoint 5">
       <r>  -68.6509    1.0000 </r>
       <r>  -68.6454    1.0000 </r>
       <r>  -68.6337    1.0000 </r>
       <r>  -68.6335    1.0000 </r>
       <r>  -68.6187    1.0000 </r>
       <r>  -68.6137    1.0000 </r>
       <r>  -68.6014    1.0000 </r>
       <r>  -68.5961    1.0000 </r>
       <r>  -68.5786    1.0000 </r>
       <r>  -68.5780    1.0000 </r>
       <r>  -68.5611    1.0000 </r>
       <r>  -68.5612    1.0000 </r>
       <r>  -12.4368    1.0000 </r>
       <r>  -11.1877    1.0000 </r>
       <r>  -10.9444    1.0000 </r>
       <r>  -10.8781    1.0000 </r>
       <r>  -10.3907    1.0000 </r>
       <r>  -10.3518    1.0000 </r>
       <r>   -5.8703    1.0000 </r>
       <r>   -4.5251    1.0000 </r>
       <r>   -2.4195    1.0000 </r>
       <r>   -2.2441    1.0000 </r>
       <r>   -1.7943    1.0000 </r>
       <r>   -1.6816    1.0000 </r>
       <r>   -1.3524    1.0000 </r>
       <r>   -1.2968    1.0000 </r>
       <r>   -1.0818    1.0000 </r>
       <r>   -0.6839    1.0000 </r>
       <r>   -0.5266    1.0000 </r>
       <r>   -0.2970    1.0000 </r>
       <r>   -0.2848    1.0000 </r>
       <r>   -0.2256    1.0000 </r>
       <r>   -0.1882    1.0000 </r>
       <r>   -0.1294    1.0000 </r>
       <r>   -0.0932    1.0000 </r>
       <r>    0.0806    1.0000 </r>
       <r>    1.2919    1.0000 </r>
       <r>    1.3102    1.0000 </r>
       <r>    1.4144    1.0000 </r>
       <r>    1.4245    1.0000 </r>
       <r>    1.4613    1.0000 </r>
       <r>    1.4815    1.0000 </r>
       <r>    1.4939    1.0000 </r>
       <r>    1.5709    1.0000 </r>
       <r>    1.6718    1.0000 </r>
       <r>    1.8800    1.0000 </r>
       <r>    1.9400    1.0000 </r>
       <r>    2.1347    1.0000 </r>
       <r>    2.2787    1.0000 </r>
       <r>    2.3202    1.0000 </r>
       <r>    2.5594    1.0000 </r>
       <r>    2.6487    1.0000 </r>
       <r>    2.9036    1.0000 </r>
       <r>    2.9439    1.0000 </r>
       <r>    3.6978    1.0000 </r>
       <r>    3.8310    1.0000 </r>
       <r>    6.1655   -0.0000 </r>
       <r>    6.9919    0.0000 </r>
       <r>    7.9971    0.0000 </r>
       <r>    8.3311    0.0000 </r>
       <r>    8.4312    0.0000 </r>
       <r>    8.5732    0.0000 </r>
       <r>    9.1334    0.0000 </r>
       <r>    9.2463    0.0000 </r>
       <r>   10.3681    0.0000 </r>
       <r>   10.5002    0.0000 </r>
       <r>   10.9230    0.0000 </r>
       <r>   11.1858    0.0000 </r>
       <r>   11.3358    0.0000 </r>
       <r>   11.5589    0.0000 </r>
       <r>   11.8133    0.0000 </r>
       <r>   11.9652    0.0000 </r>
       <r>   12.3131    0.0000 </r>
       <r>   12.5031    0.0000 </r>
       <r>   12.7085    0.0000 </r>
       <r>   12.9149    0.0000 </r>
       <r>   13.3401    0.0000 </r>
       <r>   13.4469    0.0000 </r>
       <r>   14.2631    0.0000 </r>
       <r>   14.3701    0.0000 </r>
      </set>
      <set comment="kpoint 6">
       <r>  -68.6506    1.0000 </r>
       <r>  -68.6452    1.0000 </r>
       <r>  -68.6338    1.0000 </r>
       <r>  -68.6336    1.0000 </r>
       <r>  -68.6185    1.0000 </r>
       <r>  -68.6134    1.0000 </r>
       <r>  -68.6015    1.0000 </r>
       <r>  -68.5961    1.0000 </r>
       <r>  -68.5781    1.0000 </r>
       <r>  -68.5780    1.0000 </r>
       <r>  -68.5610    1.0000 </r>
       <r>  -68.5611    1.0000 </r>
       <r>  -12.4372    1.0000 </r>
       <r>  -11.3508    1.0000 </r>
       <r>  -10.9396    1.0000 </r>
       <r>  -10.7385    1.0000 </r>
       <r>  -10.3898    1.0000 </r>
       <r>  -10.2720    1.0000 </r>
       <r>   -5.9415    1.0000 </r>
       <r>   -4.6453    1.0000 </r>
       <r>   -2.3907    1.0000 </r>
       <r>   -2.2256    1.0000 </r>
       <r>   -2.0576    1.0000 </r>
       <r>   -1.6354    1.0000 </r>
       <r>   -1.3624    1.0000 </r>
       <r>   -1.2887    1.0000 </r>
       <r>   -1.0235    1.0000 </r>
       <r>   -0.5147    1.0000 </r>
       <r>   -0.4840    1.0000 </r>
       <r>   -0.3295    1.0000 </r>
       <r>   -0.2823    1.0000 </r>
       <r>   -0.2183    1.0000 </r>
       <r>   -0.1513    1.0000 </r>
       <r>   -0.1366    1.0000 </r>
       <r>   -0.0118    1.0000 </r>
       <r>    0.1136    1.0000 </r>
       <r>    1.2448    1.0000 </r>
       <r>    1.3133    1.0000 </r>
       <r>    1.3817    1.0000 </r>
       <r>    1.4360    1.0000 </r>
       <r>    1.4602    1.0000 </r>
       <r>    1.4899    1.0000 </r>
       <r>    1.4959    1.0000 </r>
       <r>    1.5496    1.0000 </r>
       <r>    1.7474    1.0000 </r>
       <r>    1.8281    1.0000 </r>
       <r>    1.9214    1.0000 </r>
       <r>    2.1331    1.0000 </r>
       <r>    2.2227    1.0000 </r>
       <r>    2.3850    1.0000 </r>
       <r>    2.5619    1.0000 </r>
       <r>    2.7893    1.0000 </r>
       <r>    2.9782    1.0000 </r>
       <r>    3.3117    1.0000 </r>
       <r>    3.6018    1.0000 </r>
       <r>    3.7495    1.0000 </r>
       <r>    6.0776   -0.0000 </r>
       <r>    6.9412   -0.0000 </r>
       <r>    7.6083    0.0000 </r>
       <r>    8.0629    0.0000 </r>
       <r>    8.4131    0.0000 </r>
       <r>    8.6197    0.0000 </r>
       <r>    8.9785    0.0000 </r>
       <r>    9.1499    0.0000 </r>
       <r>   10.0916    0.0000 </r>
       <r>   10.3349    0.0000 </r>
       <r>   10.7373    0.0000 </r>
       <r>   11.1102    0.0000 </r>
       <r>   11.4652    0.0000 </r>
       <r>   11.5958    0.0000 </r>
       <r>   11.8000    0.0000 </r>
       <r>   12.0866    0.0000 </r>
       <r>   12.4790    0.0000 </r>
       <r>   12.9161    0.0000 </r>
       <r>   13.0380    0.0000 </r>
       <r>   13.8307    0.0000 </r>
       <r>   14.1937    0.0000 </r>
       <r>   14.6563    0.0000 </r>
       <r>   15.4235    0.0000 </r>
       <r>   15.6412    0.0000 </r>
      </set>
      <set comment="kpoint 7">
       <r>  -68.6508    1.0000 </r>
       <r>  -68.6454    1.0000 </r>
       <r>  -68.6336    1.0000 </r>
       <r>  -68.6337    1.0000 </r>
       <r>  -68.6185    1.0000 </r>
       <r>  -68.6135    1.0000 </r>
       <r>  -68.6015    1.0000 </r>
       <r>  -68.5961    1.0000 </r>
       <r>  -68.5784    1.0000 </r>
       <r>  -68.5778    1.0000 </r>
       <r>  -68.5611    1.0000 </r>
       <r>  -68.5612    1.0000 </r>
       <r>  -12.5957    1.0000 </r>
       <r>  -11.2495    1.0000 </r>
       <r>  -10.9918    1.0000 </r>
       <r>  -10.5696    1.0000 </r>
       <r>  -10.3677    1.0000 </r>
       <r>  -10.1805    1.0000 </r>
       <r>   -6.0047    1.0000 </r>
       <r>   -4.8972    1.0000 </r>
       <r>   -2.6458    1.0000 </r>
       <r>   -2.3163    1.0000 </r>
       <r>   -1.9710    1.0000 </r>
       <r>   -1.6463    1.0000 </r>
       <r>   -1.4931    1.0000 </r>
       <r>   -1.1850    1.0000 </r>
       <r>   -0.7898    1.0000 </r>
       <r>   -0.5851    1.0000 </r>
       <r>   -0.4497    1.0000 </r>
       <r>   -0.3370    1.0000 </r>
       <r>   -0.2935    1.0000 </r>
       <r>   -0.2337    1.0000 </r>
       <r>   -0.1767    1.0000 </r>
       <r>   -0.1304    1.0000 </r>
       <r>   -0.0108    1.0000 </r>
       <r>    0.0715    1.0000 </r>
       <r>    1.2578    1.0000 </r>
       <r>    1.3195    1.0000 </r>
       <r>    1.3627    1.0000 </r>
       <r>    1.4218    1.0000 </r>
       <r>    1.4295    1.0000 </r>
       <r>    1.4744    1.0000 </r>
       <r>    1.5026    1.0000 </r>
       <r>    1.5408    1.0000 </r>
       <r>    1.7237    1.0000 </r>
       <r>    1.8124    1.0000 </r>
       <r>    1.9943    1.0000 </r>
       <r>    2.0723    1.0000 </r>
       <r>    2.4166    1.0000 </r>
       <r>    2.4619    1.0000 </r>
       <r>    2.5282    1.0000 </r>
       <r>    2.8727    1.0000 </r>
       <r>    3.1423    1.0000 </r>
       <r>    3.2302    1.0000 </r>
       <r>    3.7844    1.0000 </r>
       <r>    4.0689    1.0277 </r>
       <r>    5.9703   -0.0000 </r>
       <r>    6.6866   -0.0000 </r>
       <r>    7.5352    0.0000 </r>
       <r>    8.2186    0.0000 </r>
       <r>    8.6192    0.0000 </r>
       <r>    8.9245    0.0000 </r>
       <r>    9.3067    0.0000 </r>
       <r>    9.4306    0.0000 </r>
       <r>    9.8033    0.0000 </r>
       <r>   10.2706    0.0000 </r>
       <r>   10.5443    0.0000 </r>
       <r>   10.8311    0.0000 </r>
       <r>   10.9722    0.0000 </r>
       <r>   11.3818    0.0000 </r>
       <r>   11.4700    0.0000 </r>
       <r>   11.7333    0.0000 </r>
       <r>   12.0998    0.0000 </r>
       <r>   12.6588    0.0000 </r>
       <r>   12.9398    0.0000 </r>
       <r>   13.1016    0.0000 </r>
       <r>   13.3544    0.0000 </r>
       <r>   13.5221    0.0000 </r>
       <r>   14.4737    0.0000 </r>
       <r>   14.7559    0.0000 </r>
      </set>
      <set comment="kpoint 8">
       <r>  -68.6507    1.0000 </r>
       <r>  -68.6452    1.0000 </r>
       <r>  -68.6338    1.0000 </r>
       <r>  -68.6335    1.0000 </r>
       <r>  -68.6185    1.0000 </r>
       <r>  -68.6135    1.0000 </r>
       <r>  -68.6015    1.0000 </r>
       <r>  -68.5961    1.0000 </r>
       <r>  -68.5784    1.0000 </r>
       <r>  -68.5778    1.0000 </r>
       <r>  -68.5610    1.0000 </r>
       <r>  -68.5611    1.0000 </r>
       <r>  -12.4328    1.0000 </r>
       <r>  -11.2482    1.0000 </r>
       <r>  -10.9583    1.0000 </r>
       <r>  -10.7608    1.0000 </r>
       <r>  -10.4289    1.0000 </r>
       <r>  -10.3595    1.0000 </r>
       <r>   -5.8653    1.0000 </r>
       <r>   -4.5516    1.0000 </r>
       <r>   -2.4943    1.0000 </r>
       <r>   -2.2458    1.0000 </r>
       <r>   -1.9477    1.0000 </r>
       <r>   -1.4584    1.0000 </r>
       <r>   -1.2248    1.0000 </r>
       <r>   -1.1018    1.0000 </r>
       <r>   -0.9061    1.0000 </r>
       <r>   -0.8607    1.0000 </r>
       <r>   -0.6017    1.0000 </r>
       <r>   -0.5386    1.0000 </r>
       <r>   -0.2747    1.0000 </r>
       <r>   -0.2074    1.0000 </r>
       <r>   -0.2027    1.0000 </r>
       <r>   -0.1462    1.0000 </r>
       <r>   -0.0320    1.0000 </r>
       <r>    0.0814    1.0000 </r>
       <r>    1.2529    1.0000 </r>
       <r>    1.3261    1.0000 </r>
       <r>    1.3457    1.0000 </r>
       <r>    1.3976    1.0000 </r>
       <r>    1.4695    1.0000 </r>
       <r>    1.4777    1.0000 </r>
       <r>    1.4992    1.0000 </r>
       <r>    1.5526    1.0000 </r>
       <r>    1.7521    1.0000 </r>
       <r>    1.7916    1.0000 </r>
       <r>    1.9683    1.0000 </r>
       <r>    2.1455    1.0000 </r>
       <r>    2.3198    1.0000 </r>
       <r>    2.3621    1.0000 </r>
       <r>    2.5542    1.0000 </r>
       <r>    2.6692    1.0000 </r>
       <r>    2.9363    1.0000 </r>
       <r>    3.0794    1.0000 </r>
       <r>    3.2482    1.0000 </r>
       <r>    3.8598    1.0000 </r>
       <r>    6.3802   -0.0000 </r>
       <r>    7.0990    0.0000 </r>
       <r>    7.9798    0.0000 </r>
       <r>    8.2090    0.0000 </r>
       <r>    8.5148    0.0000 </r>
       <r>    8.8134    0.0000 </r>
       <r>    9.3260    0.0000 </r>
       <r>    9.8914    0.0000 </r>
       <r>   10.0055    0.0000 </r>
       <r>   10.5184    0.0000 </r>
       <r>   10.6963    0.0000 </r>
       <r>   10.7920    0.0000 </r>
       <r>   11.1414    0.0000 </r>
       <r>   11.4047    0.0000 </r>
       <r>   11.6155    0.0000 </r>
       <r>   11.7775    0.0000 </r>
       <r>   11.9473    0.0000 </r>
       <r>   12.5040    0.0000 </r>
       <r>   12.8313    0.0000 </r>
       <r>   13.0289    0.0000 </r>
       <r>   13.5512    0.0000 </r>
       <r>   13.6824    0.0000 </r>
       <r>   14.5513    0.0000 </r>
       <r>   15.2472    0.0000 </r>
      </set>
      <set comment="kpoint 9">
       <r>  -68.6506    1.0000 </r>
       <r>  -68.6452    1.0000 </r>
       <r>  -68.6337    1.0000 </r>
       <r>  -68.6336    1.0000 </r>
       <r>  -68.6184    1.0000 </r>
       <r>  -68.6135    1.0000 </r>
       <r>  -68.6015    1.0000 </r>
       <r>  -68.5961    1.0000 </r>
       <r>  -68.5782    1.0000 </r>
       <r>  -68.5780    1.0000 </r>
       <r>  -68.5610    1.0000 </r>
       <r>  -68.5611    1.0000 </r>
       <r>  -12.4371    1.0000 </r>
       <r>  -11.3516    1.0000 </r>
       <r>  -10.9394    1.0000 </r>
       <r>  -10.7374    1.0000 </r>
       <r>  -10.3905    1.0000 </r>
       <r>  -10.2719    1.0000 </r>
       <r>   -5.9416    1.0000 </r>
       <r>   -4.6451    1.0000 </r>
       <r>   -2.3914    1.0000 </r>
       <r>   -2.2293    1.0000 </r>
       <r>   -2.0553    1.0000 </r>
       <r>   -1.6382    1.0000 </r>
       <r>   -1.3632    1.0000 </r>
       <r>   -1.2812    1.0000 </r>
       <r>   -1.0230    1.0000 </r>
       <r>   -0.5132    1.0000 </r>
       <r>   -0.4867    1.0000 </r>
       <r>   -0.3309    1.0000 </r>
       <r>   -0.2839    1.0000 </r>
       <r>   -0.2146    1.0000 </r>
       <r>   -0.1525    1.0000 </r>
       <r>   -0.1372    1.0000 </r>
       <r>   -0.0117    1.0000 </r>
       <r>    0.1137    1.0000 </r>
       <r>    1.2447    1.0000 </r>
       <r>    1.3149    1.0000 </r>
       <r>    1.3802    1.0000 </r>
       <r>    1.4352    1.0000 </r>
       <r>    1.4601    1.0000 </r>
       <r>    1.4912    1.0000 </r>
       <r>    1.4962    1.0000 </r>
       <r>    1.5493    1.0000 </r>
       <r>    1.7474    1.0000 </r>
       <r>    1.8291    1.0000 </r>
       <r>    1.9200    1.0000 </r>
       <r>    2.1325    1.0000 </r>
       <r>    2.2211    1.0000 </r>
       <r>    2.3865    1.0000 </r>
       <r>    2.5612    1.0000 </r>
       <r>    2.7890    1.0000 </r>
       <r>    2.9785    1.0000 </r>
       <r>    3.3128    1.0000 </r>
       <r>    3.6028    1.0000 </r>
       <r>    3.7477    1.0000 </r>
       <r>    6.0804   -0.0000 </r>
       <r>    6.9388   -0.0000 </r>
       <r>    7.6105    0.0000 </r>
       <r>    8.0626    0.0000 </r>
       <r>    8.4141    0.0000 </r>
       <r>    8.6181    0.0000 </r>
       <r>    8.9791    0.0000 </r>
       <r>    9.1504    0.0000 </r>
       <r>   10.0942    0.0000 </r>
       <r>   10.3398    0.0000 </r>
       <r>   10.7318    0.0000 </r>
       <r>   11.1133    0.0000 </r>
       <r>   11.4582    0.0000 </r>
       <r>   11.5750    0.0000 </r>
       <r>   11.7875    0.0000 </r>
       <r>   12.0357    0.0000 </r>
       <r>   12.5191    0.0000 </r>
       <r>   12.6753    0.0000 </r>
       <r>   12.9128    0.0000 </r>
       <r>   13.2129    0.0000 </r>
       <r>   14.2323    0.0000 </r>
       <r>   14.7653    0.0000 </r>
       <r>   15.2461    0.0000 </r>
       <r>   15.9071    0.0000 </r>
      </set>
      <set comment="kpoint 10">
       <r>  -68.6505    1.0000 </r>
       <r>  -68.6450    1.0000 </r>
       <r>  -68.6335    1.0000 </r>
       <r>  -68.6334    1.0000 </r>
       <r>  -68.6183    1.0000 </r>
       <r>  -68.6134    1.0000 </r>
       <r>  -68.6013    1.0000 </r>
       <r>  -68.5959    1.0000 </r>
       <r>  -68.5783    1.0000 </r>
       <r>  -68.5777    1.0000 </r>
       <r>  -68.5607    1.0000 </r>
       <r>  -68.5609    1.0000 </r>
       <r>  -12.4290    1.0000 </r>
       <r>  -11.4988    1.0000 </r>
       <r>  -10.9145    1.0000 </r>
       <r>  -10.6177    1.0000 </r>
       <r>  -10.3994    1.0000 </r>
       <r>  -10.1994    1.0000 </r>
       <r>   -6.0197    1.0000 </r>
       <r>   -4.8127    1.0000 </r>
       <r>   -2.3099    1.0000 </r>
       <r>   -2.2678    1.0000 </r>
       <r>   -2.0871    1.0000 </r>
       <r>   -1.7064    1.0000 </r>
       <r>   -1.2488    1.0000 </r>
       <r>   -1.1094    1.0000 </r>
       <r>   -0.8433    1.0000 </r>
       <r>   -0.7847    1.0000 </r>
       <r>   -0.7279    1.0000 </r>
       <r>   -0.2421    1.0000 </r>
       <r>   -0.2012    1.0000 </r>
       <r>   -0.1827    1.0000 </r>
       <r>   -0.1554    1.0000 </r>
       <r>   -0.0391    1.0000 </r>
       <r>   -0.0028    1.0000 </r>
       <r>    0.1850    1.0000 </r>
       <r>    1.2650    1.0000 </r>
       <r>    1.3158    1.0000 </r>
       <r>    1.3728    1.0000 </r>
       <r>    1.4124    1.0000 </r>
       <r>    1.4322    1.0000 </r>
       <r>    1.4905    1.0000 </r>
       <r>    1.5064    1.0000 </r>
       <r>    1.5480    1.0000 </r>
       <r>    1.7875    1.0000 </r>
       <r>    1.8487    1.0000 </r>
       <r>    1.9937    1.0000 </r>
       <r>    2.1497    1.0000 </r>
       <r>    2.2523    1.0000 </r>
       <r>    2.3356    1.0000 </r>
       <r>    2.5609    1.0000 </r>
       <r>    2.7626    1.0000 </r>
       <r>    2.7749    1.0000 </r>
       <r>    3.3694    1.0000 </r>
       <r>    3.7653    1.0000 </r>
       <r>    4.0061    1.0052 </r>
       <r>    5.8439   -0.0000 </r>
       <r>    6.7640   -0.0000 </r>
       <r>    7.0828    0.0000 </r>
       <r>    8.4132    0.0000 </r>
       <r>    8.5531    0.0000 </r>
       <r>    8.7705    0.0000 </r>
       <r>    9.1470    0.0000 </r>
       <r>    9.2495    0.0000 </r>
       <r>    9.9566    0.0000 </r>
       <r>   10.2903    0.0000 </r>
       <r>   10.7237    0.0000 </r>
       <r>   10.8295    0.0000 </r>
       <r>   10.8780    0.0000 </r>
       <r>   11.2745    0.0000 </r>
       <r>   11.7583    0.0000 </r>
       <r>   11.9134    0.0000 </r>
       <r>   11.9695    0.0000 </r>
       <r>   12.3691    0.0000 </r>
       <r>   12.5438    0.0000 </r>
       <r>   13.4515    0.0000 </r>
       <r>   14.2868    0.0000 </r>
       <r>   14.6703    0.0000 </r>
       <r>   16.7447    0.0000 </r>
       <r>   16.7528    0.0000 </r>
      </set>
      <set comment="kpoint 11">
       <r>  -68.6509    1.0000 </r>
       <r>  -68.6454    1.0000 </r>
       <r>  -68.6336    1.0000 </r>
       <r>  -68.6338    1.0000 </r>
       <r>  -68.6186    1.0000 </r>
       <r>  -68.6136    1.0000 </r>
       <r>  -68.6016    1.0000 </r>
       <r>  -68.5962    1.0000 </r>
       <r>  -68.5785    1.0000 </r>
       <r>  -68.5779    1.0000 </r>
       <r>  -68.5612    1.0000 </r>
       <r>  -68.5613    1.0000 </r>
       <r>  -12.6149    1.0000 </r>
       <r>  -11.4248    1.0000 </r>
       <r>  -10.7760    1.0000 </r>
       <r>  -10.6081    1.0000 </r>
       <r>  -10.2505    1.0000 </r>
       <r>  -10.2378    1.0000 </r>
       <r>   -5.8278    1.0000 </r>
       <r>   -5.0492    1.0000 </r>
       <r>   -2.6002    1.0000 </r>
       <r>   -2.3699    1.0000 </r>
       <r>   -1.9609    1.0000 </r>
       <r>   -1.7768    1.0000 </r>
       <r>   -1.4475    1.0000 </r>
       <r>   -1.1271    1.0000 </r>
       <r>   -1.0647    1.0000 </r>
       <r>   -0.7658    1.0000 </r>
       <r>   -0.4684    1.0000 </r>
       <r>   -0.2929    1.0000 </r>
       <r>   -0.2416    1.0000 </r>
       <r>   -0.2369    1.0000 </r>
       <r>   -0.1952    1.0000 </r>
       <r>   -0.1479    1.0000 </r>
       <r>   -0.0185    1.0000 </r>
       <r>    0.0229    1.0000 </r>
       <r>    1.3315    1.0000 </r>
       <r>    1.3799    1.0000 </r>
       <r>    1.4140    1.0000 </r>
       <r>    1.4380    1.0000 </r>
       <r>    1.4637    1.0000 </r>
       <r>    1.4655    1.0000 </r>
       <r>    1.5129    1.0000 </r>
       <r>    1.5450    1.0000 </r>
       <r>    1.6305    1.0000 </r>
       <r>    1.7569    1.0000 </r>
       <r>    1.7853    1.0000 </r>
       <r>    1.9492    1.0000 </r>
       <r>    2.0893    1.0000 </r>
       <r>    2.6608    1.0000 </r>
       <r>    2.7192    1.0000 </r>
       <r>    3.1956    1.0000 </r>
       <r>    3.2548    1.0000 </r>
       <r>    3.5173    1.0000 </r>
       <r>    3.8968    1.0000 </r>
       <r>    3.9765    1.0016 </r>
       <r>    6.0419   -0.0000 </r>
       <r>    6.4137   -0.0000 </r>
       <r>    7.8178    0.0000 </r>
       <r>    7.9030    0.0000 </r>
       <r>    8.3727    0.0000 </r>
       <r>    8.8269    0.0000 </r>
       <r>    9.7737    0.0000 </r>
       <r>    9.7928    0.0000 </r>
       <r>   10.0633    0.0000 </r>
       <r>   10.5832    0.0000 </r>
       <r>   10.6431    0.0000 </r>
       <r>   10.8130    0.0000 </r>
       <r>   10.8561    0.0000 </r>
       <r>   11.4914    0.0000 </r>
       <r>   11.5591    0.0000 </r>
       <r>   12.0269    0.0000 </r>
       <r>   12.5788    0.0000 </r>
       <r>   12.7774    0.0000 </r>
       <r>   12.9102    0.0000 </r>
       <r>   13.2101    0.0000 </r>
       <r>   13.5356    0.0000 </r>
       <r>   13.8233    0.0000 </r>
       <r>   14.1969    0.0000 </r>
       <r>   14.7066    0.0000 </r>
      </set>
      <set comment="kpoint 12">
       <r>  -68.6508    1.0000 </r>
       <r>  -68.6454    1.0000 </r>
       <r>  -68.6336    1.0000 </r>
       <r>  -68.6338    1.0000 </r>
       <r>  -68.6186    1.0000 </r>
       <r>  -68.6136    1.0000 </r>
       <r>  -68.6015    1.0000 </r>
       <r>  -68.5961    1.0000 </r>
       <r>  -68.5785    1.0000 </r>
       <r>  -68.5779    1.0000 </r>
       <r>  -68.5611    1.0000 </r>
       <r>  -68.5612    1.0000 </r>
       <r>  -12.4555    1.0000 </r>
       <r>  -11.4648    1.0000 </r>
       <r>  -10.8643    1.0000 </r>
       <r>  -10.6889    1.0000 </r>
       <r>  -10.3739    1.0000 </r>
       <r>  -10.2458    1.0000 </r>
       <r>   -5.7627    1.0000 </r>
       <r>   -4.8070    1.0000 </r>
       <r>   -2.4443    1.0000 </r>
       <r>   -2.2295    1.0000 </r>
       <r>   -1.8535    1.0000 </r>
       <r>   -1.7134    1.0000 </r>
       <r>   -1.4318    1.0000 </r>
       <r>   -1.1882    1.0000 </r>
       <r>   -0.8907    1.0000 </r>
       <r>   -0.7462    1.0000 </r>
       <r>   -0.6064    1.0000 </r>
       <r>   -0.5219    1.0000 </r>
       <r>   -0.3129    1.0000 </r>
       <r>   -0.2460    1.0000 </r>
       <r>   -0.1775    1.0000 </r>
       <r>   -0.1242    1.0000 </r>
       <r>   -0.0535    1.0000 </r>
       <r>    0.0611    1.0000 </r>
       <r>    1.3008    1.0000 </r>
       <r>    1.3338    1.0000 </r>
       <r>    1.3679    1.0000 </r>
       <r>    1.4309    1.0000 </r>
       <r>    1.4438    1.0000 </r>
       <r>    1.4779    1.0000 </r>
       <r>    1.5205    1.0000 </r>
       <r>    1.5459    1.0000 </r>
       <r>    1.6442    1.0000 </r>
       <r>    1.8716    1.0000 </r>
       <r>    1.9784    1.0000 </r>
       <r>    2.0471    1.0000 </r>
       <r>    2.1938    1.0000 </r>
       <r>    2.4754    1.0000 </r>
       <r>    2.5935    1.0000 </r>
       <r>    2.8383    1.0000 </r>
       <r>    2.9644    1.0000 </r>
       <r>    3.1319    1.0000 </r>
       <r>    3.5656    1.0000 </r>
       <r>    3.7247    1.0000 </r>
       <r>    6.4341   -0.0000 </r>
       <r>    6.9607    0.0000 </r>
       <r>    8.1678    0.0000 </r>
       <r>    8.2464    0.0000 </r>
       <r>    8.8275    0.0000 </r>
       <r>    9.1334    0.0000 </r>
       <r>    9.4622    0.0000 </r>
       <r>    9.7927    0.0000 </r>
       <r>   10.0840    0.0000 </r>
       <r>   10.3033    0.0000 </r>
       <r>   10.7392    0.0000 </r>
       <r>   11.0807    0.0000 </r>
       <r>   11.2900    0.0000 </r>
       <r>   11.4248    0.0000 </r>
       <r>   11.6309    0.0000 </r>
       <r>   11.7243    0.0000 </r>
       <r>   12.0909    0.0000 </r>
       <r>   12.2687    0.0000 </r>
       <r>   12.5407    0.0000 </r>
       <r>   12.6607    0.0000 </r>
       <r>   12.9548    0.0000 </r>
       <r>   13.0591    0.0000 </r>
       <r>   13.6444    0.0000 </r>
       <r>   14.6935    0.0000 </r>
      </set>
      <set comment="kpoint 13">
       <r>  -68.6506    1.0000 </r>
       <r>  -68.6452    1.0000 </r>
       <r>  -68.6337    1.0000 </r>
       <r>  -68.6335    1.0000 </r>
       <r>  -68.6185    1.0000 </r>
       <r>  -68.6135    1.0000 </r>
       <r>  -68.6014    1.0000 </r>
       <r>  -68.5960    1.0000 </r>
       <r>  -68.5782    1.0000 </r>
       <r>  -68.5779    1.0000 </r>
       <r>  -68.5610    1.0000 </r>
       <r>  -68.5612    1.0000 </r>
       <r>  -12.3528    1.0000 </r>
       <r>  -11.4097    1.0000 </r>
       <r>  -10.9546    1.0000 </r>
       <r>  -10.6858    1.0000 </r>
       <r>  -10.4781    1.0000 </r>
       <r>  -10.3349    1.0000 </r>
       <r>   -5.7472    1.0000 </r>
       <r>   -4.7243    1.0000 </r>
       <r>   -2.5219    1.0000 </r>
       <r>   -2.1845    1.0000 </r>
       <r>   -1.9513    1.0000 </r>
       <r>   -1.5338    1.0000 </r>
       <r>   -1.3021    1.0000 </r>
       <r>   -1.0958    1.0000 </r>
       <r>   -0.8706    1.0000 </r>
       <r>   -0.7615    1.0000 </r>
       <r>   -0.5496    1.0000 </r>
       <r>   -0.4453    1.0000 </r>
       <r>   -0.2911    1.0000 </r>
       <r>   -0.1820    1.0000 </r>
       <r>   -0.1469    1.0000 </r>
       <r>   -0.1079    1.0000 </r>
       <r>   -0.0456    1.0000 </r>
       <r>    0.0229    1.0000 </r>
       <r>    1.2711    1.0000 </r>
       <r>    1.2960    1.0000 </r>
       <r>    1.3495    1.0000 </r>
       <r>    1.4279    1.0000 </r>
       <r>    1.4512    1.0000 </r>
       <r>    1.4790    1.0000 </r>
       <r>    1.5000    1.0000 </r>
       <r>    1.5868    1.0000 </r>
       <r>    1.7196    1.0000 </r>
       <r>    1.9320    1.0000 </r>
       <r>    2.0776    1.0000 </r>
       <r>    2.1464    1.0000 </r>
       <r>    2.2669    1.0000 </r>
       <r>    2.4028    1.0000 </r>
       <r>    2.5671    1.0000 </r>
       <r>    2.5982    1.0000 </r>
       <r>    2.8967    1.0000 </r>
       <r>    3.0066    1.0000 </r>
       <r>    3.3574    1.0000 </r>
       <r>    3.9005    1.0000 </r>
       <r>    6.3556   -0.0000 </r>
       <r>    6.9022   -0.0000 </r>
       <r>    7.5731    0.0000 </r>
       <r>    8.0802    0.0000 </r>
       <r>    8.5440    0.0000 </r>
       <r>    8.7942    0.0000 </r>
       <r>    9.2835    0.0000 </r>
       <r>    9.6317    0.0000 </r>
       <r>    9.9278    0.0000 </r>
       <r>   10.2747    0.0000 </r>
       <r>   10.6619    0.0000 </r>
       <r>   10.9280    0.0000 </r>
       <r>   10.9754    0.0000 </r>
       <r>   11.2826    0.0000 </r>
       <r>   11.5181    0.0000 </r>
       <r>   11.7890    0.0000 </r>
       <r>   12.2472    0.0000 </r>
       <r>   12.5431    0.0000 </r>
       <r>   13.0549    0.0000 </r>
       <r>   13.5139    0.0000 </r>
       <r>   14.3033    0.0000 </r>
       <r>   14.5739    0.0000 </r>
       <r>   15.1325    0.0000 </r>
       <r>   16.2739    0.0000 </r>
      </set>
      <set comment="kpoint 14">
       <r>  -68.6509    1.0000 </r>
       <r>  -68.6454    1.0000 </r>
       <r>  -68.6335    1.0000 </r>
       <r>  -68.6339    1.0000 </r>
       <r>  -68.6186    1.0000 </r>
       <r>  -68.6136    1.0000 </r>
       <r>  -68.6015    1.0000 </r>
       <r>  -68.5962    1.0000 </r>
       <r>  -68.5785    1.0000 </r>
       <r>  -68.5779    1.0000 </r>
       <r>  -68.5611    1.0000 </r>
       <r>  -68.5613    1.0000 </r>
       <r>  -12.5383    1.0000 </r>
       <r>  -11.3356    1.0000 </r>
       <r>  -10.8724    1.0000 </r>
       <r>  -10.6064    1.0000 </r>
       <r>  -10.3994    1.0000 </r>
       <r>  -10.2836    1.0000 </r>
       <r>   -5.8207    1.0000 </r>
       <r>   -4.9766    1.0000 </r>
       <r>   -2.6644    1.0000 </r>
       <r>   -2.4527    1.0000 </r>
       <r>   -2.0381    1.0000 </r>
       <r>   -1.5790    1.0000 </r>
       <r>   -1.1725    1.0000 </r>
       <r>   -0.9802    1.0000 </r>
       <r>   -0.7938    1.0000 </r>
       <r>   -0.6558    1.0000 </r>
       <r>   -0.5166    1.0000 </r>
       <r>   -0.3904    1.0000 </r>
       <r>   -0.2706    1.0000 </r>
       <r>   -0.2557    1.0000 </r>
       <r>   -0.1927    1.0000 </r>
       <r>   -0.1455    1.0000 </r>
       <r>   -0.0477    1.0000 </r>
       <r>    0.0128    1.0000 </r>
       <r>    1.2889    1.0000 </r>
       <r>    1.3089    1.0000 </r>
       <r>    1.3878    1.0000 </r>
       <r>    1.4067    1.0000 </r>
       <r>    1.4321    1.0000 </r>
       <r>    1.4544    1.0000 </r>
       <r>    1.4909    1.0000 </r>
       <r>    1.5639    1.0000 </r>
       <r>    1.6865    1.0000 </r>
       <r>    1.9139    1.0000 </r>
       <r>    1.9856    1.0000 </r>
       <r>    2.1459    1.0000 </r>
       <r>    2.3335    1.0000 </r>
       <r>    2.5648    1.0000 </r>
       <r>    2.6172    1.0000 </r>
       <r>    2.8288    1.0000 </r>
       <r>    2.9729    1.0000 </r>
       <r>    3.2489    1.0000 </r>
       <r>    3.6818    1.0000 </r>
       <r>    3.9449    1.0004 </r>
       <r>    6.1709   -0.0000 </r>
       <r>    6.6382   -0.0000 </r>
       <r>    7.7655    0.0000 </r>
       <r>    7.9696    0.0000 </r>
       <r>    8.2157    0.0000 </r>
       <r>    8.5696    0.0000 </r>
       <r>    9.3802    0.0000 </r>
       <r>    9.5747    0.0000 </r>
       <r>    9.9054    0.0000 </r>
       <r>   10.2501    0.0000 </r>
       <r>   10.5454    0.0000 </r>
       <r>   10.7868    0.0000 </r>
       <r>   10.8439    0.0000 </r>
       <r>   11.0708    0.0000 </r>
       <r>   11.5649    0.0000 </r>
       <r>   12.0175    0.0000 </r>
       <r>   12.5262    0.0000 </r>
       <r>   12.7582    0.0000 </r>
       <r>   12.9539    0.0000 </r>
       <r>   13.3024    0.0000 </r>
       <r>   13.4115    0.0000 </r>
       <r>   13.7459    0.0000 </r>
       <r>   13.8467    0.0000 </r>
       <r>   14.7268    0.0000 </r>
      </set>
      <set comment="kpoint 15">
       <r>  -68.6508    1.0000 </r>
       <r>  -68.6454    1.0000 </r>
       <r>  -68.6336    1.0000 </r>
       <r>  -68.6337    1.0000 </r>
       <r>  -68.6186    1.0000 </r>
       <r>  -68.6136    1.0000 </r>
       <r>  -68.6015    1.0000 </r>
       <r>  -68.5961    1.0000 </r>
       <r>  -68.5785    1.0000 </r>
       <r>  -68.5779    1.0000 </r>
       <r>  -68.5611    1.0000 </r>
       <r>  -68.5612    1.0000 </r>
       <r>  -12.4555    1.0000 </r>
       <r>  -11.4652    1.0000 </r>
       <r>  -10.8642    1.0000 </r>
       <r>  -10.6881    1.0000 </r>
       <r>  -10.3739    1.0000 </r>
       <r>  -10.2463    1.0000 </r>
       <r>   -5.7627    1.0000 </r>
       <r>   -4.8068    1.0000 </r>
       <r>   -2.4449    1.0000 </r>
       <r>   -2.2316    1.0000 </r>
       <r>   -1.8517    1.0000 </r>
       <r>   -1.7120    1.0000 </r>
       <r>   -1.4339    1.0000 </r>
       <r>   -1.1880    1.0000 </r>
       <r>   -0.8870    1.0000 </r>
       <r>   -0.7455    1.0000 </r>
       <r>   -0.6059    1.0000 </r>
       <r>   -0.5275    1.0000 </r>
       <r>   -0.3130    1.0000 </r>
       <r>   -0.2448    1.0000 </r>
       <r>   -0.1766    1.0000 </r>
       <r>   -0.1239    1.0000 </r>
       <r>   -0.0541    1.0000 </r>
       <r>    0.0612    1.0000 </r>
       <r>    1.3003    1.0000 </r>
       <r>    1.3349    1.0000 </r>
       <r>    1.3676    1.0000 </r>
       <r>    1.4302    1.0000 </r>
       <r>    1.4455    1.0000 </r>
       <r>    1.4772    1.0000 </r>
       <r>    1.5206    1.0000 </r>
       <r>    1.5466    1.0000 </r>
       <r>    1.6428    1.0000 </r>
       <r>    1.8707    1.0000 </r>
       <r>    1.9786    1.0000 </r>
       <r>    2.0475    1.0000 </r>
       <r>    2.1930    1.0000 </r>
       <r>    2.4756    1.0000 </r>
       <r>    2.5948    1.0000 </r>
       <r>    2.8374    1.0000 </r>
       <r>    2.9645    1.0000 </r>
       <r>    3.1311    1.0000 </r>
       <r>    3.5664    1.0000 </r>
       <r>    3.7247    1.0000 </r>
       <r>    6.4413   -0.0000 </r>
       <r>    6.9553    0.0000 </r>
       <r>    8.1705    0.0000 </r>
       <r>    8.2430    0.0000 </r>
       <r>    8.8303    0.0000 </r>
       <r>    9.1278    0.0000 </r>
       <r>    9.4649    0.0000 </r>
       <r>    9.7955    0.0000 </r>
       <r>   10.0876    0.0000 </r>
       <r>   10.2975    0.0000 </r>
       <r>   10.7421    0.0000 </r>
       <r>   11.0763    0.0000 </r>
       <r>   11.2919    0.0000 </r>
       <r>   11.4229    0.0000 </r>
       <r>   11.6330    0.0000 </r>
       <r>   11.7253    0.0000 </r>
       <r>   12.0885    0.0000 </r>
       <r>   12.2649    0.0000 </r>
       <r>   12.5416    0.0000 </r>
       <r>   12.6567    0.0000 </r>
       <r>   12.9531    0.0000 </r>
       <r>   13.0576    0.0000 </r>
       <r>   13.6575    0.0000 </r>
       <r>   14.6970    0.0000 </r>
      </set>
      <set comment="kpoint 16">
       <r>  -68.6507    1.0000 </r>
       <r>  -68.6453    1.0000 </r>
       <r>  -68.6336    1.0000 </r>
       <r>  -68.6335    1.0000 </r>
       <r>  -68.6185    1.0000 </r>
       <r>  -68.6134    1.0000 </r>
       <r>  -68.6014    1.0000 </r>
       <r>  -68.5960    1.0000 </r>
       <r>  -68.5784    1.0000 </r>
       <r>  -68.5778    1.0000 </r>
       <r>  -68.5610    1.0000 </r>
       <r>  -68.5611    1.0000 </r>
       <r>  -12.3232    1.0000 </r>
       <r>  -11.4721    1.0000 </r>
       <r>  -10.8638    1.0000 </r>
       <r>  -10.8584    1.0000 </r>
       <r>  -10.4067    1.0000 </r>
       <r>  -10.2880    1.0000 </r>
       <r>   -5.7430    1.0000 </r>
       <r>   -4.6939    1.0000 </r>
       <r>   -2.2409    1.0000 </r>
       <r>   -2.1363    1.0000 </r>
       <r>   -1.9309    1.0000 </r>
       <r>   -1.8507    1.0000 </r>
       <r>   -1.4514    1.0000 </r>
       <r>   -1.3950    1.0000 </r>
       <r>   -1.0400    1.0000 </r>
       <r>   -0.5196    1.0000 </r>
       <r>   -0.4642    1.0000 </r>
       <r>   -0.3502    1.0000 </r>
       <r>   -0.2514    1.0000 </r>
       <r>   -0.2186    1.0000 </r>
       <r>   -0.1627    1.0000 </r>
       <r>   -0.1147    1.0000 </r>
       <r>   -0.0909    1.0000 </r>
       <r>    0.0809    1.0000 </r>
       <r>    1.2602    1.0000 </r>
       <r>    1.3460    1.0000 </r>
       <r>    1.3968    1.0000 </r>
       <r>    1.4335    1.0000 </r>
       <r>    1.4516    1.0000 </r>
       <r>    1.5089    1.0000 </r>
       <r>    1.5348    1.0000 </r>
       <r>    1.5418    1.0000 </r>
       <r>    1.7524    1.0000 </r>
       <r>    1.8171    1.0000 </r>
       <r>    2.0403    1.0000 </r>
       <r>    2.1355    1.0000 </r>
       <r>    2.2846    1.0000 </r>
       <r>    2.3101    1.0000 </r>
       <r>    2.5206    1.0000 </r>
       <r>    2.7689    1.0000 </r>
       <r>    2.8968    1.0000 </r>
       <r>    3.2620    1.0000 </r>
       <r>    3.4944    1.0000 </r>
       <r>    3.8006    1.0000 </r>
       <r>    6.1797   -0.0000 </r>
       <r>    6.8425   -0.0000 </r>
       <r>    7.8276    0.0000 </r>
       <r>    8.0418    0.0000 </r>
       <r>    8.1884    0.0000 </r>
       <r>    8.7231    0.0000 </r>
       <r>    9.1534    0.0000 </r>
       <r>    9.3004    0.0000 </r>
       <r>   10.2223    0.0000 </r>
       <r>   10.4469    0.0000 </r>
       <r>   10.5939    0.0000 </r>
       <r>   11.0096    0.0000 </r>
       <r>   11.2417    0.0000 </r>
       <r>   11.4869    0.0000 </r>
       <r>   11.8146    0.0000 </r>
       <r>   12.1726    0.0000 </r>
       <r>   12.2066    0.0000 </r>
       <r>   12.5747    0.0000 </r>
       <r>   12.6905    0.0000 </r>
       <r>   13.1099    0.0000 </r>
       <r>   13.4149    0.0000 </r>
       <r>   13.8852    0.0000 </r>
       <r>   14.0057    0.0000 </r>
       <r>   14.5296    0.0000 </r>
      </set>
      <set comment="kpoint 17">
       <r>  -68.6506    1.0000 </r>
       <r>  -68.6452    1.0000 </r>
       <r>  -68.6338    1.0000 </r>
       <r>  -68.6335    1.0000 </r>
       <r>  -68.6184    1.0000 </r>
       <r>  -68.6135    1.0000 </r>
       <r>  -68.6015    1.0000 </r>
       <r>  -68.5961    1.0000 </r>
       <r>  -68.5782    1.0000 </r>
       <r>  -68.5780    1.0000 </r>
       <r>  -68.5610    1.0000 </r>
       <r>  -68.5611    1.0000 </r>
       <r>  -12.3701    1.0000 </r>
       <r>  -11.4700    1.0000 </r>
       <r>  -10.9387    1.0000 </r>
       <r>  -10.6538    1.0000 </r>
       <r>  -10.4198    1.0000 </r>
       <r>  -10.3054    1.0000 </r>
       <r>   -5.7954    1.0000 </r>
       <r>   -4.8381    1.0000 </r>
       <r>   -2.5253    1.0000 </r>
       <r>   -2.2421    1.0000 </r>
       <r>   -1.8734    1.0000 </r>
       <r>   -1.6422    1.0000 </r>
       <r>   -1.5041    1.0000 </r>
       <r>   -1.3111    1.0000 </r>
       <r>   -0.9022    1.0000 </r>
       <r>   -0.5322    1.0000 </r>
       <r>   -0.3786    1.0000 </r>
       <r>   -0.3513    1.0000 </r>
       <r>   -0.2252    1.0000 </r>
       <r>   -0.1797    1.0000 </r>
       <r>   -0.1648    1.0000 </r>
       <r>   -0.0768    1.0000 </r>
       <r>   -0.0264    1.0000 </r>
       <r>    0.0799    1.0000 </r>
       <r>    1.1878    1.0000 </r>
       <r>    1.3624    1.0000 </r>
       <r>    1.3962    1.0000 </r>
       <r>    1.4405    1.0000 </r>
       <r>    1.4620    1.0000 </r>
       <r>    1.5046    1.0000 </r>
       <r>    1.5171    1.0000 </r>
       <r>    1.5844    1.0000 </r>
       <r>    1.7375    1.0000 </r>
       <r>    1.8189    1.0000 </r>
       <r>    2.0355    1.0000 </r>
       <r>    2.2362    1.0000 </r>
       <r>    2.2687    1.0000 </r>
       <r>    2.3640    1.0000 </r>
       <r>    2.4876    1.0000 </r>
       <r>    2.6689    1.0000 </r>
       <r>    3.0520    1.0000 </r>
       <r>    3.4104    1.0000 </r>
       <r>    3.7286    1.0000 </r>
       <r>    3.8644    1.0000 </r>
       <r>    5.9245   -0.0000 </r>
       <r>    6.6132   -0.0000 </r>
       <r>    7.3524    0.0000 </r>
       <r>    7.9433    0.0000 </r>
       <r>    8.0679    0.0000 </r>
       <r>    8.7255    0.0000 </r>
       <r>    8.8989    0.0000 </r>
       <r>    9.1388    0.0000 </r>
       <r>    9.8460    0.0000 </r>
       <r>   10.3314    0.0000 </r>
       <r>   10.5580    0.0000 </r>
       <r>   10.9261    0.0000 </r>
       <r>   11.2248    0.0000 </r>
       <r>   11.4216    0.0000 </r>
       <r>   11.7493    0.0000 </r>
       <r>   12.0056    0.0000 </r>
       <r>   12.4965    0.0000 </r>
       <r>   12.8275    0.0000 </r>
       <r>   13.2127    0.0000 </r>
       <r>   14.2719    0.0000 </r>
       <r>   14.7167    0.0000 </r>
       <r>   15.1665    0.0000 </r>
       <r>   15.9082    0.0000 </r>
       <r>   16.5653    0.0000 </r>
      </set>
      <set comment="kpoint 18">
       <r>  -68.6508    1.0000 </r>
       <r>  -68.6453    1.0000 </r>
       <r>  -68.6337    1.0000 </r>
       <r>  -68.6338    1.0000 </r>
       <r>  -68.6185    1.0000 </r>
       <r>  -68.6135    1.0000 </r>
       <r>  -68.6016    1.0000 </r>
       <r>  -68.5962    1.0000 </r>
       <r>  -68.5785    1.0000 </r>
       <r>  -68.5778    1.0000 </r>
       <r>  -68.5611    1.0000 </r>
       <r>  -68.5612    1.0000 </r>
       <r>  -12.4968    1.0000 </r>
       <r>  -11.4231    1.0000 </r>
       <r>  -10.9481    1.0000 </r>
       <r>  -10.5809    1.0000 </r>
       <r>  -10.3763    1.0000 </r>
       <r>  -10.2080    1.0000 </r>
       <r>   -5.8242    1.0000 </r>
       <r>   -4.9424    1.0000 </r>
       <r>   -2.5706    1.0000 </r>
       <r>   -2.3647    1.0000 </r>
       <r>   -1.9195    1.0000 </r>
       <r>   -1.5958    1.0000 </r>
       <r>   -1.4150    1.0000 </r>
       <r>   -1.1224    1.0000 </r>
       <r>   -0.8135    1.0000 </r>
       <r>   -0.6768    1.0000 </r>
       <r>   -0.5340    1.0000 </r>
       <r>   -0.4708    1.0000 </r>
       <r>   -0.2563    1.0000 </r>
       <r>   -0.1964    1.0000 </r>
       <r>   -0.1692    1.0000 </r>
       <r>   -0.1191    1.0000 </r>
       <r>   -0.0365    1.0000 </r>
       <r>    0.0575    1.0000 </r>
       <r>    1.2793    1.0000 </r>
       <r>    1.3215    1.0000 </r>
       <r>    1.3426    1.0000 </r>
       <r>    1.4335    1.0000 </r>
       <r>    1.4500    1.0000 </r>
       <r>    1.4670    1.0000 </r>
       <r>    1.4917    1.0000 </r>
       <r>    1.5571    1.0000 </r>
       <r>    1.7249    1.0000 </r>
       <r>    1.8410    1.0000 </r>
       <r>    1.9698    1.0000 </r>
       <r>    2.0999    1.0000 </r>
       <r>    2.3360    1.0000 </r>
       <r>    2.4483    1.0000 </r>
       <r>    2.5402    1.0000 </r>
       <r>    2.8500    1.0000 </r>
       <r>    3.0535    1.0000 </r>
       <r>    3.2645    1.0000 </r>
       <r>    3.6714    1.0000 </r>
       <r>    3.7819    1.0000 </r>
       <r>    6.2568   -0.0000 </r>
       <r>    6.7972   -0.0000 </r>
       <r>    7.8140    0.0000 </r>
       <r>    8.1294    0.0000 </r>
       <r>    8.3416    0.0000 </r>
       <r>    8.9363    0.0000 </r>
       <r>    9.3367    0.0000 </r>
[...]
       <r>   11.7081    0.0000 </r>
       <r>   11.8948    0.0000 </r>
       <r>   12.2985    0.0000 </r>
       <r>   12.6575    0.0000 </r>
       <r>   13.0123    0.0000 </r>
       <r>   13.2308    0.0000 </r>
       <r>   13.6684    0.0000 </r>
       <r>   14.0755    0.0000 </r>
       <r>   14.3961    0.0000 </r>
       <r>   16.5107    0.0000 </r>
      </set>
      <set comment="kpoint 42">
       <r>  -68.6508    1.0000 </r>
       <r>  -68.6453    1.0000 </r>
       <r>  -68.6333    1.0000 </r>
       <r>  -68.6336    1.0000 </r>
       <r>  -68.6184    1.0000 </r>
       <r>  -68.6135    1.0000 </r>
       <r>  -68.6013    1.0000 </r>
       <r>  -68.5959    1.0000 </r>
       <r>  -68.5781    1.0000 </r>
       <r>  -68.5781    1.0000 </r>
       <r>  -68.5611    1.0000 </r>
       <r>  -68.5611    1.0000 </r>
       <r>  -12.1755    1.0000 </r>
       <r>  -11.7026    1.0000 </r>
       <r>  -10.7176    1.0000 </r>
       <r>  -10.6942    1.0000 </r>
       <r>  -10.5869    1.0000 </r>
       <r>  -10.3925    1.0000 </r>
       <r>   -5.4429    1.0000 </r>
       <r>   -5.0716    1.0000 </r>
       <r>   -2.5086    1.0000 </r>
       <r>   -2.3787    1.0000 </r>
       <r>   -1.9639    1.0000 </r>
       <r>   -1.3688    1.0000 </r>
       <r>   -1.3272    1.0000 </r>
       <r>   -1.0536    1.0000 </r>
       <r>   -0.8307    1.0000 </r>
       <r>   -0.7675    1.0000 </r>
       <r>   -0.4254    1.0000 </r>
       <r>   -0.3423    1.0000 </r>
       <r>   -0.2719    1.0000 </r>
       <r>   -0.2102    1.0000 </r>
       <r>   -0.1425    1.0000 </r>
       <r>   -0.1409    1.0000 </r>
       <r>   -0.0133    1.0000 </r>
       <r>    0.0250    1.0000 </r>
       <r>    1.1723    1.0000 </r>
       <r>    1.3698    1.0000 </r>
       <r>    1.3960    1.0000 </r>
       <r>    1.4513    1.0000 </r>
       <r>    1.4529    1.0000 </r>
       <r>    1.4978    1.0000 </r>
       <r>    1.5159    1.0000 </r>
       <r>    1.5472    1.0000 </r>
       <r>    1.7428    1.0000 </r>
       <r>    1.8186    1.0000 </r>
       <r>    1.9729    1.0000 </r>
       <r>    2.2271    1.0000 </r>
       <r>    2.3973    1.0000 </r>
       <r>    2.6135    1.0000 </r>
       <r>    2.6545    1.0000 </r>
       <r>    2.9138    1.0000 </r>
       <r>    3.0693    1.0000 </r>
       <r>    3.1179    1.0000 </r>
       <r>    3.2851    1.0000 </r>
       <r>    3.5809    1.0000 </r>
       <r>    6.2880   -0.0000 </r>
       <r>    6.3770   -0.0000 </r>
       <r>    7.3603    0.0000 </r>
       <r>    7.5227    0.0000 </r>
       <r>    8.3083    0.0000 </r>
       <r>    8.3344    0.0000 </r>
       <r>    9.1053    0.0000 </r>
       <r>    9.3582    0.0000 </r>
       <r>    9.7189    0.0000 </r>
       <r>    9.9477    0.0000 </r>
       <r>   10.5229    0.0000 </r>
       <r>   10.9921    0.0000 </r>
       <r>   11.4223    0.0000 </r>
       <r>   11.5647    0.0000 </r>
       <r>   12.0217    0.0000 </r>
       <r>   12.2881    0.0000 </r>
       <r>   12.4284    0.0000 </r>
       <r>   12.4768    0.0000 </r>
       <r>   13.0312    0.0000 </r>
       <r>   13.1456    0.0000 </r>
       <r>   14.1444    0.0000 </r>
       <r>   14.4342    0.0000 </r>
       <r>   15.1673    0.0000 </r>
       <r>   15.8650    0.0000 </r>
      </set>
     </set>
    </set>
   </array>
  </eigenvalues>
  <separator name="orbital magnetization" >
   <v name="MAGDIPOLOUT">      0.00000000      0.00000000      0.00000000</v>
  </separator>
  <dos>
   <i name="efermi">      4.21873505 </i>
   <total>
    <array>
     <dimension dim="1">gridpoints</dimension>
     <dimension dim="2">spin</dimension>
     <field>energy</field>
     <field>total</field>
     <field>integrated</field>
     <set>
      <set comment="spin 1">
       <r>   -72.8301     0.0000     0.0000 </r>
       <r>   -72.5238     0.0000     0.0000 </r>
       <r>   -72.2174     0.0000     0.0000 </r>
       <r>   -71.9110     0.0000     0.0000 </r>
       <r>   -71.6046     0.0000     0.0000 </r>
       <r>   -71.2982     0.0000     0.0000 </r>
       <r>   -70.9918     0.0000     0.0000 </r>
       <r>   -70.6855     0.0000     0.0000 </r>
       <r>   -70.3791     0.0000     0.0000 </r>
       <r>   -70.0727     0.0000     0.0000 </r>
       <r>   -69.7663     0.0000     0.0000 </r>
       <r>   -69.4599    -0.0000    -0.0000 </r>
       <r>   -69.1536    -0.0000    -0.0000 </r>
       <r>   -68.8472    -0.2321    -0.0711 </r>
       <r>   -68.5408    70.6527    21.5755 </r>
       <r>   -68.2344     7.9136    24.0001 </r>
       <r>   -67.9280    -0.0004    24.0000 </r>
       <r>   -67.6217     0.0000    24.0000 </r>
       <r>   -67.3153     0.0000    24.0000 </r>
       <r>   -67.0089     0.0000    24.0000 </r>
       <r>   -66.7025     0.0000    24.0000 </r>
       <r>   -66.3961     0.0000    24.0000 </r>
       <r>   -66.0898     0.0000    24.0000 </r>
       <r>   -65.7834     0.0000    24.0000 </r>
       <r>   -65.4770     0.0000    24.0000 </r>
       <r>   -65.1706     0.0000    24.0000 </r>
       <r>   -64.8642     0.0000    24.0000 </r>
       <r>   -64.5578     0.0000    24.0000 </r>
       <r>   -64.2515     0.0000    24.0000 </r>
       <r>   -63.9451     0.0000    24.0000 </r>
       <r>   -63.6387     0.0000    24.0000 </r>
       <r>   -63.3323     0.0000    24.0000 </r>
       <r>   -63.0259     0.0000    24.0000 </r>
       <r>   -62.7196     0.0000    24.0000 </r>
       <r>   -62.4132     0.0000    24.0000 </r>
       <r>   -62.1068     0.0000    24.0000 </r>
       <r>   -61.8004     0.0000    24.0000 </r>
       <r>   -61.4940     0.0000    24.0000 </r>
       <r>   -61.1877     0.0000    24.0000 </r>
       <r>   -60.8813     0.0000    24.0000 </r>
       <r>   -60.5749     0.0000    24.0000 </r>
       <r>   -60.2685     0.0000    24.0000 </r>
       <r>   -59.9621     0.0000    24.0000 </r>
       <r>   -59.6557     0.0000    24.0000 </r>
       <r>   -59.3494     0.0000    24.0000 </r>
       <r>   -59.0430     0.0000    24.0000 </r>
       <r>   -58.7366     0.0000    24.0000 </r>
       <r>   -58.4302     0.0000    24.0000 </r>
       <r>   -58.1238     0.0000    24.0000 </r>
       <r>   -57.8175     0.0000    24.0000 </r>
       <r>   -57.5111     0.0000    24.0000 </r>
       <r>   -57.2047     0.0000    24.0000 </r>
       <r>   -56.8983     0.0000    24.0000 </r>
       <r>   -56.5919     0.0000    24.0000 </r>
       <r>   -56.2856     0.0000    24.0000 </r>
       <r>   -55.9792     0.0000    24.0000 </r>
       <r>   -55.6728     0.0000    24.0000 </r>
       <r>   -55.3664     0.0000    24.0000 </r>
       <r>   -55.0600     0.0000    24.0000 </r>
       <r>   -54.7537     0.0000    24.0000 </r>
       <r>   -54.4473     0.0000    24.0000 </r>
       <r>   -54.1409     0.0000    24.0000 </r>
       <r>   -53.8345     0.0000    24.0000 </r>
       <r>   -53.5281     0.0000    24.0000 </r>
       <r>   -53.2217     0.0000    24.0000 </r>
       <r>   -52.9154     0.0000    24.0000 </r>
       <r>   -52.6090     0.0000    24.0000 </r>
       <r>   -52.3026     0.0000    24.0000 </r>
       <r>   -51.9962     0.0000    24.0000 </r>
       <r>   -51.6898     0.0000    24.0000 </r>
       <r>   -51.3835     0.0000    24.0000 </r>
       <r>   -51.0771     0.0000    24.0000 </r>
       <r>   -50.7707     0.0000    24.0000 </r>
       <r>   -50.4643     0.0000    24.0000 </r>
       <r>   -50.1579     0.0000    24.0000 </r>
       <r>   -49.8516     0.0000    24.0000 </r>
       <r>   -49.5452     0.0000    24.0000 </r>
       <r>   -49.2388     0.0000    24.0000 </r>
       <r>   -48.9324     0.0000    24.0000 </r>
       <r>   -48.6260     0.0000    24.0000 </r>
       <r>   -48.3197     0.0000    24.0000 </r>
       <r>   -48.0133     0.0000    24.0000 </r>
       <r>   -47.7069     0.0000    24.0000 </r>
       <r>   -47.4005     0.0000    24.0000 </r>
       <r>   -47.0941     0.0000    24.0000 </r>
       <r>   -46.7877     0.0000    24.0000 </r>
       <r>   -46.4814     0.0000    24.0000 </r>
       <r>   -46.1750     0.0000    24.0000 </r>
       <r>   -45.8686     0.0000    24.0000 </r>
       <r>   -45.5622     0.0000    24.0000 </r>
       <r>   -45.2558     0.0000    24.0000 </r>
       <r>   -44.9495     0.0000    24.0000 </r>
       <r>   -44.6431     0.0000    24.0000 </r>
       <r>   -44.3367     0.0000    24.0000 </r>
       <r>   -44.0303     0.0000    24.0000 </r>
       <r>   -43.7239     0.0000    24.0000 </r>
       <r>   -43.4176     0.0000    24.0000 </r>
       <r>   -43.1112     0.0000    24.0000 </r>
       <r>   -42.8048     0.0000    24.0000 </r>
       <r>   -42.4984     0.0000    24.0000 </r>
       <r>   -42.1920     0.0000    24.0000 </r>
       <r>   -41.8856     0.0000    24.0000 </r>
       <r>   -41.5793     0.0000    24.0000 </r>
       <r>   -41.2729     0.0000    24.0000 </r>
       <r>   -40.9665     0.0000    24.0000 </r>
       <r>   -40.6601     0.0000    24.0000 </r>
       <r>   -40.3537     0.0000    24.0000 </r>
       <r>   -40.0474     0.0000    24.0000 </r>
       <r>   -39.7410     0.0000    24.0000 </r>
       <r>   -39.4346     0.0000    24.0000 </r>
       <r>   -39.1282     0.0000    24.0000 </r>
       <r>   -38.8218     0.0000    24.0000 </r>
       <r>   -38.5155     0.0000    24.0000 </r>
       <r>   -38.2091     0.0000    24.0000 </r>
       <r>   -37.9027     0.0000    24.0000 </r>
       <r>   -37.5963     0.0000    24.0000 </r>
       <r>   -37.2899     0.0000    24.0000 </r>
       <r>   -36.9836     0.0000    24.0000 </r>
       <r>   -36.6772     0.0000    24.0000 </r>
       <r>   -36.3708     0.0000    24.0000 </r>
       <r>   -36.0644     0.0000    24.0000 </r>
       <r>   -35.7580     0.0000    24.0000 </r>
       <r>   -35.4516     0.0000    24.0000 </r>
       <r>   -35.1453     0.0000    24.0000 </r>
       <r>   -34.8389     0.0000    24.0000 </r>
       <r>   -34.5325     0.0000    24.0000 </r>
       <r>   -34.2261     0.0000    24.0000 </r>
       <r>   -33.9197     0.0000    24.0000 </r>
       <r>   -33.6134     0.0000    24.0000 </r>
       <r>   -33.3070     0.0000    24.0000 </r>
       <r>   -33.0006     0.0000    24.0000 </r>
       <r>   -32.6942     0.0000    24.0000 </r>
       <r>   -32.3878     0.0000    24.0000 </r>
       <r>   -32.0815     0.0000    24.0000 </r>
       <r>   -31.7751     0.0000    24.0000 </r>
       <r>   -31.4687     0.0000    24.0000 </r>
       <r>   -31.1623     0.0000    24.0000 </r>
       <r>   -30.8559     0.0000    24.0000 </r>
       <r>   -30.5496     0.0000    24.0000 </r>
       <r>   -30.2432     0.0000    24.0000 </r>
       <r>   -29.9368     0.0000    24.0000 </r>
       <r>   -29.6304     0.0000    24.0000 </r>
       <r>   -29.3240     0.0000    24.0000 </r>
       <r>   -29.0176     0.0000    24.0000 </r>
       <r>   -28.7113     0.0000    24.0000 </r>
       <r>   -28.4049     0.0000    24.0000 </r>
       <r>   -28.0985     0.0000    24.0000 </r>
       <r>   -27.7921     0.0000    24.0000 </r>
       <r>   -27.4857     0.0000    24.0000 </r>
       <r>   -27.1794     0.0000    24.0000 </r>
       <r>   -26.8730     0.0000    24.0000 </r>
       <r>   -26.5666     0.0000    24.0000 </r>
       <r>   -26.2602     0.0000    24.0000 </r>
       <r>   -25.9538     0.0000    24.0000 </r>
       <r>   -25.6475     0.0000    24.0000 </r>
       <r>   -25.3411     0.0000    24.0000 </r>
       <r>   -25.0347     0.0000    24.0000 </r>
       <r>   -24.7283     0.0000    24.0000 </r>
       <r>   -24.4219     0.0000    24.0000 </r>
       <r>   -24.1155     0.0000    24.0000 </r>
       <r>   -23.8092     0.0000    24.0000 </r>
       <r>   -23.5028     0.0000    24.0000 </r>
       <r>   -23.1964     0.0000    24.0000 </r>
       <r>   -22.8900     0.0000    24.0000 </r>
       <r>   -22.5836     0.0000    24.0000 </r>
       <r>   -22.2773     0.0000    24.0000 </r>
       <r>   -21.9709     0.0000    24.0000 </r>
       <r>   -21.6645     0.0000    24.0000 </r>
       <r>   -21.3581     0.0000    24.0000 </r>
       <r>   -21.0517     0.0000    24.0000 </r>
       <r>   -20.7454     0.0000    24.0000 </r>
       <r>   -20.4390     0.0000    24.0000 </r>
       <r>   -20.1326     0.0000    24.0000 </r>
       <r>   -19.8262     0.0000    24.0000 </r>
       <r>   -19.5198     0.0000    24.0000 </r>
       <r>   -19.2135     0.0000    24.0000 </r>
       <r>   -18.9071     0.0000    24.0000 </r>
       <r>   -18.6007     0.0000    24.0000 </r>
       <r>   -18.2943     0.0000    24.0000 </r>
       <r>   -17.9879     0.0000    24.0000 </r>
       <r>   -17.6815     0.0000    24.0000 </r>
       <r>   -17.3752     0.0000    24.0000 </r>
       <r>   -17.0688     0.0000    24.0000 </r>
       <r>   -16.7624     0.0000    24.0000 </r>
       <r>   -16.4560     0.0000    24.0000 </r>
       <r>   -16.1496     0.0000    24.0000 </r>
       <r>   -15.8433     0.0000    24.0000 </r>
       <r>   -15.5369     0.0000    24.0000 </r>
       <r>   -15.2305     0.0000    24.0000 </r>
       <r>   -14.9241     0.0000    24.0000 </r>
       <r>   -14.6177     0.0000    24.0000 </r>
       <r>   -14.3114     0.0000    24.0000 </r>
       <r>   -14.0050     0.0000    24.0000 </r>
       <r>   -13.6986    -0.0000    24.0000 </r>
       <r>   -13.3922    -0.0000    24.0000 </r>
       <r>   -13.0858    -0.0000    24.0000 </r>
       <r>   -12.7795    -0.0041    23.9987 </r>
       <r>   -12.4731     1.5092    24.4611 </r>
       <r>   -12.1667     3.5744    25.5563 </r>
       <r>   -11.8603     1.9190    26.1442 </r>
       <r>   -11.5539     2.1632    26.8069 </r>
       <r>   -11.2475     3.1891    27.7840 </r>
       <r>   -10.9412     2.5637    28.5695 </r>
       <r>   -10.6348     9.2904    31.4159 </r>
       <r>   -10.3284     9.4188    34.3017 </r>
       <r>   -10.0220     5.5610    36.0054 </r>
       <r>    -9.7156    -0.0177    36.0000 </r>
       <r>    -9.4093    -0.0000    36.0000 </r>
       <r>    -9.1029     0.0000    36.0000 </r>
       <r>    -8.7965     0.0000    36.0000 </r>
       <r>    -8.4901     0.0000    36.0000 </r>
       <r>    -8.1837     0.0000    36.0000 </r>
       <r>    -7.8774     0.0000    36.0000 </r>
       <r>    -7.5710     0.0000    36.0000 </r>
       <r>    -7.2646     0.0000    36.0000 </r>
       <r>    -6.9582    -0.0000    36.0000 </r>
       <r>    -6.6518    -0.0000    36.0000 </r>
       <r>    -6.3454    -0.0000    36.0000 </r>
       <r>    -6.0391     0.0430    36.0132 </r>
       <r>    -5.7327     3.4480    37.0696 </r>
       <r>    -5.4263     2.0693    37.7036 </r>
       <r>    -5.1199     1.9148    38.2902 </r>
       <r>    -4.8135     3.3253    39.3090 </r>
       <r>    -4.5072     2.1967    39.9821 </r>
       <r>    -4.2008     0.0585    40.0000 </r>
       <r>    -3.8944    -0.0000    40.0000 </r>
       <r>    -3.5880    -0.0000    40.0000 </r>
       <r>    -3.2816    -0.0000    40.0000 </r>
       <r>    -2.9753    -0.0004    39.9999 </r>
       <r>    -2.6689     0.3734    40.1143 </r>
       <r>    -2.3625     6.1341    41.9936 </r>
       <r>    -2.0561     6.6912    44.0437 </r>
       <r>    -1.7497     7.3764    46.3037 </r>
       <r>    -1.4434     6.3996    48.2644 </r>
       <r>    -1.1370     8.7641    50.9496 </r>
       <r>    -0.8306     9.0791    53.7312 </r>
       <r>    -0.5242    11.4230    57.2310 </r>
       <r>    -0.2178    18.2716    62.8291 </r>
       <r>     0.0886    28.8007    71.6531 </r>
       <r>     0.3949     1.1329    72.0002 </r>
       <r>     0.7013    -0.0007    72.0000 </r>
       <r>     1.0077    -0.0210    71.9936 </r>
       <r>     1.3141     7.5834    74.3170 </r>
       <r>     1.6205    44.6940    88.0104 </r>
       <r>     1.9268    13.8214    92.2450 </r>
       <r>     2.2332    13.1447    96.2723 </r>
       <r>     2.5396    12.8568   100.2114 </r>
       <r>     2.8460    11.1583   103.6301 </r>
       <r>     3.1524     9.0675   106.4082 </r>
       <r>     3.4587     7.9171   108.8338 </r>
       <r>     3.7651     6.9315   110.9575 </r>
       <r>     4.0715     3.1598   111.9256 </r>
       <r>     4.3779     0.2434   112.0002 </r>
       <r>     4.6843    -0.0005   112.0000 </r>
       <r>     4.9907    -0.0000   112.0000 </r>
       <r>     5.2970    -0.0002   111.9999 </r>
       <r>     5.6034     0.0783   112.0240 </r>
       <r>     5.9098     0.1938   112.0833 </r>
       <r>     6.2162     2.6721   112.9020 </r>
       <r>     6.5226     4.3463   114.2336 </r>
       <r>     6.8289     3.3942   115.2736 </r>
       <r>     7.1353     2.4345   116.0195 </r>
       <r>     7.4417     1.4346   116.4590 </r>
       <r>     7.7481     3.1954   117.4380 </r>
       <r>     8.0545     5.5980   119.1531 </r>
       <r>     8.3608     5.4926   120.8359 </r>
       <r>     8.6672     4.5899   122.2422 </r>
       <r>     8.9736     4.4680   123.6111 </r>
       <r>     9.2800     5.6304   125.3361 </r>
       <r>     9.5864     5.6901   127.0795 </r>
       <r>     9.8927     4.7914   128.5475 </r>
       <r>    10.1991     4.4098   129.8986 </r>
       <r>    10.5055     6.5168   131.8952 </r>
       <r>    10.8119     8.2537   134.4240 </r>
       <r>    11.1183     8.2684   136.9573 </r>
       <r>    11.4247     7.9870   139.4043 </r>
       <r>    11.7310     7.9079   141.8272 </r>
       <r>    12.0374     6.5748   143.8416 </r>
       <r>    12.3438     5.8768   145.6421 </r>
       <r>    12.6502     6.6724   147.6864 </r>
       <r>    12.9566     5.7516   149.4486 </r>
       <r>    13.2629     6.1934   151.3461 </r>
       <r>    13.5693     5.3442   152.9835 </r>
       <r>    13.8757     4.0379   154.2206 </r>
       <r>    14.1821     3.1388   155.1823 </r>
       <r>    14.4885     4.6845   156.6175 </r>
       <r>    14.7948     3.4617   157.6782 </r>
       <r>    15.1012     1.4026   158.1079 </r>
       <r>    15.4076     1.6335   158.6084 </r>
       <r>    15.7140     1.2078   158.9784 </r>
       <r>    16.0204     1.6761   159.4919 </r>
       <r>    16.3267     0.3246   159.5914 </r>
       <r>    16.6331     0.6928   159.8036 </r>
       <r>    16.9395     0.5263   159.9649 </r>
       <r>    17.2459     0.1146   160.0000 </r>
       <r>    17.5523    -0.0000   160.0000 </r>
       <r>    17.8587     0.0000   160.0000 </r>
       <r>    18.1650     0.0000   160.0000 </r>
       <r>    18.4714     0.0000   160.0000 </r>
       <r>    18.7778     0.0000   160.0000 </r>
       <r>    19.0842     0.0000   160.0000 </r>
      </set>
     </set>
    </array>
   </total>
  </dos>
 </calculation>
 <structure name="finalpos" >
  <crystal>
   <varray name="basis" >
    <v>       3.22479600      -5.64383000       0.03157200 </v>
    <v>       3.22479600       5.64383000       0.03157200 </v>
    <v>      -2.10194600       0.00000000       6.07553700 </v>
   </varray>
   <i name="volume">    221.90106089 </i>
   <varray name="rec_basis" >
    <v>       0.15452516      -0.08859232       0.05346088 </v>
    <v>       0.15452516       0.08859232       0.05346088 </v>
    <v>      -0.00160600       0.00000000       0.16403888 </v>
   </varray>
  </crystal>
  <varray name="positions" >
   <v>       0.61844300       0.12117100       0.11953300 </v>
   <v>       0.12117100       0.61844300       0.61953300 </v>
   <v>       0.96295700       0.79032200       0.11881300 </v>
   <v>       0.79032200       0.96295700       0.61881300 </v>
   <v>       0.43973200       0.26728100       0.59904700 </v>
   <v>       0.26728100       0.43973200       0.09904700 </v>
   <v>       0.07949800       0.91167500       0.49736300 </v>
   <v>       0.57140300       0.41236400       0.98173948 </v>
   <v>       0.73711100       0.25006200       0.49504900 </v>
   <v>       0.41236400       0.57140300       0.48018400 </v>
   <v>       0.91167500       0.07949800       0.99736300 </v>
   <v>       0.25006200       0.73711100       0.99504900 </v>
  </varray>
 </structure>
</modeling>
