   12   12    1    1
  0.1849176E+02  0.6500240E-09  0.6500240E-09  0.6428867E-09  0.5000000E-15
  1.000000000000000E-004
  CAR 
 CGS                                     
  112   42   80
 
  0.0000000E+00  0.0000000E+00  0.0000000E+00  0.1250000E-01
   1      -68.645577
   2      -68.644967
   3      -68.634238
   4      -68.632505
   5      -68.613425
   6      -68.612767
   7      -68.596096
   8      -68.595501
   9      -68.578613
  10      -68.577513
  11      -68.561596
  12      -68.560852
  13      -12.720612
  14      -11.130478
  15      -10.915582
  16      -10.603734
  17      -10.252034
  18      -10.235983
  19       -5.984984
  20       -4.983188
  21       -2.760247
  22       -2.209263
  23       -2.069560
  24       -1.920479
  25       -1.576999
  26       -0.982133
  27       -0.956662
  28       -0.684459
  29       -0.400031
  30       -0.277636
  31       -0.259453
  32       -0.236057
  33       -0.190065
  34       -0.156269
  35       -0.035621
  36        0.028831
  37        1.350605
  38        1.361881
  39        1.412291
  40        1.456533
  41        1.471208
  42        1.473642
  43        1.520369
  44        1.533269
  45        1.574437
  46        1.712011
  47        1.892862
  48        1.927429
  49        2.057634
  50        2.649630
  51        2.733571
  52        3.090364
  53        3.215779
  54        4.006164
  55        4.036574
  56        4.172590
  57        5.538015
  58        6.359427
  59        7.630519
  60        7.986743
  61        8.617893
  62        8.792207
  63        9.574111
  64        9.738346
  65        9.814965
  66       10.420487
  67       10.584645
  68       10.696027
  69       10.711379
  70       11.281354
  71       11.709921
  72       12.391801
  73       12.450040
  74       12.728643
  75       13.321160
  76       13.386171
  77       13.832154
  78       13.884019
  79       14.145690
  80       14.180743
 
  0.2500000E+00  0.7372575E-17  0.1387779E-16  0.2500000E-01
   1      -68.645556
   2      -68.644919
   3      -68.634198
   4      -68.632479
   5      -68.613307
   6      -68.612673
   7      -68.596100
   8      -68.595523
   9      -68.578556
  10      -68.577445
  11      -68.561558
  12      -68.560825
  13      -12.595516
  14      -11.129053
  15      -10.980480
  16      -10.678063
  17      -10.364420
  18      -10.280187
  19       -5.933185
  20       -4.773127
  21       -2.645958
  22       -2.252010
  23       -2.084887
  24       -1.688688
  25       -1.346276
  26       -0.999872
  27       -0.770211
  28       -0.620507
  29       -0.552979
  30       -0.435648
  31       -0.362131
  32       -0.242499
  33       -0.192801
  34       -0.172425
  35       -0.043877
  36        0.037095
  37        1.278715
  38        1.335577
  39        1.353919
  40        1.391857
  41        1.426779
  42        1.472213
  43        1.497728
  44        1.530922
  45        1.724594
  46        1.860349
  47        2.055562
  48        2.094514
  49        2.231609
  50        2.415149
  51        2.556589
  52        2.825193
  53        2.944981
  54        3.242392
  55        3.663365
  56        4.041009
  57        6.170874
  58        6.906955
  59        8.137485
  60        8.269104
  61        8.593693
  62        9.012419
  63        9.243449
  64        9.530597
  65        9.866240
  66       10.375688
  67       10.633195
  68       10.813427
  69       10.940124
  70       11.190101
  71       11.655882
  72       11.772025
  73       12.114234
  74       12.444083
  75       12.617963
  76       13.006634
  77       13.505366
  78       13.873373
  79       14.214003
  80       14.711268
 
  0.5000000E+00  0.1474515E-16  0.2775558E-16  0.1250000E-01
   1      -68.645384
   2      -68.644807
   3      -68.634136
   4      -68.632386
   5      -68.613292
   6      -68.612621
   7      -68.596029
   8      -68.595442
   9      -68.578552
  10      -68.577368
  11      -68.561389
  12      -68.560722
  13      -12.435903
  14      -11.251303
  15      -10.955049
  16      -10.765198
  17      -10.424185
  18      -10.362044
  19       -5.870770
  20       -4.548584
  21       -2.494504
  22       -2.244843
  23       -1.944691
  24       -1.462797
  25       -1.224747
  26       -1.101897
  27       -0.900462
  28       -0.865007
  29       -0.597565
  30       -0.538635
  31       -0.276608
  32       -0.206783
  33       -0.204760
  34       -0.142568
  35       -0.028716
  36        0.079432
  37        1.253093
  38        1.326924
  39        1.346650
  40        1.397885
  41        1.471381
  42        1.478544
  43        1.499978
  44        1.554897
  45        1.751509
  46        1.792808
  47        1.969533
  48        2.147334
  49        2.320310
  50        2.360942
  51        2.553452
  52        2.672801
  53        2.934637
  54        3.077896
  55        3.251001
  56        3.863302
  57        6.385947
  58        7.098722
  59        7.981837
  60        8.204273
  61        8.518751
  62        8.821081
  63        9.325145
  64        9.888666
  65       10.010373
  66       10.519014
  67       10.690255
  68       10.791908
  69       11.139752
  70       11.412415
  71       11.608547
  72       11.775655
  73       11.941926
  74       12.504288
  75       12.778528
  76       13.002751
  77       13.390975
  78       13.541405
  79       13.940099
  80       14.276889
 
  0.7372575E-17  0.2500000E+00  0.1387779E-16  0.2500000E-01
   1      -68.645533
   2      -68.644941
   3      -68.634212
   4      -68.632468
   5      -68.613302
   6      -68.612677
   7      -68.596126
   8      -68.595497
   9      -68.578541
  10      -68.577467
  11      -68.561560
  12      -68.560813
  13      -12.595513
  14      -11.127176
  15      -10.981190
  16      -10.680521
  17      -10.365860
  18      -10.277520
  19       -5.933310
  20       -4.772690
  21       -2.644955
  22       -2.251520
  23       -2.087325
  24       -1.688526
  25       -1.345896
  26       -0.998831
  27       -0.770814
  28       -0.622631
  29       -0.551264
  30       -0.438623
  31       -0.362009
  32       -0.241745
  33       -0.193730
  34       -0.169037
  35       -0.043477
  36        0.037129
  37        1.279451
  38        1.335521
  39        1.353979
  40        1.391785
  41        1.426779
  42        1.472163
  43        1.498130
  44        1.529280
  45        1.724167
  46        1.859875
  47        2.056022
  48        2.095917
  49        2.230953
  50        2.415152
  51        2.555049
  52        2.825919
  53        2.946550
  54        3.243214
  55        3.661249
  56        4.040667
  57        6.170965
  58        6.906297
  59        8.137321
  60        8.267908
  61        8.593530
  62        9.013605
  63        9.243121
  64        9.531384
  65        9.866099
  66       10.376087
  67       10.634956
  68       10.813212
  69       10.940212
  70       11.190307
  71       11.659041
  72       11.770344
  73       12.116573
  74       12.441512
  75       12.617244
  76       13.009233
  77       13.515431
  78       13.897906
  79       14.270933
  80       14.839951
 
  0.2500000E+00  0.2500000E+00  0.0000000E+00  0.2500000E-01
   1      -68.645553
   2      -68.644945
   3      -68.634107
   4      -68.632358
   5      -68.613442
   6      -68.612806
   7      -68.596007
   8      -68.595394
   9      -68.578673
  10      -68.577576
  11      -68.561582
  12      -68.560836
  13      -12.439769
  14      -11.190960
  15      -10.941458
  16      -10.880982
  17      -10.392463
  18      -10.349107
  19       -5.875957
  20       -4.521454
  21       -2.417990
  22       -2.245126
  23       -1.791559
  24       -1.680904
  25       -1.355645
  26       -1.299834
  27       -1.082185
  28       -0.683418
  29       -0.522645
  30       -0.296776
  31       -0.283488
  32       -0.224667
  33       -0.188705
  34       -0.123975
  35       -0.092339
  36        0.078081
  37        1.292776
  38        1.310924
  39        1.416458
  40        1.426167
  41        1.462926
  42        1.482350
  43        1.493313
  44        1.569999
  45        1.671214
  46        1.880875
  47        1.940072
  48        2.135076
  49        2.280274
  50        2.321592
  51        2.560135
  52        2.650371
  53        2.901214
  54        2.943781
  55        3.699539
  56        3.834071
  57        6.172013
  58        6.990145
  59        8.003904
  60        8.326974
  61        8.433566
  62        8.571248
  63        9.146717
  64        9.248523
  65       10.362841
  66       10.496144
  67       10.920699
  68       11.184895
  69       11.328877
  70       11.557382
  71       11.813475
  72       11.962946
  73       12.314348
  74       12.503304
  75       12.712162
  76       12.911152
  77       13.340746
  78       13.443931
  79       14.257698
  80       14.368813
 
  0.5000000E+00  0.2500000E+00 -0.2775558E-16  0.2500000E-01
   1      -68.645303
   2      -68.644749
   3      -68.634176
   4      -68.632442
   5      -68.613197
   6      -68.612599
   7      -68.595982
   8      -68.595522
   9      -68.578439
  10      -68.577400
  11      -68.561400
  12      -68.560733
  13      -12.440324
  14      -11.354385
  15      -10.936730
  16      -10.740343
  17      -10.386809
  18      -10.274178
  19       -5.947661
  20       -4.642716
  21       -2.392294
  22       -2.225427
  23       -2.057280
  24       -1.637772
  25       -1.362671
  26       -1.281092
  27       -1.022536
  28       -0.513632
  29       -0.483839
  30       -0.331810
  31       -0.283009
  32       -0.216335
  33       -0.153209
  34       -0.131729
  35       -0.011618
  36        0.113737
  37        1.245579
  38        1.315034
  39        1.382743
  40        1.437062
  41        1.461626
  42        1.490932
  43        1.496624
  44        1.550391
  45        1.749119
  46        1.828593
  47        1.921771
  48        2.134847
  49        2.221850
  50        2.383654
  51        2.562239
  52        2.789856
  53        2.977543
  54        3.312716
  55        3.602619
  56        3.749971
  57        6.088377
  58        6.939167
  59        7.612583
  60        8.069424
  61        8.410328
  62        8.615682
  63        8.982793
  64        9.151774
  65       10.088390
  66       10.335458
  67       10.733095
  68       11.108363
  69       11.460956
  70       11.597519
  71       11.799166
  72       12.081288
  73       12.476099
  74       12.916924
  75       13.033431
  76       13.823664
  77       14.193301
  78       14.656547
  79       15.428539
  80       15.639258
 
 -0.2500000E+00  0.2500000E+00  0.0000000E+00  0.2500000E-01
   1      -68.645546
   2      -68.644932
   3      -68.634179
   4      -68.632444
   5      -68.613239
   6      -68.612607
   7      -68.596095
   8      -68.595496
   9      -68.578502
  10      -68.577402
  11      -68.561560
  12      -68.560819
  13      -12.598578
  14      -11.251788
  15      -10.989961
  16      -10.573099
  17      -10.365011
  18      -10.181760
  19       -6.010127
  20       -4.894709
  21       -2.646735
  22       -2.313819
  23       -1.970308
  24       -1.646144
  25       -1.494023
  26       -1.183846
  27       -0.789415
  28       -0.589691
  29       -0.448908
  30       -0.333594
  31       -0.295002
  32       -0.230238
  33       -0.174073
  34       -0.131843
  35       -0.010952
  36        0.074124
  37        1.258819
  38        1.320572
  39        1.365158
  40        1.423150
  41        1.430185
  42        1.475266
  43        1.503383
  44        1.543059
  45        1.725588
  46        1.812072
  47        1.994505
  48        2.072884
  49        2.417508
  50        2.462550
  51        2.528029
  52        2.873996
  53        3.141640
  54        3.227556
  55        3.784169
  56        4.069078
  57        5.979731
  58        6.689917
  59        7.534561
  60        8.222635
  61        8.618615
  62        8.912900
  63        9.308917
  64        9.431310
  65        9.805045
  66       10.271641
  67       10.542480
  68       10.830988
  69       10.971439
  70       11.381919
  71       11.470632
  72       11.732439
  73       12.102382
  74       12.664189
  75       12.939340
  76       13.101310
  77       13.351421
  78       13.519900
  79       14.477096
  80       14.755784
 
  0.1474515E-16  0.5000000E+00  0.2775558E-16  0.1250000E-01
   1      -68.645408
   2      -68.644773
   3      -68.634140
   4      -68.632380
   5      -68.613244
   6      -68.612671
   7      -68.596028
   8      -68.595444
   9      -68.578491
  10      -68.577457
  11      -68.561447
  12      -68.560642
  13      -12.435945
  14      -11.248160
  15      -10.955395
  16      -10.770976
  17      -10.426136
  18      -10.357197
  19       -5.870991
  20       -4.547604
  21       -2.492900
  22       -2.245324
  23       -1.945363
  24       -1.464063
  25       -1.224296
  26       -1.104648
  27       -0.899842
  28       -0.866189
  29       -0.599042
  30       -0.537128
  31       -0.273458
  32       -0.210324
  33       -0.199203
  34       -0.145146
  35       -0.026890
  36        0.079471
  37        1.254827
  38        1.326536
  39        1.346950
  40        1.397393
  41        1.471061
  42        1.478410
  43        1.499668
  44        1.552931
  45        1.752434
  46        1.790530
  47        1.969179
  48        2.146291
  49        2.320579
  50        2.363912
  51        2.554447
  52        2.671566
  53        2.936807
  54        3.077786
  55        3.248414
  56        3.863781
  57        6.385759
  58        7.096719
  59        7.978511
  60        8.204263
  61        8.519065
  62        8.820135
  63        9.327744
  64        9.890067
  65       10.012020
  66       10.521232
  67       10.692107
  68       10.793464
  69       11.140022
  70       11.407151
  71       11.609219
  72       11.775720
  73       11.944691
  74       12.506557
  75       12.824258
  76       13.030786
  77       13.548150
  78       13.687580
  79       14.552012
  80       15.243321
 
  0.2500000E+00  0.5000000E+00 -0.2775558E-16  0.2500000E-01
   1      -68.645335
   2      -68.644725
   3      -68.634126
   4      -68.632449
   5      -68.613121
   6      -68.612694
   7      -68.595974
   8      -68.595551
   9      -68.578408
  10      -68.577444
  11      -68.561433
  12      -68.560682
  13      -12.440332
  14      -11.353526
  15      -10.936509
  16      -10.742418
  17      -10.387527
  18      -10.272518
  19       -5.947751
  20       -4.642322
  21       -2.391229
  22       -2.226022
  23       -2.056212
  24       -1.641159
  25       -1.361181
  26       -1.281724
  27       -1.022031
  28       -0.510536
  29       -0.489233
  30       -0.330042
  31       -0.285653
  32       -0.214562
  33       -0.149720
  34       -0.134902
  35       -0.010244
  36        0.114508
  37        1.246560
  38        1.314897
  39        1.381833
  40        1.436975
  41        1.461953
  42        1.491296
  43        1.496539
  44        1.549742
  45        1.748856
  46        1.827428
  47        1.923388
  48        2.133303
  49        2.220312
  50        2.386814
  51        2.562176
  52        2.790735
  53        2.976436
  54        3.312199
  55        3.601617
  56        3.750446
  57        6.088345
  58        6.938799
  59        7.611910
  60        8.069448
  61        8.410065
  62        8.615462
  63        8.983983
  64        9.151832
  65       10.088349
  66       10.335877
  67       10.733605
  68       11.108511
  69       11.458883
  70       11.577653
  71       11.786455
  72       12.032532
  73       12.523804
  74       12.684158
  75       12.913839
  76       13.211882
  77       14.230990
  78       14.770464
  79       15.247494
  80       15.912145
 
  0.5000000E+00  0.5000000E+00  0.0000000E+00  0.1250000E-01
   1      -68.645210
   2      -68.644505
   3      -68.633973
   4      -68.632254
   5      -68.612999
   6      -68.612595
   7      -68.595835
   8      -68.595289
   9      -68.578382
  10      -68.577273
  11      -68.561213
  12      -68.560510
  13      -12.432437
  14      -11.501054
  15      -10.911934
  16      -10.621517
  17      -10.395407
  18      -10.201169
  19       -6.026259
  20       -4.810828
  21       -2.311900
  22       -2.263385
  23       -2.092532
  24       -1.702044
  25       -1.243829
  26       -1.110477
  27       -0.845906
  28       -0.780276
  29       -0.730367
  30       -0.246203
  31       -0.196937
  32       -0.179263
  33       -0.151805
  34       -0.042132
  35       -0.003324
  36        0.186938
  37        1.264974
  38        1.317684
  39        1.375226
  40        1.413763
  41        1.434086
  42        1.492529
  43        1.507486
  44        1.549256
  45        1.785203
  46        1.847553
  47        1.995394
  48        2.149900
  49        2.253922
  50        2.337476
  51        2.558448
  52        2.763281
  53        2.774232
  54        3.369447
  55        3.766707
  56        4.005280
  57        5.854847
  58        6.767181
  59        7.082217
  60        8.411210
  61        8.561298
  62        8.770835
  63        9.142295
  64        9.240423
  65        9.960326
  66       10.285044
  67       10.725805
  68       10.826009
  69       10.876778
  70       11.275298
  71       11.756586
  72       11.915835
  73       11.973435
  74       12.366868
  75       12.540417
  76       13.454724
  77       14.283753
  78       14.671275
  79       16.744756
  80       16.758191
 
 -0.2168404E-18 -0.2168404E-18  0.2000000E+00  0.2500000E-01
   1      -68.645586
   2      -68.644962
   3      -68.634206
   4      -68.632475
   5      -68.613339
   6      -68.612697
   7      -68.596124
   8      -68.595515
   9      -68.578585
  10      -68.577488
  11      -68.561599
  12      -68.560853
  13      -12.617418
  14      -11.425318
  15      -10.777934
  16      -10.608751
  17      -10.250809
  18      -10.238031
  19       -5.831277
  20       -5.046596
  21       -2.599992
  22       -2.372132
  23       -1.961111
  24       -1.774505
  25       -1.443267
  26       -1.129238
  27       -1.064998
  28       -0.770220
  29       -0.470640
  30       -0.293112
  31       -0.239974
  32       -0.235421
  33       -0.190739
  34       -0.146341
  35       -0.014240
  36        0.020562
  37        1.333653
  38        1.381263
  39        1.415599
  40        1.439127
  41        1.464516
  42        1.465896
  43        1.514139
  44        1.545888
  45        1.632550
  46        1.759343
  47        1.786947
  48        1.950687
  49        2.087592
  50        2.662668
  51        2.717592
  52        3.194722
  53        3.252158
  54        3.520637
  55        3.894624
  56        3.976380
  57        6.045770
  58        6.417525
  59        7.824637
  60        7.908367
  61        8.365228
  62        8.819557
  63        9.775092
  64        9.795741
  65       10.063828
  66       10.585697
  67       10.645014
  68       10.812419
  69       10.856008
  70       11.493018
  71       11.558342
  72       12.027191
  73       12.578608
  74       12.776736
  75       12.911826
  76       13.205036
  77       13.534509
  78       13.822005
  79       14.195916
  80       14.704394
 
  0.2500000E+00  0.1517883E-17  0.2000000E+00  0.2500000E-01
   1      -68.645521
   2      -68.644901
   3      -68.634193
   4      -68.632460
   5      -68.613370
   6      -68.612751
   7      -68.596094
   8      -68.595458
   9      -68.578588
  10      -68.577506
  11      -68.561538
  12      -68.560786
  13      -12.458169
  14      -11.467008
  15      -10.863736
  16      -10.690238
  17      -10.373483
  18      -10.246241
  19       -5.766589
  20       -4.804231
  21       -2.445002
  22       -2.232649
  23       -1.850368
  24       -1.712672
  25       -1.432777
  26       -1.191645
  27       -0.889985
  28       -0.743017
  29       -0.606467
  30       -0.523850
  31       -0.311253
  32       -0.241957
  33       -0.172208
  34       -0.125525
  35       -0.051436
  36        0.057836
  37        1.301550
  38        1.336047
  39        1.369584
  40        1.430872
  41        1.445836
  42        1.478862
  43        1.521072
  44        1.546548
  45        1.643026
  46        1.873137
  47        1.978550
  48        2.047677
  49        2.195600
  50        2.475763
  51        2.595580
  52        2.838255
  53        2.962240
  54        3.131677
  55        3.569347
  56        3.725690
  57        6.442252
  58        6.957954
  59        8.170636
  60        8.246799
  61        8.833879
  62        9.128459
  63        9.464592
  64        9.794735
  65       10.084821
  66       10.298221
  67       10.741847
  68       11.078367
  69       11.288689
  70       11.422562
  71       11.630604
  72       11.723473
  73       12.088066
  74       12.268292
  75       12.542838
  76       12.659241
  77       12.953450
  78       13.061003
  79       13.640013
  80       14.689957
 
  0.5000000E+00  0.9107298E-17  0.2000000E+00  0.2500000E-01
   1      -68.645295
   2      -68.644782
   3      -68.634095
   4      -68.632399
   5      -68.613224
   6      -68.612615
   7      -68.595982
   8      -68.595397
   9      -68.578448
  10      -68.577444
  11      -68.561434
  12      -68.560752
  13      -12.355673
  14      -11.413800
  15      -10.953692
  16      -10.684399
  17      -10.477750
  18      -10.335918
  19       -5.751764
  20       -4.722386
  21       -2.523088
  22       -2.185088
  23       -1.951056
  24       -1.534101
  25       -1.300921
  26       -1.096386
  27       -0.870025
  28       -0.759268
  29       -0.548400
  30       -0.445424
  31       -0.293495
  32       -0.180433
  33       -0.143784
  34       -0.105964
  35       -0.044530
  36        0.021214
  37        1.272579
  38        1.296594
  39        1.351263
  40        1.429013
  41        1.452164
  42        1.480604
  43        1.501302
  44        1.588724
  45        1.718854
  46        1.933952
  47        2.077054
  48        2.146717
  49        2.266419
  50        2.402979
  51        2.568064
  52        2.596740
  53        2.899252
  54        3.009009
  55        3.358050
  56        3.900851
  57        6.365945
  58        6.898061
  59        7.575018
  60        8.083365
  61        8.549800
  62        8.798018
  63        9.277232
  64        9.628871
  65        9.931100
  66       10.273894
  67       10.659788
  68       10.926793
  69       10.971529
  70       11.279221
  71       11.519590
  72       11.790262
  73       12.247088
  74       12.547923
  75       13.097794
  76       13.515228
  77       14.295829
  78       14.571634
  79       15.125941
  80       16.265714
 
 -0.2500000E+00 -0.4098284E-16  0.2000000E+00  0.2500000E-01
   1      -68.645570
   2      -68.644965
   3      -68.634181
   4      -68.632451
   5      -68.613348
   6      -68.612702
   7      -68.596115
   8      -68.595495
   9      -68.578605
  10      -68.577499
  11      -68.561586
  12      -68.560855
  13      -12.541012
  14      -11.337057
  15      -10.873939
  16      -10.606302
  17      -10.398059
  18      -10.284919
  19       -5.824783
  20       -4.974600
  21       -2.666154
  22       -2.451870
  23       -2.036726
  24       -1.577083
  25       -1.171289
  26       -0.983486
  27       -0.797469
  28       -0.651547
  29       -0.516075
  30       -0.390365
  31       -0.269575
  32       -0.256386
  33       -0.193113
  34       -0.144418
  35       -0.044161
  36        0.012991
  37        1.290351
  38        1.310370
  39        1.388751
  40        1.408690
  41        1.434296
  42        1.455500
  43        1.492015
  44        1.565365
  45        1.687064
  46        1.915642
  47        1.985851
  48        2.143895
  49        2.335609
  50        2.565902
  51        2.618284
  52        2.826948
  53        2.971903
  54        3.248446
  55        3.683375
  56        3.945315
  57        6.179113
  58        6.639384
  59        7.766505
  60        7.973474
  61        8.214679
  62        8.562153
  63        9.379954
  64        9.578526
  65        9.907491
  66       10.250313
  67       10.544419
  68       10.788796
  69       10.840418
  70       11.069726
  71       11.564973
  72       12.019884
  73       12.527448
  74       12.751253
  75       12.954223
  76       13.308638
  77       13.412587
  78       13.741204
  79       13.848209
  80       14.724590
 
  0.1517883E-17  0.2500000E+00  0.2000000E+00  0.2500000E-01
   1      -68.645519
   2      -68.644903
   3      -68.634192
   4      -68.632459
   5      -68.613378
   6      -68.612742
   7      -68.596087
   8      -68.595465
   9      -68.578598
  10      -68.577490
  11      -68.561526
  12      -68.560806
  13      -12.458172
  14      -11.466443
  15      -10.864502
  16      -10.690306
  17      -10.374369
  18      -10.245168
  19       -5.766726
  20       -4.803718
  21       -2.444560
  22       -2.233594
  23       -1.849959
  24       -1.711772
  25       -1.434479
  26       -1.189100
  27       -0.892795
  28       -0.744070
  29       -0.607098
  30       -0.522006
  31       -0.311713
  32       -0.243004
  33       -0.171940
  34       -0.124029
  35       -0.050571
  36        0.057897
  37        1.302577
  38        1.335785
  39        1.369088
  40        1.431002
  41        1.446179
  42        1.479496
  43        1.520758
  44        1.547081
  45        1.642634
  46        1.870782
  47        1.980932
  48        2.047235
  49        2.194478
  50        2.476091
  51        2.593280
  52        2.838306
  53        2.962707
  54        3.133433
  55        3.569292
  56        3.724997
  57        6.442033
  58        6.957234
  59        8.171073
  60        8.246948
  61        8.833376
  62        9.127638
  63        9.463387
  64        9.796269
  65       10.084242
  66       10.299978
  67       10.740540
  68       11.079039
  69       11.289614
  70       11.423529
  71       11.636455
  72       11.726893
  73       12.087099
  74       12.264484
  75       12.541764
  76       12.655031
  77       12.953838
  78       13.057004
  79       13.655591
  80       14.694587
 
  0.2500000E+00  0.2500000E+00  0.2000000E+00  0.2500000E-01
   1      -68.645426
   2      -68.644815
   3      -68.634049
   4      -68.632301
   5      -68.613215
   6      -68.612585
   7      -68.595956
   8      -68.595353
   9      -68.578474
  10      -68.577358
  11      -68.561460
  12      -68.560688
  13      -12.326202
  14      -11.474895
  15      -10.866342
  16      -10.855079
  17      -10.409491
  18      -10.285524
  19       -5.747745
  20       -4.691562
  21       -2.241738
  22       -2.137471
  23       -1.927724
  24       -1.849869
  25       -1.453782
  26       -1.397949
  27       -1.039376
  28       -0.520320
  29       -0.462199
  30       -0.349799
  31       -0.248986
  32       -0.216984
  33       -0.160991
  34       -0.110402
  35       -0.090282
  36        0.078937
  37        1.261200
  38        1.347277
  39        1.397401
  40        1.434635
  41        1.452703
  42        1.509568
  43        1.535587
  44        1.542957
  45        1.752236
  46        1.817642
  47        2.041313
  48        2.135818
  49        2.285069
  50        2.311423
  51        2.520692
  52        2.768744
  53        2.898253
  54        3.261340
  55        3.498154
  56        3.801131
  57        6.184745
  58        6.840644
  59        7.826348
  60        8.045523
  61        8.190260
  62        8.726535
  63        9.153101
  64        9.306152
  65       10.220156
  66       10.440005
  67       10.592170
  68       11.006773
  69       11.238487
  70       11.488134
  71       11.813799
  72       12.170585
  73       12.209480
  74       12.574594
  75       12.691743
  76       13.114362
  77       13.414933
  78       13.881131
  79       14.003087
  80       14.526560
 
  0.5000000E+00  0.2500000E+00  0.2000000E+00  0.2500000E-01
   1      -68.645311
   2      -68.644661
   3      -68.634118
   4      -68.632464
   5      -68.613094
   6      -68.612751
   7      -68.596017
   8      -68.595426
   9      -68.578420
  10      -68.577465
  11      -68.561340
  12      -68.560744
  13      -12.373193
  14      -11.473338
  15      -10.935975
  16      -10.655617
  17      -10.418036
  18      -10.306535
  19       -5.800602
  20       -4.836641
  21       -2.526733
  22       -2.244099
  23       -1.870216
  24       -1.642089
  25       -1.504601
  26       -1.309166
  27       -0.899901
  28       -0.535587
  29       -0.381308
  30       -0.349860
  31       -0.223869
  32       -0.176865
  33       -0.159864
  34       -0.076738
  35       -0.027958
  36        0.081266
  37        1.189350
  38        1.362998
  39        1.397678
  40        1.442497
  41        1.463124
  42        1.506785
  43        1.518675
  44        1.585250
  45        1.740064
  46        1.817149
  47        2.038786
  48        2.234062
  49        2.269456
  50        2.362859
  51        2.487350
  52        2.670332
  53        3.052098
  54        3.410957
  55        3.728689
  56        3.864889
  57        5.932940
  58        6.613707
  59        7.354139
  60        7.942995
  61        8.066755
  62        8.723740
  63        8.905069
  64        9.138400
  65        9.844121
  66       10.329996
  67       10.555769
  68       10.925554
  69       11.224599
  70       11.416666
  71       11.748609
  72       12.002413
  73       12.495689
  74       12.829509
  75       13.205327
  76       14.183606
  77       14.715648
  78       15.147692
  79       15.911257
  80       16.566028
 
 -0.2500000E+00  0.2500000E+00  0.2000000E+00  0.2500000E-01
   1      -68.645518
   2      -68.644870
   3      -68.634234
   4      -68.632505
   5      -68.613289