 vasp.5.3.3 18Dez12 (build Nov 13 2015 09:58:40) complex                        
  
 executed on             LinuxIFC date 2017.10.18  13:03:59
 running on   48 total cores
 distrk:  each k-point on   16 cores,    3 groups
 distr:  one band on NCORES_PER_BAND=   1 cores,   16 groups


--------------------------------------------------------------------------------------------------------


 INCAR:
 POTCAR:    PAW_PBE Cu_pv 06Sep2000               
 POTCAR:    PAW_PBE Ge 05Jan2001                  
 POTCAR:    PAW_PBE S 17Jan2003                   

 ----------------------------------------------------------------------------- 
|                                                                             |
|           W    W    AA    RRRRR   N    N  II  N    N   GGGG   !!!           |
|           W    W   A  A   R    R  NN   N  II  NN   N  G    G  !!!           |
|           W    W  A    A  R    R  N N  N  II  N N  N  G       !!!           |
|           W WW W  AAAAAA  RRRRR   N  N N  II  N  N N  G  GGG   !            |
|           WW  WW  A    A  R   R   N   NN  II  N   NN  G    G                |
|           W    W  A    A  R    R  N    N  II  N    N   GGGG   !!!           |
|                                                                             |
|      For optimal performance we recommend that you set                      |
|        NPAR = 4 - approx SQRT( number of cores)                             |
|      (number of cores/NPAR must be integer)                                 |
|      This setting will greatly improve the performance of VASP for DFT.     |
|      The default NPAR=number of cores might be grossly inefficient          |
|      on modern multi-core architectures or massively parallel machines.     |
|      Do your own testing.                                                   |
|      Unfortunately you need to use the default for hybrid, GW and RPA       |
|      calculations.                                                          |
|                                                                             |
 ----------------------------------------------------------------------------- 


 ----------------------------------------------------------------------------- 
|                                                                             |
|           W    W    AA    RRRRR   N    N  II  N    N   GGGG   !!!           |
|           W    W   A  A   R    R  NN   N  II  NN   N  G    G  !!!           |
|           W    W  A    A  R    R  N N  N  II  N N  N  G       !!!           |
|           W WW W  AAAAAA  RRRRR   N  N N  II  N  N N  G  GGG   !            |
|           WW  WW  A    A  R   R   N   NN  II  N   NN  G    G                |
|           W    W  A    A  R    R  N    N  II  N    N   GGGG   !!!           |
|                                                                             |
|      You have enabled k-point parallelism (KPAR>1).                         |
|      This developmental code was originally  written by Paul Kent at ORNL,  |
|      and carefully double checked in Vienna.                                |
|      GW as well as linear response parallelism added by Martijn Marsman     |
|      and Georg Kresse.                                                      |
|      Carefully verify results versus KPAR=1.                                |
|      Report problems to Paul Kent and Vienna.                               |
|                                                                             |
 ----------------------------------------------------------------------------- 

 POTCAR:    PAW_PBE Cu_pv 06Sep2000               
   VRHFIN =Cu: d10 p1                                                           
   LEXCH  = PE                                                                  
   EATOM  =  4120.1201 eV,  302.8203 Ry                                         
                                                                                
   TITEL  = PAW_PBE Cu_pv 06Sep2000                                             
   LULTRA =        F    use ultrasoft PP ?                                      
   IUNSCR =        1    unscreen: 0-lin 1-nonlin 2-no                           
   RPACOR =    1.500    partial core radius                                     
   POMASS =   63.546; ZVAL   =   17.000    mass and valenz                      
   RCORE  =    2.000    outmost cutoff radius                                   
   RWIGS  =    2.000; RWIGS  =    1.058    wigner-seitz radius (au A)           
   ENMAX  =  368.648; ENMIN  =  276.486 eV                                      
   RCLOC  =    1.304    cutoff for local pot                                    
   LCOR   =        T    correct aug charges                                     
   LPAW   =        T    paw PP                                                  
   EAUG   =  758.233                                                            
   DEXC   =    0.000                                                            
   RMAX   =    2.046    core radius for proj-oper                               
   RAUG   =    1.300    factor for augmentation sphere                          
   RDEP   =    2.025    radius for radial grids                                 
   RDEPT  =    1.558    core radius for aug-charge                              
                                                                                
   Atomic configuration                                                         
    8 entries                                                                   
     n  l   j            E        occ.                                          
     1  0  0.50     -8850.2467   2.0000                                         
     2  0  0.50     -1062.3498   2.0000                                         
     2  1  1.50      -916.8226   6.0000                                         
     3  0  0.50      -114.6929   2.0000                                         
     3  1  1.50       -72.1325   6.0000                                         
     3  2  2.50        -5.0394  10.0000                                         
     4  0  0.50        -4.6097   1.0000                                         
     4  3  2.50        -1.3606   0.0000                                         
   Description                                                                  
     l       E           TYP  RCUT    TYP  RCUT                                 
     1    -72.1324777     23  1.700                                             
     1     -1.3605826     23  1.700                                             
     2     -5.0393776     23  2.000                                             
     2     -6.3999602     23  2.000                                             
     0     -4.6097062     23  1.800                                             
     0     14.1620818     23  1.800                                             
  local pseudopotential read in
  partial core-charges read in
  partial kinetic energy density read in
  atomic valenz-charges read in
  non local Contribution for L=           1  read in
    real space projection operators read in
  non local Contribution for L=           1  read in
    real space projection operators read in
  non local Contribution for L=           2  read in
    real space projection operators read in
  non local Contribution for L=           2  read in
    real space projection operators read in
  non local Contribution for L=           0  read in
    real space projection operators read in
  non local Contribution for L=           0  read in
    real space projection operators read in
    PAW grid and wavefunctions read in
 
   number of l-projection  operators is LMAX  =           6
   number of lm-projection operators is LMMAX =          18
 
 POTCAR:    PAW_PBE Ge 05Jan2001                  
   VRHFIN =Ge: s2p2                                                             
   LEXCH  = PE                                                                  
   EATOM  =   104.9960 eV,    7.7170 Ry                                         
                                                                                
   TITEL  = PAW_PBE Ge 05Jan2001                                                
   LULTRA =        F    use ultrasoft PP ?                                      
   IUNSCR =        1    unscreen: 0-lin 1-nonlin 2-no                           
   RPACOR =    2.170    partial core radius                                     
   POMASS =   72.610; ZVAL   =    4.000    mass and valenz                      
   RCORE  =    2.300    outmost cutoff radius                                   
   RWIGS  =    2.300; RWIGS  =    1.217    wigner-seitz radius (au A)           
   ENMAX  =  173.807; ENMIN  =  130.355 eV                                      
   ICORE  =        3    local potential                                         
   LCOR   =        T    correct aug charges                                     
   LPAW   =        T    paw PP                                                  
   EAUG   =  385.843                                                            
   DEXC   =    0.000                                                            
   RMAX   =    2.342    core radius for proj-oper                               
   RAUG   =    1.300    factor for augmentation sphere                          
   RDEP   =    2.318    radius for radial grids                                 
   RDEPT  =    2.103    core radius for aug-charge                              
                                                                                
   Atomic configuration                                                         
   10 entries                                                                   
     n  l   j            E        occ.                                          
     1  0  0.50    -10959.8463   2.0000                                         
     2  0  0.50     -1371.6056   2.0000                                         
     2  1  1.50     -1198.4791   6.0000                                         
     3  0  0.50      -168.4733   2.0000                                         
     3  1  1.50      -115.6019   6.0000                                         
     3  2  2.50       -29.3106  10.0000                                         
     4  0  0.50       -11.7309   2.0000                                         
     4  1  0.50        -3.8952   2.0000                                         
     4  2  1.50        -4.0817   0.0000                                         
     4  3  2.50        -4.0817   0.0000                                         
   Description                                                                  
     l       E           TYP  RCUT    TYP  RCUT                                 
     0    -11.7309493     23  2.300                                             
     0     -7.4578696     23  2.300                                             
     1     -3.8952261     23  2.300                                             
     1      6.1178114     23  2.300                                             
     2     -4.0817478     23  2.300                                             
     3     -1.3605826      7  2.300                                             
  local pseudopotential read in
  partial core-charges read in
  partial kinetic energy density read in
  atomic valenz-charges read in
  non local Contribution for L=           0  read in
    real space projection operators read in
  non local Contribution for L=           0  read in
    real space projection operators read in
  non local Contribution for L=           1  read in
    real space projection operators read in
  non local Contribution for L=           1  read in
    real space projection operators read in
  non local Contribution for L=           2  read in
    real space projection operators read in
    PAW grid and wavefunctions read in
 
   number of l-projection  operators is LMAX  =           5
   number of lm-projection operators is LMMAX =          13
 
 POTCAR:    PAW_PBE S 17Jan2003                   
   VRHFIN =S : s2p4                                                             
   LEXCH  = PE                                                                  
   EATOM  =   276.8230 eV,   20.3459 Ry                                         
                                                                                
   TITEL  = PAW_PBE S 17Jan2003                                                 
   LULTRA =        F    use ultrasoft PP ?                                      
   IUNSCR =        1    unscreen: 0-lin 1-nonlin 2-no                           
   RPACOR =    1.500    partial core radius                                     
   POMASS =   32.066; ZVAL   =    6.000    mass and valenz                      
   RCORE  =    1.900    outmost cutoff radius                                   
   RWIGS  =    2.200; RWIGS  =    1.164    wigner-seitz radius (au A)           
   ENMAX  =  280.000; ENMIN  =  194.016 eV                                      
   ICORE  =        2    local potential                                         
   LCOR   =        T    correct aug charges                                     
   LPAW   =        T    paw PP                                                  
   EAUG   =  335.092                                                            
   DEXC   =     .000                                                            
   RMAX   =    2.867    core radius for proj-oper                               
   RAUG   =    1.300    factor for augmentation sphere                          
   RDEP   =    1.954    radius for radial grids                                 
   QCUT   =   -4.360; QGAM   =    8.721    optimization parameters              
                                                                                
   Description                                                                  
     l     E      TYP  RCUT    TYP  RCUT                                        
     0   .000     23  1.900                                                     
     0   .000     23  1.900                                                     
     1   .000     23  1.900                                                     
     1   .000     23  1.900                                                     
     2   .000     23  1.900                                                     
  local pseudopotential read in
  partial core-charges read in
  atomic valenz-charges read in
  non local Contribution for L=           0  read in
    real space projection operators read in
  non local Contribution for L=           0  read in
    real space projection operators read in
  non local Contribution for L=           1  read in
    real space projection operators read in
  non local Contribution for L=           1  read in
    real space projection operators read in
    PAW grid and wavefunctions read in
 
   number of l-projection  operators is LMAX  =           4
   number of lm-projection operators is LMMAX =           8
 
  PAW_PBE Cu_pv 06Sep2000               :
 energy of atom  1       EATOM=-4120.1201
 kinetic energy error for atom=    0.0996 (will be added to EATOM!!)
  PAW_PBE Ge 05Jan2001                  :
 energy of atom  2       EATOM= -104.9960
 kinetic energy error for atom=    0.0003 (will be added to EATOM!!)
  PAW_PBE S 17Jan2003                   :
 energy of atom  3       EATOM= -276.8230
 kinetic energy error for atom=    0.0046 (will be added to EATOM!!)
 
 
 POSCAR: Cu Ge S                                 
  positions in direct lattice
  No initial velocities read in
 exchange correlation table for  LEXCH =        8
   RHO(1)=    0.500       N(1)  =     2000
   RHO(2)=  100.500       N(2)  =     4000
 


--------------------------------------------------------------------------------------------------------


 ion  position               nearest neighbor table
   1  0.618  0.121  0.120-   9 2.29  11 2.29  12 2.30   8 2.35
   2  0.121  0.618  0.620-  12 2.29   7 2.29   9 2.30  10 2.35
   3  0.964  0.790  0.119-  12 2.29  11 2.30   7 2.31   8 2.36
   4  0.790  0.963  0.619-   7 2.30   9 2.30  11 2.31  10 2.36
   5  0.440  0.267  0.599-   7 2.19   9 2.19  10 2.31   8 2.33
   6  0.267  0.440  0.099-  11 2.19  12 2.19   8 2.31  10 2.33
   7  0.079  0.912  0.497-   5 2.19   2 2.29   4 2.30   3 2.31
   8  0.571  0.412  0.980-   6 2.31   5 2.33   1 2.35   3 2.36
   9  0.737  0.250  0.495-   5 2.19   1 2.29   4 2.30   2 2.30
  10  0.412  0.571  0.480-   5 2.31   6 2.33   2 2.35   4 2.36
  11  0.912  0.079  0.997-   6 2.19   1 2.29   3 2.30   4 2.31
  12  0.250  0.737  0.995-   6 2.19   3 2.29   2 2.29   1 2.30
 
  Warning from LATTYP: Got some problem with cell dimensions!
  Tried to take original basis but could not verify dimensions!
  LATTYP: Found a base centered monoclinic cell.
 ALAT       =     6.4499010947
 B/A-ratio  =     1.7500516418
 C/A-ratio  =     1.9305142024
 COS(beta)  =    -0.4326083233
  
  Lattice vectors:
  
 A1 = (   3.2247960000,   5.6438300000,   0.0315720000)
 A2 = (   3.2247960000,  -5.6438300000,   0.0315720000)
 A3 = ( -10.7972380000,   0.0000000000,  -6.2018250000)


Analysis of symmetry for initial positions (statically):
=====================================================================
 Subroutine PRICEL returns:
 Original cell was already a primitive cell.
 

 Routine SETGRP: Setting up the symmetry group for a 
 base centered monoclinic supercell.


 Subroutine GETGRP returns: Found  1 space group operations
 (whereof  1 operations were pure point group operations)
 out of a pool of  4 trial point group operations.


The static configuration has the point symmetry C_1 .


Analysis of symmetry for dynamics (positions and initial velocities):
=====================================================================
 Subroutine PRICEL returns:
 Original cell was already a primitive cell.
 

 Routine SETGRP: Setting up the symmetry group for a 
 base centered monoclinic supercell.


 Subroutine GETGRP returns: Found  1 space group operations
 (whereof  1 operations were pure point group operations)
 out of a pool of  4 trial point group operations.


The dynamic configuration has the point symmetry C_1 .


 irot  :   1
 --------------------------------------------------------------------
 isymop:   1   0   0
           0   1   0
           0   0   1

 gtrans:     0.0000000     0.0000000     0.0000000

 ptrans:     0.0000000     0.0000000     0.0000000
 rotmap:
 (   1->   1)  (   2->   2)  (   3->   3)  (   4->   4)  (   5->   5) 
 (   6->   6)  (   7->   7)  (   8->   8)  (   9->   9)  (  10->  10) 
 (  11->  11)  (  12->  12) 
 
 
 KPOINTS: pymatgen 4.7.6+ generated KPOINTS with g

Automatic generation of k-mesh.
Space group operators:
 irot       det(A)        alpha          n_x          n_y          n_z        tau_x        tau_y        tau_z
    1     1.000000     0.000000     1.000000     0.000000     0.000000     0.000000     0.000000     0.000000
 
 Subroutine IBZKPT returns following result:
 ===========================================
 
 Found     42 irreducible k-points:
 
 Following reciprocal coordinates:
            Coordinates               Weight
  0.000000  0.000000  0.000000      1.000000
  0.250000  0.000000  0.000000      2.000000
  0.500000  0.000000  0.000000      1.000000
  0.000000  0.250000  0.000000      2.000000
  0.250000  0.250000  0.000000      2.000000
  0.500000  0.250000 -0.000000      2.000000
 -0.250000  0.250000  0.000000      2.000000
  0.000000  0.500000  0.000000      1.000000
  0.250000  0.500000 -0.000000      2.000000
  0.500000  0.500000  0.000000      1.000000
 -0.000000 -0.000000  0.200000      2.000000
  0.250000  0.000000  0.200000      2.000000
  0.500000  0.000000  0.200000      2.000000
 -0.250000 -0.000000  0.200000      2.000000
  0.000000  0.250000  0.200000      2.000000
  0.250000  0.250000  0.200000      2.000000
  0.500000  0.250000  0.200000      2.000000
 -0.250000  0.250000  0.200000      2.000000
  0.000000  0.500000  0.200000      2.000000
  0.250000  0.500000  0.200000      2.000000
  0.500000  0.500000  0.200000      2.000000
 -0.250000  0.500000  0.200000      2.000000
 -0.000000 -0.250000  0.200000      2.000000
  0.250000 -0.250000  0.200000      2.000000
  0.500000 -0.250000  0.200000      2.000000
 -0.250000 -0.250000  0.200000      2.000000
 -0.000000 -0.000000  0.400000      2.000000
  0.250000  0.000000  0.400000      2.000000
  0.500000  0.000000  0.400000      2.000000
 -0.250000  0.000000  0.400000      2.000000
  0.000000  0.250000  0.400000      2.000000
  0.250000  0.250000  0.400000      2.000000
  0.500000  0.250000  0.400000      2.000000
 -0.250000  0.250000  0.400000      2.000000
  0.000000  0.500000  0.400000      2.000000
  0.250000  0.500000  0.400000      2.000000
  0.500000  0.500000  0.400000      2.000000
 -0.250000  0.500000  0.400000      2.000000
  0.000000 -0.250000  0.400000      2.000000
  0.250000 -0.250000  0.400000      2.000000
  0.500000 -0.250000  0.400000      2.000000
 -0.250000 -0.250000  0.400000      2.000000
 
 Following cartesian coordinates:
            Coordinates               Weight
  0.000000  0.000000  0.000000      1.000000
  0.038631 -0.022148  0.013365      2.000000
  0.077263 -0.044296  0.026730      1.000000
  0.038631  0.022148  0.013365      2.000000
  0.077263  0.000000  0.026730      2.000000
  0.115894 -0.022148  0.040096      2.000000
  0.000000  0.044296  0.000000      2.000000
  0.077263  0.044296  0.026730      1.000000
  0.115894  0.022148  0.040096      2.000000
  0.154525  0.000000  0.053461      1.000000
 -0.000321  0.000000  0.032808      2.000000
  0.038310 -0.022148  0.046173      2.000000
  0.076941 -0.044296  0.059538      2.000000
 -0.038952  0.022148  0.019443      2.000000
  0.038310  0.022148  0.046173      2.000000
  0.076941  0.000000  0.059538      2.000000
  0.115573 -0.022148  0.072903      2.000000
 -0.000321  0.044296  0.032808      2.000000
  0.076941  0.044296  0.059538      2.000000
  0.115573  0.022148  0.072903      2.000000
  0.154204  0.000000  0.086269      2.000000
  0.038310  0.066444  0.046173      2.000000
 -0.038952 -0.022148  0.019443      2.000000
 -0.000321 -0.044296  0.032808      2.000000
  0.038310 -0.066444  0.046173      2.000000
 -0.077584  0.000000  0.006077      2.000000
 -0.000642  0.000000  0.065616      2.000000
  0.037989 -0.022148  0.078981      2.000000
  0.076620 -0.044296  0.092346      2.000000
 -0.039274  0.022148  0.052250      2.000000
  0.037989  0.022148  0.078981      2.000000
  0.076620  0.000000  0.092346      2.000000
  0.115251 -0.022148  0.105711      2.000000
 -0.000642  0.044296  0.065616      2.000000
  0.076620  0.044296  0.092346      2.000000
  0.115251  0.022148  0.105711      2.000000
  0.153883  0.000000  0.119076      2.000000
  0.037989  0.066444  0.078981      2.000000
 -0.039274 -0.022148  0.052250      2.000000
 -0.000642 -0.044296  0.065616      2.000000
  0.037989 -0.066444  0.078981      2.000000
 -0.077905  0.000000  0.038885      2.000000
 
 
 Subroutine IBZKPT_HF returns following result:
 ==============================================
 
 Found     80 k-points in 1st BZ
 the following     80 k-points will be used (e.g. in the exchange kernel)
 Following reciprocal coordinates:   # in IRBZ
  0.000000  0.000000  0.000000       1 t-inv F
  0.250000  0.000000  0.000000       2 t-inv F
  0.500000  0.000000  0.000000       3 t-inv F
  0.000000  0.250000  0.000000       4 t-inv F
  0.250000  0.250000  0.000000       5 t-inv F
  0.500000  0.250000 -0.000000       6 t-inv F
 -0.250000  0.250000  0.000000       7 t-inv F
  0.000000  0.500000  0.000000       8 t-inv F
  0.250000  0.500000 -0.000000       9 t-inv F
  0.500000  0.500000  0.000000      10 t-inv F
 -0.000000 -0.000000  0.200000      11 t-inv F
  0.250000  0.000000  0.200000      12 t-inv F
  0.500000  0.000000  0.200000      13 t-inv F
 -0.250000 -0.000000  0.200000      14 t-inv F
  0.000000  0.250000  0.200000      15 t-inv F
  0.250000  0.250000  0.200000      16 t-inv F
  0.500000  0.250000  0.200000      17 t-inv F
 -0.250000  0.250000  0.200000      18 t-inv F
  0.000000  0.500000  0.200000      19 t-inv F
  0.250000  0.500000  0.200000      20 t-inv F
  0.500000  0.500000  0.200000      21 t-inv F
 -0.250000  0.500000  0.200000      22 t-inv F
 -0.000000 -0.250000  0.200000      23 t-inv F
  0.250000 -0.250000  0.200000      24 t-inv F
  0.500000 -0.250000  0.200000      25 t-inv F
 -0.250000 -0.250000  0.200000      26 t-inv F
 -0.000000 -0.000000  0.400000      27 t-inv F
  0.250000  0.000000  0.400000      28 t-inv F
  0.500000  0.000000  0.400000      29 t-inv F
 -0.250000  0.000000  0.400000      30 t-inv F
  0.000000  0.250000  0.400000      31 t-inv F
  0.250000  0.250000  0.400000      32 t-inv F
  0.500000  0.250000  0.400000      33 t-inv F
 -0.250000  0.250000  0.400000      34 t-inv F
  0.000000  0.500000  0.400000      35 t-inv F
  0.250000  0.500000  0.400000      36 t-inv F
  0.500000  0.500000  0.400000      37 t-inv F
 -0.250000  0.500000  0.400000      38 t-inv F
  0.000000 -0.250000  0.400000      39 t-inv F
  0.250000 -0.250000  0.400000      40 t-inv F
  0.500000 -0.250000  0.400000      41 t-inv F
 -0.250000 -0.250000  0.400000      42 t-inv F
 -0.250000 -0.000000 -0.000000       2 t-inv T
 -0.000000 -0.250000 -0.000000       4 t-inv T
 -0.250000 -0.250000  0.000000       5 t-inv T
 -0.500000 -0.250000  0.000000       6 t-inv T
  0.250000 -0.250000  0.000000       7 t-inv T
 -0.250000 -0.500000  0.000000       9 t-inv T
  0.000000  0.000000 -0.200000      11 t-inv T
 -0.250000 -0.000000 -0.200000      12 t-inv T
 -0.500000 -0.000000 -0.200000      13 t-inv T
  0.250000  0.000000 -0.200000      14 t-inv T
 -0.000000 -0.250000 -0.200000      15 t-inv T
 -0.250000 -0.250000 -0.200000      16 t-inv T
 -0.500000 -0.250000 -0.200000      17 t-inv T
  0.250000 -0.250000 -0.200000      18 t-inv T
 -0.000000 -0.500000 -0.200000      19 t-inv T
 -0.250000 -0.500000 -0.200000      20 t-inv T
 -0.500000 -0.500000 -0.200000      21 t-inv T
  0.250000 -0.500000 -0.200000      22 t-inv T
  0.000000  0.250000 -0.200000      23 t-inv T
 -0.250000  0.250000 -0.200000      24 t-inv T
 -0.500000  0.250000 -0.200000      25 t-inv T
  0.250000  0.250000 -0.200000      26 t-inv T
  0.000000  0.000000 -0.400000      27 t-inv T
 -0.250000 -0.000000 -0.400000      28 t-inv T
 -0.500000 -0.000000 -0.400000      29 t-inv T
  0.250000 -0.000000 -0.400000      30 t-inv T
 -0.000000 -0.250000 -0.400000      31 t-inv T
 -0.250000 -0.250000 -0.400000      32 t-inv T
 -0.500000 -0.250000 -0.400000      33 t-inv T
  0.250000 -0.250000 -0.400000      34 t-inv T
 -0.000000 -0.500000 -0.400000      35 t-inv T
 -0.250000 -0.500000 -0.400000      36 t-inv T
 -0.500000 -0.500000 -0.400000      37 t-inv T
  0.250000 -0.500000 -0.400000      38 t-inv T
 -0.000000  0.250000 -0.400000      39 t-inv T
 -0.250000  0.250000 -0.400000      40 t-inv T
 -0.500000  0.250000 -0.400000      41 t-inv T
  0.250000  0.250000 -0.400000      42 t-inv T


--------------------------------------------------------------------------------------------------------




 Dimension of arrays:
   k-points           NKPTS =     42   k-points in BZ     NKDIM =     80   number of bands    NBANDS=     80
   number of dos      NEDOS =    301   number of ions     NIONS =     12
   non local maximal  LDIM  =      6   non local SUM 2l+1 LMDIM =     18
   total plane-waves  NPLWV =  32768
   max r-space proj   IRMAX =      1   max aug-charges    IRDMAX=   8224
   dimension x,y,z NGX =    32 NGY =   32 NGZ =   32
   dimension x,y,z NGXF=    64 NGYF=   64 NGZF=   64
   support grid    NGXF=    64 NGYF=   64 NGZF=   64
   ions per type =               4   2   6
 NGX,Y,Z   is equivalent  to a cutoff of   8.18,  8.18,  8.27 a.u.
 NGXF,Y,Z  is equivalent  to a cutoff of  16.37, 16.37, 16.55 a.u.


 I would recommend the setting:
   dimension x,y,z NGX =    32 NGY =   32 NGZ =   31
 SYSTEM =  CGS                                     
 POSCAR =  Cu Ge S                                 

 Startparameter for this run:
   NWRITE =      2    write-flag & timer
   PREC   = normal    normal or accurate (medium, high low for compatibility)
   ISTART =      1    job   : 0-new  1-cont  2-samecut
   ICHARG =      0    charge: 1-file 2-atom 10-const
   ISPIN  =      1    spin polarized calculation?
   LNONCOLLINEAR =      F non collinear calculations
   LSORBIT =      F    spin-orbit coupling
   INIWAV =      1    electr: 0-lowe 1-rand  2-diag
   LASPH  =      F    aspherical Exc in radial PAW
   METAGGA=      F    non-selfconsistent MetaGGA calc.

 Electronic Relaxation 1
   ENCUT  =  400.0 eV  29.40 Ry    5.42 a.u.  10.60 10.60 10.48*2*pi/ulx,y,z
   ENINI  =  400.0     initial cutoff
   ENAUG  =  758.2 eV  augmentation charge cutoff
   NELM   =     60;   NELMIN=  2; NELMDL=  0     # of ELM steps 
   EDIFF  = 0.1E-04   stopping-criterion for ELM
   LREAL  =      F    real-space projection
   NLSPLINE    = F    spline interpolate recip. space projectors
   LCOMPAT=      F    compatible to vasp.4.4
   GGA_COMPAT  = T    GGA compatible to vasp.4.4-vasp.4.6
   LMAXPAW     = -100 max onsite density
   LMAXMIX     =    2 max onsite mixed and CHGCAR
   VOSKOWN=      0    Vosko Wilk Nusair interpolation
   ROPT   =    0.00000   0.00000   0.00000
 Ionic relaxation
   EDIFFG = 0.1E-03   stopping-criterion for IOM
   NSW    =      0    number of steps for IOM
   NBLOCK =      1;   KBLOCK =      1    inner block; outer block 
   IBRION =     -1    ionic relax: 0-MD 1-quasi-New 2-CG
   NFREE  =      0    steps in history (QN), initial steepest desc. (CG)
   ISIF   =      0    stress and relaxation
   IWAVPR =     10    prediction:  0-non 1-charg 2-wave 3-comb
   ISYM   =      3    0-nonsym 1-usesym 2-fastsym
   LCORR  =      T    Harris-Foulkes like correction to forces

   POTIM  = 0.5000    time-step for ionic-motion
   TEIN   =    0.0    initial temperature
   TEBEG  =    0.0;   TEEND  =   0.0 temperature during run
   SMASS  =  -3.00    Nose mass-parameter (am)
   estimated Nose-frequenzy (Omega)   =  0.10E-29 period in steps =****** mass=  -0.966E-27a.u.
   SCALEE = 1.0000    scale energy and forces
   NPACO  =    256;   APACO  = 16.0  distance and # of slots for P.C.
   PSTRESS=    0.0 pullay stress

  Mass of Ions in am
   POMASS =  63.55 72.61 32.07
  Ionic Valenz
   ZVAL   =  17.00  4.00  6.00
  Atomic Wigner-Seitz radii
   RWIGS  =  -1.00 -1.00 -1.00
  virtual crystal weights 
   VCA    =   1.00  1.00  1.00
   NELECT =     112.0000    total number of electrons
   NUPDOWN=      -1.0000    fix difference up-down

 DOS related values:
   EMIN   =  10.00;   EMAX   =-10.00  energy-range for DOS
   EFERMI =   0.00
   ISMEAR =     1;   SIGMA  =   0.10  broadening in eV -4-tet -1-fermi 0-gaus

 Electronic relaxation 2 (details)
   IALGO  =     53    algorithm
   LDIAG  =      T    sub-space diagonalisation (order eigenvalues)
   LSUBROT=      T    optimize rotation matrix (better conditioning)
   TURBO    =      0    0=normal 1=particle mesh
   IRESTART =      0    0=no restart 2=restart with 2 vectors
   NREBOOT  =      0    no. of reboots
   NMIN     =      0    reboot dimension
   EREF     =   0.00    reference energy to select bands
   IMIX   =      4    mixing-type and parameters
     AMIX     =   0.40;   BMIX     =  1.00
     AMIX_MAG =   1.60;   BMIX_MAG =  1.00
     AMIN     =   0.10
     WC   =   100.;   INIMIX=   1;  MIXPRE=   1;  MAXMIX= -45

 Intra band minimization:
   WEIMIN = 0.0000     energy-eigenvalue tresh-hold
   EBREAK =  0.31E-07  absolut break condition
   DEPER  =   0.30     relativ break condition  

   TIME   =   0.40     timestep for ELM

  volume/ion in A,a.u.               =      18.49       124.79
  Fermi-wavevector in a.u.,A,eV,Ry     =   1.303450  2.463163 23.116052  1.698982
  Thomas-Fermi vector in A             =   2.434451
 
 Write flags
   LWAVE  =      T    write WAVECAR
   LCHARG =      T    write CHGCAR
   LVTOT  =      F    write LOCPOT, total local potential
   LVHAR  =      F    write LOCPOT, Hartree potential only
   LELF   =      F    write electronic localiz. function (ELF)
   LORBIT =      0    0 simple, 1 ext, 2 COOP (PROOUT)


 Dipole corrections
   LMONO  =      F    monopole corrections only (constant potential shift)
   LDIPOL =      F    correct potential (dipole corrections)
   IDIPOL =      0    1-x, 2-y, 3-z, 4-all directions 
   EPSILON=  1.0000000 bulk dielectric constant

 Exchange correlation treatment:
   GGA     =    PE    GGA type
   LEXCH   =     8    internal setting for exchange type
   VOSKOWN=      0    Vosko Wilk Nusair interpolation
   EXXOEP  =     0    0=HF, 1=EXX-LHF (local Hartree Fock) 2=EXX OEP
   LHFCALC =     T    Hartree Fock is set to
   LSYMGRAD=     F    symmetrize gradient (conserves proper symmetry)
   PRECFOCK=fast      Normal, Fast or Accurate (Low or Medium for compatibility)
   LRHFCALC=     F    long range Hartree Fock
   LRSCOR  =     F    long range correlation only (use DFT for short range part)
   LTHOMAS =     F    Thomas Fermi screening in HF
   LMODELHF=     F    short range full HF, long range fraction AEXX
   ENCUT4O =  -1.0   cutoff for four orbital integrals eV
   LMAXFOCK=     4    L truncation for augmentation on plane wave grid
   LMAXFOCKAE=  -1    L truncation for all-electron charge restoration on plane wave grid
   NMAXFOCKAE=   1    number of basis functions for all-electron charge restoration
   LFOCKAEDFT=     F  apply the AE augmentation even for DFT
   NKREDX  =     1    reduce k-point grid by
   NKREDY  =     1    reduce k-point grid by
   NKREDZ  =     1    reduce k-point grid by
   SHIFTRED=     F    shift reduced grid of Gamma
   HFKIDENT=     F    idential grid for each k-point
   ODDONLY =     F    use only odd q-grid points
   EVENONLY=     F    use only even q-grid points
   HFALPHA =   -1.0000 decay constant for conv. correction
   MCALPHA =    0.0000 extent of test-charge in conv. correction in multipole expansion
   AEXX    =    0.2500 exact exchange contribution
   HFSCREEN=    0.2000 screening length (either q_TF or 0.3 A-1)
   HFSCREENC=   0.2000 screening length for correlation (either q_TF or 0.3 A-1)
   HFRCUT  =    0.0000 spherical cutoff for potential kernel
   ALDAX   =    0.7500 LDA exchange part
   AGGAX   =    0.7500 GGA exchange part
   ALDAC   =    1.0000 LDA correlation
   AGGAC   =    1.0000 GGA correlation
   NBANDSGWLOW=     1    first orbital included in HF term
 Linear response parameters
   LEPSILON=     F    determine dielectric tensor
   LRPA    =     F    only Hartree local field effects (RPA)
   LNABLA  =     F    use nabla operator in PAW spheres
   LVEL    =     F    velocity operator in full k-point grid
   LINTERFAST=   F  fast interpolation
   KINTER  =     0    interpolate to denser k-point grid
   CSHIFT  =0.1000    complex shift for real part using Kramers Kronig
   OMEGAMAX=  -1.0    maximum frequency
   DEG_THRESHOLD= 0.2000000E-02 threshold for treating states as degnerate
   RTIME   =    0.100 relaxation time in fs

 Orbital magnetization related:
   ORBITALMAG=     F  switch on orbital magnetization
   LCHIMAG   =     F  perturbation theory with respect to B field
   DQ        =  0.001000  dq finite difference perturbation B field



--------------------------------------------------------------------------------------------------------


 Static calculation
 charge density and potential will be updated during run
 non-spin polarized calculation
 Conjugate gradient for all bands, subspace preconditioning
 perform sub-space diagonalisation
    before iterative eigenvector-optimisation
 modified Broyden-mixing scheme, WC =      100.0
 initial mixing is a Kerker type mixing with AMIX =  0.4000 and BMIX =      1.0000
 Hartree-type preconditioning will be used
 using additional bands           24
 reciprocal scheme for non local part
 use partial core corrections
 no Harris-corrections to forces 
 use gradient corrections 
 use of overlap-Matrix (Vanderbilt PP)
 Methfessel and Paxton  Order N= 1 SIGMA  =   0.10


--------------------------------------------------------------------------------------------------------


  energy-cutoff  :      400.00
  volume of cell :      221.90
      direct lattice vectors                 reciprocal lattice vectors
     3.224796000 -5.643830000  0.031572000     0.154525165 -0.088592321  0.053460880
     3.224796000  5.643830000  0.031572000     0.154525165  0.088592321  0.053460880
    -2.101946000  0.000000000  6.075537000    -0.001606004  0.000000000  0.164038877

  length of vectors
     6.500240234  6.500240234  6.428866683     0.185969598  0.185969598  0.164046738


 
 old parameters found on file WAVECAR:
  energy-cutoff  :      400.00
  volume of cell :      222.35
      direct lattice vectors                 reciprocal lattice vectors
     3.227235519 -5.642745207  0.030241751     0.154430495 -0.088609353  0.053450002
     3.227235519  5.642745207  0.030241751     0.154430495  0.088609353  0.053450002
    -2.106135241  0.000000000  6.085154262    -0.001534965  0.000000000  0.163803104

  length of vectors

 
 k-points in units of 2pi/SCALE and weight: pymatgen 4.7.6+ generated KPOINTS with g
   0.00000000  0.00000000  0.00000000       0.013
   0.03863129 -0.02214808  0.01336522       0.025
   0.07726258 -0.04429616  0.02673044       0.013
   0.03863129  0.02214808  0.01336522       0.025
   0.07726258  0.00000000  0.02673044       0.025
   0.11589387 -0.02214808  0.04009566       0.025
   0.00000000  0.04429616  0.00000000       0.025
   0.07726258  0.04429616  0.02673044       0.013
   0.11589387  0.02214808  0.04009566       0.025
   0.15452516  0.00000000  0.05346088       0.013
  -0.00032120  0.00000000  0.03280778       0.025
   0.03831009 -0.02214808  0.04617300       0.025
   0.07694138 -0.04429616  0.05953822       0.025
  -0.03895249  0.02214808  0.01944256       0.025
   0.03831009  0.02214808  0.04617300       0.025
   0.07694138  0.00000000  0.05953822       0.025
   0.11557267 -0.02214808  0.07290344       0.025
  -0.00032120  0.04429616  0.03280778       0.025
   0.07694138  0.04429616  0.05953822       0.025
   0.11557267  0.02214808  0.07290344       0.025
   0.15420396  0.00000000  0.08626865       0.025
   0.03831009  0.06644424  0.04617300       0.025
  -0.03895249 -0.02214808  0.01944256       0.025
  -0.00032120 -0.04429616  0.03280778       0.025
   0.03831009 -0.06644424  0.04617300       0.025
  -0.07758378  0.00000000  0.00607734       0.025
  -0.00064240  0.00000000  0.06561555       0.025
   0.03798889 -0.02214808  0.07898077       0.025
   0.07662018 -0.04429616  0.09234599       0.025
  -0.03927369  0.02214808  0.05225033       0.025
   0.03798889  0.02214808  0.07898077       0.025
   0.07662018  0.00000000  0.09234599       0.025
   0.11525147 -0.02214808  0.10571121       0.025
  -0.00064240  0.04429616  0.06561555       0.025
   0.07662018  0.04429616  0.09234599       0.025
   0.11525147  0.02214808  0.10571121       0.025
   0.15388276  0.00000000  0.11907643       0.025
   0.03798889  0.06644424  0.07898077       0.025
  -0.03927369 -0.02214808  0.05225033       0.025
  -0.00064240 -0.04429616  0.06561555       0.025
   0.03798889 -0.06644424  0.07898077       0.025
  -0.07790498  0.00000000  0.03888511       0.025
 
 k-points in reciprocal lattice and weights: pymatgen 4.7.6+ generated KPOINTS with g
   0.00000000  0.00000000  0.00000000       0.013
   0.25000000  0.00000000  0.00000000       0.025
   0.50000000  0.00000000  0.00000000       0.013
   0.00000000  0.25000000  0.00000000       0.025
   0.25000000  0.25000000  0.00000000       0.025
   0.50000000  0.25000000 -0.00000000       0.025
  -0.25000000  0.25000000  0.00000000       0.025
   0.00000000  0.50000000  0.00000000       0.013
   0.25000000  0.50000000 -0.00000000       0.025
   0.50000000  0.50000000  0.00000000       0.013
  -0.00000000 -0.00000000  0.20000000       0.025
   0.25000000  0.00000000  0.20000000       0.025
   0.50000000  0.00000000  0.20000000       0.025
  -0.25000000 -0.00000000  0.20000000       0.025
   0.00000000  0.25000000  0.20000000       0.025
   0.25000000  0.25000000  0.20000000       0.025
   0.50000000  0.25000000  0.20000000       0.025
  -0.25000000  0.25000000  0.20000000       0.025
   0.00000000  0.50000000  0.20000000       0.025
   0.25000000  0.50000000  0.20000000       0.025
   0.50000000  0.50000000  0.20000000       0.025
  -0.25000000  0.50000000  0.20000000       0.025
  -0.00000000 -0.25000000  0.20000000       0.025
   0.25000000 -0.25000000  0.20000000       0.025
   0.50000000 -0.25000000  0.20000000       0.025
  -0.25000000 -0.25000000  0.20000000       0.025
  -0.00000000 -0.00000000  0.40000000       0.025
   0.25000000  0.00000000  0.40000000       0.025
   0.50000000  0.00000000  0.40000000       0.025
  -0.25000000  0.00000000  0.40000000       0.025
   0.00000000  0.25000000  0.40000000       0.025
   0.25000000  0.25000000  0.40000000       0.025
   0.50000000  0.25000000  0.40000000       0.025
  -0.25000000  0.25000000  0.40000000       0.025
   0.00000000  0.50000000  0.40000000       0.025
   0.25000000  0.50000000  0.40000000       0.025
   0.50000000  0.50000000  0.40000000       0.025
  -0.25000000  0.50000000  0.40000000       0.025
   0.00000000 -0.25000000  0.40000000       0.025
   0.25000000 -0.25000000  0.40000000       0.025
   0.50000000 -0.25000000  0.40000000       0.025
  -0.25000000 -0.25000000  0.40000000       0.025
 
 position of ions in fractional coordinates (direct lattice) 
   0.61844300  0.12117100  0.11953300
   0.12117100  0.61844300  0.61953300
   0.96449540  0.79032200  0.11881300
   0.79032200  0.96295700  0.61881300
   0.43973200  0.26728100  0.59904700
   0.26728100  0.43973200  0.09904700
   0.07949800  0.91167500  0.49736300
   0.57140300  0.41236400  0.98018400
   0.73711100  0.25006200  0.49504900
   0.41236400  0.57140300  0.48018400
   0.91167500  0.07949800  0.99736300
   0.25006200  0.73711100  0.99504900
 
 position of ions in cartesian coordinates  (Angst):
   2.13385236 -2.80651863  0.74957826
   1.08287936  2.80651863  3.78734676
   5.40918964 -0.98300509  0.77725587
   4.35325560  0.97432259  3.81497580
   1.02080825 -0.97328413  3.66185403
   2.07178125  0.97328413  0.62408553
   2.15090056  4.69666552  3.05304062
   1.11215405 -0.89758908  5.98620365
   2.14286528 -2.74882176  3.03885554
   2.16312705  0.89758908  2.94843515
   1.09992756 -4.69666552  6.09080912
   1.09189228  2.74882176  6.07662404
 


--------------------------------------------------------------------------------------------------------


 k-point  1 :   0.0000 0.0000 0.0000  plane waves:    4051
 k-point  2 :   0.2500 0.0000 0.0000  plane waves:    4032
 k-point  3 :   0.5000 0.0000 0.0000  plane waves:    4030
 k-point  4 :   0.0000 0.2500 0.0000  plane waves:    4032
 k-point  5 :   0.2500 0.2500 0.0000  plane waves:    4038
 k-point  6 :   0.5000 0.2500-0.0000  plane waves:    4037
 k-point  7 :  -0.2500 0.2500 0.0000  plane waves:    4042
 k-point  8 :   0.0000 0.5000 0.0000  plane waves:    4030
 k-point  9 :   0.2500 0.5000-0.0000  plane waves:    4037
 k-point 10 :   0.5000 0.5000 0.0000  plane waves:    4026
 k-point 11 :  -0.0000-0.0000 0.2000  plane waves:    4046
 k-point 12 :   0.2500 0.0000 0.2000  plane waves:    4034
 k-point 13 :   0.5000 0.0000 0.2000  plane waves:    4025
 k-point 14 :  -0.2500-0.0000 0.2000  plane waves:    4044
 k-point 15 :   0.0000 0.2500 0.2000  plane waves:    4034
 k-point 16 :   0.2500 0.2500 0.2000  plane waves:    4017
 k-point 17 :   0.5000 0.2500 0.2000  plane waves:    4039
 k-point 18 :  -0.2500 0.2500 0.2000  plane waves:    4042
 k-point 19 :   0.0000 0.5000 0.2000  plane waves:    4025
 k-point 20 :   0.2500 0.5000 0.2000  plane waves:    4039
 k-point 21 :   0.5000 0.5000 0.2000  plane waves:    4030
 k-point 22 :  -0.2500 0.5000 0.2000  plane waves:    4030
 k-point 23 :  -0.0000-0.2500 0.2000  plane waves:    4044
 k-point 24 :   0.2500-0.2500 0.2000  plane waves:    4042
 k-point 25 :   0.5000-0.2500 0.2000  plane waves:    4030
 k-point 26 :  -0.2500-0.2500 0.2000  plane waves:    4020
 k-point 27 :  -0.0000-0.0000 0.4000  plane waves:    4027
 k-point 28 :   0.2500 0.0000 0.4000  plane waves:    4034
 k-point 29 :   0.5000 0.0000 0.4000  plane waves:    4013
 k-point 30 :  -0.2500 0.0000 0.4000  plane waves:    4042
 k-point 31 :   0.0000 0.2500 0.4000  plane waves:    4034
 k-point 32 :   0.2500 0.2500 0.4000  plane waves:    4009
 k-point 33 :   0.5000 0.2500 0.4000  plane waves:    4026
 k-point 34 :  -0.2500 0.2500 0.4000  plane waves:    4027
 k-point 35 :   0.0000 0.5000 0.4000  plane waves:    4013
 k-point 36 :   0.2500 0.5000 0.4000  plane waves:    4026
 k-point 37 :   0.5000 0.5000 0.4000  plane waves:    4037
 k-point 38 :  -0.2500 0.5000 0.4000  plane waves:    4022
 k-point 39 :   0.0000-0.2500 0.4000  plane waves:    4042
 k-point 40 :   0.2500-0.2500 0.4000  plane waves:    4027
 k-point 41 :   0.5000-0.2500 0.4000  plane waves:    4022
 k-point 42 :  -0.2500-0.2500 0.4000  plane waves:    4015

 maximum and minimum number of plane-waves per node :      4051     4009

 maximum number of plane-waves:      4051
 maximum index in each direction: 
   IXMAX=   10   IYMAX=   10   IZMAX=   10
   IXMIN=  -11   IYMIN=  -11   IZMIN=  -10

 WARNING: aliasing errors must be expected set NGX to  44 to avoid them
 WARNING: aliasing errors must be expected set NGY to  44 to avoid them
 WARNING: aliasing errors must be expected set NGZ to  42 to avoid them
 aliasing errors are usually negligible using standard VASP settings
 and one can safely disregard these warnings

 serial   3D FFT for wavefunctions
 parallel 3D FFT for charge:
    minimum data exchange during FFTs selected (reduces bandwidth)


 FFT grid for exact exchange (Hartree Fock) 
  NGX = 24; NGY = 24; NGZ = 24

 
 Radii for the augmentation spheres in the non-local exchange
 for species   1 augmentation radius   1.120 (default was   0.830)
       energy cutoff for augmentation   1600.0
 for species   2 augmentation radius   1.570 (default was   1.163)
       energy cutoff for augmentation   1600.0
 for species   3 augmentation radius   1.034 (default was   0.970)
       energy cutoff for augmentation   1600.0

 total amount of memory used by VASP on root node   151697. kBytes
========================================================================

   base      :      30000. kBytes
   nonl-proj :      74517. kBytes
   fftplans  :        702. kBytes
   grid      :       2400. kBytes
   one-center:        186. kBytes
   HF        :        194. kBytes
   nonlr-proj:       1122. kBytes
   wavefun   :      42576. kBytes
 
 Broyden mixing: mesh for mixing (old mesh)
   NGX = 21   NGY = 21   NGZ = 21
  (NGX  = 64   NGY  = 64   NGZ  = 64)
  gives a total of   9261 points

 charge density for first step will be calculated from the start-wavefunctions


--------------------------------------------------------------------------------------------------------


 Maximum index for augmentation-charges          485 (set IRDMAX)


--------------------------------------------------------------------------------------------------------


 initial charge from wavefunction
 First call to EWALD:  gamma=   0.293
 Maximum number of real-space cells 3x 3x 3
 Maximum number of reciprocal cells 3x 3x 3

 FEWALD executed in parallel
    FEWALD:  cpu time    0.00: real time    0.00


----------------------------------------- Iteration    1(   1)  ---------------------------------------


    POTLOK:  cpu time    0.07: real time    0.07
    SETDIJ:  cpu time    2.20: real time    2.20
 
    SUBROT:  cpu time    0.75: real time    0.76
    SUBROT:  cpu time    0.36: real time    0.36
    SUBROT:  cpu time    0.35: real time    0.35
    --------------------------------------------
    SUBRT+:  cpu time    1.45: real time    1.48

 Broyden mixing:
  rms(total) = 0.27912E-01    rms(broyden)= 0.27896E-01
  rms(prec ) = 0.43303E-01
  weight for this iteration     100.00

 eigenvalues of (default mixing * dielectric matrix)
  average eigenvalue GAMMA=   1.7215
  0.9903  2.4527
 
    TRIAL :  cpu time  264.11: real time  263.93
    CORREC:  cpu time    0.00: real time    0.00
    CHARGE:  cpu time    0.05: real time    0.06
    --------------------------------------------
      LOOP:  cpu time  266.44: real time  266.26

 eigenvalue-minimisations  :     0
 total energy-change (2. order) : 0.7571521E+02  (-0.2136518E+03)
 number of electron     112.0001390 magnetization 
 augmentation part       38.9145981 magnetization 

 Free energy of the ion-electron system (eV)
  ---------------------------------------------------
  alpha Z        PSCENC =       339.31929130
  Ewald energy   TEWEN  =     -9064.36911385
  -1/2 Hartree   DENC   =     -8067.14404970
  -exchange  EXHF       =       327.43867199
  -V(xc)+E(xc)   XCENC  =       369.89304134
  PAW double counting   =     16956.67246735   -17449.41390074
  entropy T*S    EENTRO =        -0.00146895
  eigenvalues    EBANDS =     -1657.66488307
  atomic energy  EATOM  =     18320.98302006
  ---------------------------------------------------
  free energy    TOTEN  =        75.71520797 eV

  energy without entropy =       75.71667692  energy(sigma->0) =       75.71569762


--------------------------------------------------------------------------------------------------------




----------------------------------------- Iteration    1(   2)  ---------------------------------------


    POTLOK:  cpu time    0.06: real time    0.06
    SETDIJ:  cpu time    2.18: real time    2.18
 
    SUBROT:  cpu time    0.73: real time    0.73
    SUBROT:  cpu time    0.39: real time    0.39
    SUBROT:  cpu time    0.35: real time    0.35
    SUBROT:  cpu time    0.36: real time    0.36
    --------------------------------------------
    SUBRT+:  cpu time    1.82: real time    1.82

 Broyden mixing:
  rms(total) = 0.28020E-01    rms(broyden)= 0.28009E-01
  rms(prec ) = 0.50894E-01
  weight for this iteration     100.00

 eigenvalues of (default mixing * dielectric matrix)
  average eigenvalue GAMMA=   1.5810
  2.5469  1.3270  0.8691
 
    TRIAL :  cpu time  272.26: real time  272.11
    CORREC:  cpu time    0.00: real time    0.00
    CHARGE:  cpu time    0.06: real time    0.06
    --------------------------------------------
      LOOP:  cpu time  274.56: real time  274.42

 eigenvalue-minimisations  :     0
 total energy-change (2. order) :-0.8394062E+02  (-0.1472779E+03)
 number of electron     112.0001303 magnetization 
 augmentation part       35.4462181 magnetization 

 Free energy of the ion-electron system (eV)
  ---------------------------------------------------
  alpha Z        PSCENC =       339.31929130
  Ewald energy   TEWEN  =     -9064.36911385
  -1/2 Hartree   DENC   =     -8371.53779003
  -exchange  EXHF       =       338.97219659
  -V(xc)+E(xc)   XCENC  =       377.34179865
  PAW double counting   =     17433.00368384   -17972.28184968
  entropy T*S    EENTRO =        -0.00132221
  eigenvalues    EBANDS =     -1409.65517738
  atomic energy  EATOM  =     18320.98302006
  ---------------------------------------------------
  free energy    TOTEN  =        -8.22540945 eV

  energy without entropy =       -8.22408724  energy(sigma->0) =       -8.22496871


--------------------------------------------------------------------------------------------------------




----------------------------------------- Iteration    1(   3)  ---------------------------------------


    POTLOK:  cpu time    0.08: real time    0.08
    SETDIJ:  cpu time    2.18: real time    2.18
 
    SUBROT:  cpu time    0.73: real time    0.73
    SUBROT:  cpu time    0.35: real time    0.35
    SUBROT:  cpu time    0.37: real time    0.37
    SUBROT:  cpu time    0.32: real time    0.33
    --------------------------------------------
    SUBRT+:  cpu time    1.77: real time    1.78

 Broyden mixing:
  rms(total) = 0.28114E-01    rms(broyden)= 0.28103E-01
  rms(prec ) = 0.52440E-01
  weight for this iteration     100.00

 eigenvalues of (default mixing * dielectric matrix)
  average eigenvalue GAMMA=   1.7752
  1.0117  2.4993  1.8146
 
    TRIAL :  cpu time  272.47: real time  272.29
    CORREC:  cpu time    0.00: real time    0.00
    CHARGE:  cpu time    0.06: real time    0.06
    --------------------------------------------
      LOOP:  cpu time  274.78: real time  274.61

 eigenvalue-minimisations  :     0
 total energy-change (2. order) :-0.6741789E+01  (-0.2057564E+03)
 number of electron     112.0001421 magnetization 
 augmentation part       39.6909670 magnetization 

 Free energy of the ion-electron system (eV)
  ---------------------------------------------------
  alpha Z        PSCENC =       339.31929130
  Ewald energy   TEWEN  =     -9064.36911385
  -1/2 Hartree   DENC   =     -7475.74661751
  -exchange  EXHF       =       324.94307125
  -V(xc)+E(xc)   XCENC  =       357.34949265
  PAW double counting   =     15150.18194622   -15579.53147090
  entropy T*S    EENTRO =         0.00027651
  eigenvalues    EBANDS =     -2388.09549553
  atomic energy  EATOM  =     18320.98302006
  ---------------------------------------------------
  free energy    TOTEN  =       -14.96719851 eV

  energy without entropy =      -14.96747502  energy(sigma->0) =      -14.96729068


--------------------------------------------------------------------------------------------------------




----------------------------------------- Iteration    1(   4)  ---------------------------------------


    POTLOK:  cpu time    0.06: real time    0.06
    SETDIJ:  cpu time    2.19: real time    2.18
 
    SUBROT:  cpu time    0.74: real time    0.74
    SUBROT:  cpu time    0.35: real time    0.35
    SUBROT:  cpu time    0.35: real time    0.35
    SUBROT:  cpu time    0.35: real time    0.35
    SUBROT:  cpu time    0.37: real time    0.37
    --------------------------------------------
    SUBRT+:  cpu time    2.17: real time    2.18

 Broyden mixing:
  rms(total) = 0.12019E+00    rms(broyden)= 0.12000E+00
  rms(prec ) = 0.21138E+00
  weight for this iteration     100.00

 eigenvalues of (default mixing * dielectric matrix)
  average eigenvalue GAMMA=   1.2027
  2.5449  1.2514  0.6361  0.3782
 
    TRIAL :  cpu time  273.60: real time  273.43
    CORREC:  cpu time    0.00: real time    0.00
    CHARGE:  cpu time    0.06: real time    0.06
    --------------------------------------------
      LOOP:  cpu time  275.91: real time  275.75

 eigenvalue-minimisations  :     0
 total energy-change (2. order) :-0.7475964E+01  (-0.1078421E+03)
 number of electron     112.0001345 magnetization 
 augmentation part       37.2423671 magnetization 

 Free energy of the ion-electron system (eV)
  ---------------------------------------------------
  alpha Z        PSCENC =       339.31929130
  Ewald energy   TEWEN  =     -9064.36911385
  -1/2 Hartree   DENC   =     -8544.89375561
  -exchange  EXHF       =       343.00882143
  -V(xc)+E(xc)   XCENC  =       381.68783270
  PAW double counting   =     17639.57366730   -18220.62591751
  entropy T*S    EENTRO =         0.00037049
  eigenvalues    EBANDS =     -1217.12728435
  atomic energy  EATOM  =     18320.98302006
  ---------------------------------------------------
  free energy    TOTEN  =       -22.44316203 eV

  energy without entropy =      -22.44353252  energy(sigma->0) =      -22.44328552


--------------------------------------------------------------------------------------------------------




----------------------------------------- Iteration    1(   5)  ---------------------------------------


    POTLOK:  cpu time    0.07: real time    0.07
    SETDIJ:  cpu time    2.17: real time    2.17
 
    SUBROT:  cpu time    0.74: real time    0.74
    SUBROT:  cpu time    0.36: real time    0.36
    SUBROT:  cpu time    0.36: real time    0.36
    SUBROT:  cpu time    0.37: real time    0.37
    --------------------------------------------
    SUBRT+:  cpu time    1.83: real time    1.84

 Broyden mixing:
  rms(total) = 0.46227E-01    rms(broyden)= 0.46217E-01
  rms(prec ) = 0.93805E-01
  weight for this iteration     100.00

 eigenvalues of (default mixing * dielectric matrix)
  average eigenvalue GAMMA=   1.6880
  2.4576  0.9352  1.6711
 
    TRIAL :  cpu time  273.71: real time  273.54
    CORREC:  cpu time    0.00: real time    0.00
    CHARGE:  cpu time    0.06: real time    0.06
    --------------------------------------------
      LOOP:  cpu time  276.01: real time  275.85

 eigenvalue-minimisations  :     0
 total energy-change (2. order) :-0.3835142E+02  (-0.1508040E+02)
 number of electron     112.0001344 magnetization 
 augmentation part       37.2406285 magnetization 

 Free energy of the ion-electron system (eV)
  ---------------------------------------------------
  alpha Z        PSCENC =       339.31929130
  Ewald energy   TEWEN  =     -9064.36911385
  -1/2 Hartree   DENC   =     -8008.10837315
  -exchange  EXHF       =       336.37165871
  -V(xc)+E(xc)   XCENC  =       368.38775592
  PAW double counting   =     15870.35763840   -16339.79920608
  entropy T*S    EENTRO =         0.00063092
  eigenvalues    EBANDS =     -1883.93762132
  atomic energy  EATOM  =     18320.98302006
  ---------------------------------------------------
  free energy    TOTEN  =       -60.79457953 eV

  energy without entropy =      -60.79521045  energy(sigma->0) =      -60.79478983


--------------------------------------------------------------------------------------------------------




----------------------------------------- Iteration    1(   6)  ---------------------------------------


    POTLOK:  cpu time    0.20: real time    0.20
    SETDIJ:  cpu time    2.18: real time    2.18
 
    SUBROT:  cpu time    0.74: real time    0.74
    SUBROT:  cpu time    0.38: real time    0.38
    SUBROT:  cpu time    0.37: real time    0.37
    SUBROT:  cpu time    0.37: real time    0.37
    --------------------------------------------
    SUBRT+:  cpu time    1.87: real time    1.88

 Broyden mixing:
  rms(total) = 0.26907E-02    rms(broyden)= 0.26901E-02
  rms(prec ) = 0.44813E-02
  weight for this iteration     100.00

 eigenvalues of (default mixing * dielectric matrix)
  average eigenvalue GAMMA=   1.8288
  1.0203  2.5238  1.9422
 
    TRIAL :  cpu time  273.14: real time  272.96
    CORREC:  cpu time    0.00: real time    0.00
    CHARGE:  cpu time    0.06: real time    0.06
    --------------------------------------------
      LOOP:  cpu time  275.58: real time  275.39

 eigenvalue-minimisations  :     0
 total energy-change (2. order) :-0.5108313E+01  (-0.8258049E+01)
 number of electron     112.0001373 magnetization 
 augmentation part       38.2300473 magnetization 

 Free energy of the ion-electron system (eV)
  ---------------------------------------------------
  alpha Z        PSCENC =       339.31929130
  Ewald energy   TEWEN  =     -9064.36911385
  -1/2 Hartree   DENC   =     -8000.11225761
  -exchange  EXHF       =       337.11540166
  -V(xc)+E(xc)   XCENC  =       368.75068588
  PAW double counting   =     15769.73966833   -16238.66866802
  entropy T*S    EENTRO =         0.00067889
  eigenvalues    EBANDS =     -1898.66155084
  atomic energy  EATOM  =     18320.98302006
  ---------------------------------------------------
  free energy    TOTEN  =       -65.90289217 eV

  energy without entropy =      -65.90357106  energy(sigma->0) =      -65.90311847


--------------------------------------------------------------------------------------------------------




----------------------------------------- Iteration    1(   7)  ---------------------------------------


    POTLOK:  cpu time    0.10: real time    0.10
    SETDIJ:  cpu time    2.19: real time    2.19
 
    SUBROT:  cpu time    0.72: real time    0.72
    SUBROT:  cpu time    0.34: real time    0.34
    SUBROT:  cpu time    0.35: real time    0.35
    SUBROT:  cpu time    0.34: real time    0.34
    --------------------------------------------
    SUBRT+:  cpu time    1.75: real time    1.77

 Broyden mixing:
  rms(total) = 0.13358E-01    rms(broyden)= 0.13354E-01
  rms(prec ) = 0.23664E-01
  weight for this iteration     100.00

 eigenvalues of (default mixing * dielectric matrix)
  average eigenvalue GAMMA=   1.6068
  2.5022  0.8895  1.4287
 
    TRIAL :  cpu time  251.42: real time  251.28
    CORREC:  cpu time    0.00: real time    0.00
    CHARGE:  cpu time    0.06: real time    0.06
    --------------------------------------------
      LOOP:  cpu time  253.77: real time  253.63

 eigenvalue-minimisations  :     0
 total energy-change (2. order) :-0.1552818E+01  (-0.4169292E+01)
 number of electron     112.0001357 magnetization 
 augmentation part       37.7050556 magnetization 

 Free energy of the ion-electron system (eV)
  ---------------------------------------------------
  alpha Z        PSCENC =       339.31929130
  Ewald energy   TEWEN  =     -9064.36911385
  -1/2 Hartree   DENC   =     -8244.15949752
  -exchange  EXHF       =       341.62484688
  -V(xc)+E(xc)   XCENC  =       374.57195884
  PAW double counting   =     16209.39301916   -16712.90097221
  entropy T*S    EENTRO =         0.00044258
  eigenvalues    EBANDS =     -1631.91894150
  atomic energy  EATOM  =     18320.98302006
  ---------------------------------------------------
  free energy    TOTEN  =       -67.45570995 eV

  energy without entropy =      -67.45615253  energy(sigma->0) =      -67.45585747


--------------------------------------------------------------------------------------------------------




----------------------------------------- Iteration    1(   8)  ---------------------------------------


    POTLOK:  cpu time    0.15: real time    0.15
    SETDIJ:  cpu time    2.10: real time    2.09
 
    SUBROT:  cpu time    0.71: real time    0.71
    SUBROT:  cpu time    0.35: real time    0.35
    SUBROT:  cpu time    0.37: real time    0.37
    SUBROT:  cpu time    0.35: real time    0.35
    --------------------------------------------
    SUBRT+:  cpu time    1.77: real time    1.77

 Broyden mixing:
  rms(total) = 0.84613E-02    rms(broyden)= 0.84588E-02
  rms(prec ) = 0.14180E-01
  weight for this iteration     100.00

 eigenvalues of (default mixing * dielectric matrix)
  average eigenvalue GAMMA=   1.6740
  2.4564  0.9465  1.6191
 
    TRIAL :  cpu time  249.63: real time  249.42
    CORREC:  cpu time    0.00: real time    0.00
    CHARGE:  cpu time    0.08: real time    0.08
    --------------------------------------------
      LOOP:  cpu time  251.95: real time  251.76

 eigenvalue-minimisations  :     0
 total energy-change (2. order) :-0.1626640E+01  (-0.7744713E+00)
 number of electron     112.0001357 magnetization 
 augmentation part       37.7234167 magnetization 

 Free energy of the ion-electron system (eV)
  ---------------------------------------------------
  alpha Z        PSCENC =       339.31929130
  Ewald energy   TEWEN  =     -9064.36911385
  -1/2 Hartree   DENC   =     -8116.88045580
  -exchange  EXHF       =       339.51625714
  -V(xc)+E(xc)   XCENC  =       371.37814771
  PAW double counting   =     15916.47574285   -16397.84207832
  entropy T*S    EENTRO =         0.00072508
  eigenvalues    EBANDS =     -1777.66360346
  atomic energy  EATOM  =     18320.98302006
  ---------------------------------------------------
  free energy    TOTEN  =       -69.08234979 eV

  energy without entropy =      -69.08307486  energy(sigma->0) =      -69.08259148


--------------------------------------------------------------------------------------------------------




----------------------------------------- Iteration    1(   9)  ---------------------------------------


    POTLOK:  cpu time    0.05: real time    0.06
    SETDIJ:  cpu time    2.09: real time    2.09
 
    SUBROT:  cpu time    0.75: real time    0.75
    SUBROT:  cpu time    0.35: real time    0.35
    SUBROT:  cpu time    0.37: real time    0.37
    SUBROT:  cpu time    0.36: real time    0.36
    --------------------------------------------
    SUBRT+:  cpu time    1.82: real time    1.84

 Broyden mixing:
  rms(total) = 0.51888E-03    rms(broyden)= 0.51826E-03
  rms(prec ) = 0.83373E-03
  weight for this iteration     100.00

 eigenvalues of (default mixing * dielectric matrix)
  average eigenvalue GAMMA=   1.7160
  2.5289  1.0029  1.6163
 
    TRIAL :  cpu time  250.25: real time  250.06
    CORREC:  cpu time    0.00: real time    0.00
    CHARGE:  cpu time    0.06: real time    0.06
    --------------------------------------------
      LOOP:  cpu time  252.46: real time  252.27

 eigenvalue-minimisations  :     0
 total energy-change (2. order) :-0.3111219E+00  (-0.3902086E+00)
 number of electron     112.0001363 magnetization 
 augmentation part       37.9060029 magnetization 

 Free energy of the ion-electron system (eV)
  ---------------------------------------------------
  alpha Z        PSCENC =       339.31929130
  Ewald energy   TEWEN  =     -9064.36911385
  -1/2 Hartree   DENC   =     -8124.41941758
  -exchange  EXHF       =       339.58918875
  -V(xc)+E(xc)   XCENC  =       371.43807659
  PAW double counting   =     15912.40793931   -16393.63147163
  entropy T*S    EENTRO =         0.00085569
  eigenvalues    EBANDS =     -1770.71170968
  atomic energy  EATOM  =     18320.98302006
  ---------------------------------------------------
  free energy    TOTEN  =       -69.39347165 eV

  energy without entropy =      -69.39432734  energy(sigma->0) =      -69.39375688


--------------------------------------------------------------------------------------------------------




----------------------------------------- Iteration    1(  10)  ---------------------------------------


    POTLOK:  cpu time    0.06: real time    0.06
    SETDIJ:  cpu time    2.10: real time    2.10
 
    SUBROT:  cpu time    0.73: real time    0.73
    SUBROT:  cpu time    0.37: real time    0.37
    SUBROT:  cpu time    0.37: real time    0.37
    SUBROT:  cpu time    0.38: real time    0.38
    --------------------------------------------
    SUBRT+:  cpu time    1.86: real time    1.87

 Broyden mixing:
  rms(total) = 0.23125E-02    rms(broyden)= 0.23120E-02
  rms(prec ) = 0.38859E-02
  weight for this iteration     100.00

 eigenvalues of (default mixing * dielectric matrix)
  average eigenvalue GAMMA=   1.6853
  2.4751  0.9888  1.5920
 
    TRIAL :  cpu time  250.50: real time  250.30
    CORREC:  cpu time    0.00: real time    0.00
    CHARGE:  cpu time    0.07: real time    0.07
    --------------------------------------------
      LOOP:  cpu time  252.73: real time  252.53

 eigenvalue-minimisations  :     0
 total energy-change (2. order) :-0.1048815E+00  (-0.1532540E+00)
 number of electron     112.0001360 magnetization 
 augmentation part       37.8186850 magnetization 

 Free energy of the ion-electron system (eV)
  ---------------------------------------------------
  alpha Z        PSCENC =       339.31929130
  Ewald energy   TEWEN  =     -9064.36911385
  -1/2 Hartree   DENC   =     -8172.15453861
  -exchange  EXHF       =       340.39959514
  -V(xc)+E(xc)   XCENC  =       372.54346726
  PAW double counting   =     15994.78330748   -16482.77900768
  entropy T*S    EENTRO =         0.00072618
  eigenvalues    EBANDS =     -1718.22522992
  atomic energy  EATOM  =     18320.98302006
  ---------------------------------------------------
  free energy    TOTEN  =       -69.49835312 eV

  energy without entropy =      -69.49907930  energy(sigma->0) =      -69.49859518


--------------------------------------------------------------------------------------------------------




----------------------------------------- Iteration    1(  11)  ---------------------------------------


    POTLOK:  cpu time    0.06: real time    0.06
    SETDIJ:  cpu time    2.10: real time    2.10
 
    SUBROT:  cpu time    0.75: real time    0.75
    SUBROT:  cpu time    0.37: real time    0.37
    SUBROT:  cpu time    0.36: real time    0.36
    SUBROT:  cpu time    0.37: real time    0.37
    --------------------------------------------
    SUBRT+:  cpu time    1.86: real time    1.88

 Broyden mixing:
  rms(total) = 0.78236E-03    rms(broyden)= 0.78211E-03
  rms(prec ) = 0.15657E-02
  weight for this iteration     100.00

 eigenvalues of (default mixing * dielectric matrix)
  average eigenvalue GAMMA=   1.6682
  2.4949  0.9842  1.5256
 
    TRIAL :  cpu time  249.95: real time  249.76
    CORREC:  cpu time    0.00: real time    0.00
    CHARGE:  cpu time    0.09: real time    0.09
    --------------------------------------------
      LOOP:  cpu time  252.19: real time  252.01

 eigenvalue-minimisations  :     0
 total energy-change (2. order) :-0.7006718E-01  (-0.3711203E-01)
 number of electron     112.0001359 magnetization 
 augmentation part       37.7855224 magnetization 

 Free energy of the ion-electron system (eV)
  ---------------------------------------------------
  alpha Z        PSCENC =       339.31929130
  Ewald energy   TEWEN  =     -9064.36911385
  -1/2 Hartree   DENC   =     -8150.74988636
  -exchange  EXHF       =       340.07114571
  -V(xc)+E(xc)   XCENC  =       372.06947085
  PAW double counting   =     15942.59781663   -16427.54452317
  entropy T*S    EENTRO =         0.00060588
  eigenvalues    EBANDS =     -1741.94636764
  atomic energy  EATOM  =     18320.98302006
  ---------------------------------------------------
  free energy    TOTEN  =       -69.56842030 eV

  energy without entropy =      -69.56902618  energy(sigma->0) =      -69.56862226


--------------------------------------------------------------------------------------------------------




----------------------------------------- Iteration    1(  12)  ---------------------------------------


    POTLOK:  cpu time    0.05: real time    0.05
    SETDIJ:  cpu time    2.10: real time    2.10
 
    SUBROT:  cpu time    0.77: real time    0.77
    SUBROT:  cpu time    0.37: real time    0.37
    SUBROT:  cpu time    0.37: real time    0.37
    SUBROT:  cpu time    0.38: real time    0.38
    --------------------------------------------
    SUBRT+:  cpu time    1.90: real time    1.91

 Broyden mixing:
  rms(total) = 0.21119E-03    rms(broyden)= 0.21109E-03
  rms(prec ) = 0.46116E-03
  weight for this iteration     100.00

 eigenvalues of (default mixing * dielectric matrix)
  average eigenvalue GAMMA=   1.6535
  2.5055  0.9996  1.4554
 
    TRIAL :  cpu time  252.05: real time  251.86
    CORREC:  cpu time    0.00: real time    0.00
    CHARGE:  cpu time    0.08: real time    0.08
    --------------------------------------------
      LOOP:  cpu time  254.30: real time  254.11

 eigenvalue-minimisations  :     0
 total energy-change (2. order) :-0.1237897E-01  (-0.2303712E-01)
 number of electron     112.0001360 magnetization 
 augmentation part       37.8260201 magnetization 

 Free energy of the ion-electron system (eV)
  ---------------------------------------------------
  alpha Z        PSCENC =       339.31929130
  Ewald energy   TEWEN  =     -9064.36911385
  -1/2 Hartree   DENC   =     -8142.28192408
  -exchange  EXHF       =       339.95372440
  -V(xc)+E(xc)   XCENC  =       371.89248459
  PAW double counting   =     15920.50733543   -16404.35547572
  entropy T*S    EENTRO =         0.00055353
  eigenvalues    EBANDS =     -1751.23074728
  atomic energy  EATOM  =     18320.98302006
  ---------------------------------------------------
  free energy    TOTEN  =       -69.58079927 eV

  energy without entropy =      -69.58135280  energy(sigma->0) =      -69.58098378


--------------------------------------------------------------------------------------------------------




----------------------------------------- Iteration    1(  13)  ---------------------------------------


    POTLOK:  cpu time    0.15: real time    0.15
    SETDIJ:  cpu time    2.11: real time    2.11
 
    SUBROT:  cpu time    0.78: real time    0.78
    SUBROT:  cpu time    0.39: real time    0.39
    SUBROT:  cpu time    0.37: real time    0.37
    SUBROT:  cpu time    0.39: real time    0.39
    --------------------------------------------
    SUBRT+:  cpu time    1.94: real time    1.96

 Broyden mixing:
  rms(total) = 0.55738E-03    rms(broyden)= 0.55726E-03
  rms(prec ) = 0.94816E-03
  weight for this iteration     100.00

 eigenvalues of (default mixing * dielectric matrix)
  average eigenvalue GAMMA=   1.6941
  2.4805  0.9964  1.6054
 
    TRIAL :  cpu time  264.07: real time  263.88
    CORREC:  cpu time    0.00: real time    0.00
    CHARGE:  cpu time    0.09: real time    0.09
    --------------------------------------------
      LOOP:  cpu time  266.43: real time  266.24

 eigenvalue-minimisations  :     0
 total energy-change (2. order) :-0.9745150E-02  (-0.5145791E-02)
 number of electron     112.0001360 magnetization 
 augmentation part       37.8300053 magnetization 

 Free energy of the ion-electron system (eV)
  ---------------------------------------------------
  alpha Z        PSCENC =       339.31929130
  Ewald energy   TEWEN  =     -9064.36911385
  -1/2 Hartree   DENC   =     -8152.22095748
  -exchange  EXHF       =       340.12691861
  -V(xc)+E(xc)   XCENC  =       372.12751658
  PAW double counting   =     15936.75184161   -16422.10056480
  entropy T*S    EENTRO =         0.00054292
  eigenvalues    EBANDS =     -1740.20904998
  atomic energy  EATOM  =     18320.98302006
  ---------------------------------------------------
  free energy    TOTEN  =       -69.59054442 eV

  energy without entropy =      -69.59108734  energy(sigma->0) =      -69.59072539


--------------------------------------------------------------------------------------------------------




----------------------------------------- Iteration    1(  14)  ---------------------------------------


    POTLOK:  cpu time    0.16: real time    0.16
    SETDIJ:  cpu time    2.14: real time    2.14
 
    SUBROT:  cpu time    0.77: real time    0.77
    SUBROT:  cpu time    0.39: real time    0.39
    SUBROT:  cpu time    0.39: real time    0.39
    SUBROT:  cpu time    0.38: real time    0.38
    --------------------------------------------
    SUBRT+:  cpu time    1.93: real time    1.94

 Broyden mixing:
  rms(total) = 0.69684E-04    rms(broyden)= 0.69669E-04
  rms(prec ) = 0.14280E-03
  weight for this iteration     100.00

 eigenvalues of (default mixing * dielectric matrix)
  average eigenvalue GAMMA=   1.6765
  2.5146  0.9912  1.5238
 
    TRIAL :  cpu time  263.98: real time  263.78
    CORREC:  cpu time    0.00: real time    0.00
    CHARGE:  cpu time    0.09: real time    0.09
    --------------------------------------------
      LOOP:  cpu time  266.37: real time  266.18

 eigenvalue-minimisations  :     0
 total energy-change (2. order) :-0.2466149E-02  (-0.3814043E-02)
 number of electron     112.0001360 magnetization 
 augmentation part       37.8123468 magnetization 

 Free energy of the ion-electron system (eV)
  ---------------------------------------------------
  alpha Z        PSCENC =       339.31929130
  Ewald energy   TEWEN  =     -9064.36911385
  -1/2 Hartree   DENC   =     -8152.77315619
  -exchange  EXHF       =       340.12527660
  -V(xc)+E(xc)   XCENC  =       372.13736598
  PAW double counting   =     15934.70522258   -16420.22118143
  entropy T*S    EENTRO =         0.00056179
  eigenvalues    EBANDS =     -1739.50027854
  atomic energy  EATOM  =     18320.98302006
  ---------------------------------------------------
  free energy    TOTEN  =       -69.59301057 eV

  energy without entropy =      -69.59357236  energy(sigma->0) =      -69.59319783


--------------------------------------------------------------------------------------------------------




----------------------------------------- Iteration    1(  15)  ---------------------------------------


    POTLOK:  cpu time    0.20: real time    0.20
    SETDIJ:  cpu time    2.14: real time    2.14
 
    SUBROT:  cpu time    0.80: real time    0.80
    SUBROT:  cpu time    0.40: real time    0.40
    SUBROT:  cpu time    0.37: real time    0.37
    SUBROT:  cpu time    0.38: real time    0.38
    --------------------------------------------
    SUBRT+:  cpu time    1.95: real time    1.98

 Broyden mixing:
  rms(total) = 0.19434E-03    rms(broyden)= 0.19428E-03
  rms(prec ) = 0.33201E-03
  weight for this iteration     100.00

 eigenvalues of (default mixing * dielectric matrix)
  average eigenvalue GAMMA=   1.6860
  2.4719  0.9894  1.5967
 
    TRIAL :  cpu time  262.86: real time  262.68
    CORREC:  cpu time    0.00: real time    0.00
    CHARGE:  cpu time    0.08: real time    0.08
    --------------------------------------------
      LOOP:  cpu time  265.29: real time  265.11

 eigenvalue-minimisations  :     0
 total energy-change (2. order) :-0.1518532E-02  (-0.1044641E-02)
 number of electron     112.0001360 magnetization 
 augmentation part       37.8166821 magnetization 

 Free energy of the ion-electron system (eV)
  ---------------------------------------------------
  alpha Z        PSCENC =       339.31929130
  Ewald energy   TEWEN  =     -9064.36911385
  -1/2 Hartree   DENC   =     -8148.03116951
  -exchange  EXHF       =       340.03555914
  -V(xc)+E(xc)   XCENC  =       372.02540994
  PAW double counting   =     15922.56197963   -16407.46346453
  entropy T*S    EENTRO =         0.00057491
  eigenvalues    EBANDS =     -1744.65660307
  atomic energy  EATOM  =     18320.98302006
  ---------------------------------------------------
  free energy    TOTEN  =       -69.59452910 eV

  energy without entropy =      -69.59510401  energy(sigma->0) =      -69.59472074


--------------------------------------------------------------------------------------------------------




----------------------------------------- Iteration    1(  16)  ---------------------------------------


    POTLOK:  cpu time    0.15: real time    0.15
    SETDIJ:  cpu time    2.17: real time    2.17
 
    SUBROT:  cpu time    0.77: real time    0.77
    SUBROT:  cpu time    0.38: real time    0.38
    SUBROT:  cpu time    0.40: real time    0.40
    SUBROT:  cpu time    0.37: real time    0.37
    --------------------------------------------
    SUBRT+:  cpu time    1.93: real time    1.94

 Broyden mixing:
  rms(total) = 0.84889E-04    rms(broyden)= 0.84871E-04
  rms(prec ) = 0.14153E-03
  weight for this iteration     100.00

 eigenvalues of (default mixing * dielectric matrix)
  average eigenvalue GAMMA=   1.6848
  2.4866  0.9896  1.5782
 
    TRIAL :  cpu time  265.71: real time  265.51
    CORREC:  cpu time    0.00: real time    0.00
    CHARGE:  cpu time    0.09: real time    0.09
    --------------------------------------------
      LOOP:  cpu time  268.12: real time  267.93

 eigenvalue-minimisations  :     0
 total energy-change (2. order) :-0.5752517E-03  (-0.4126249E-03)
 number of electron     112.0001360 magnetization 
 augmentation part       37.8215231 magnetization 

 Free energy of the ion-electron system (eV)
  ---------------------------------------------------
  alpha Z        PSCENC =       339.31929130
  Ewald energy   TEWEN  =     -9064.36911385
  -1/2 Hartree   DENC   =     -8149.15217699
  -exchange  EXHF       =       340.05416554
  -V(xc)+E(xc)   XCENC  =       372.05267082
  PAW double counting   =     15923.40784345   -16408.49869211
  entropy T*S    EENTRO =         0.00057545
  eigenvalues    EBANDS =     -1743.39268749
  atomic energy  EATOM  =     18320.98302006
  ---------------------------------------------------
  free energy    TOTEN  =       -69.59510435 eV

[...]
     22      -2.2876      2.00000
     23      -1.9514      2.00000
     24      -1.6182      2.00000
     25      -1.2155      2.00000
     26      -1.0059      2.00000
     27      -0.9784      2.00000
     28      -0.7133      2.00000
     29      -0.5483      2.00000
     30      -0.3889      2.00000
     31      -0.2866      2.00000
     32      -0.1982      2.00000
     33      -0.1833      2.00000
     34      -0.1380      2.00000
     35      -0.0216      2.00000
     36       0.0185      2.00000
     37       1.2951      2.00000
     38       1.3087      2.00000
     39       1.3697      2.00000
     40       1.4118      2.00000
     41       1.4516      2.00000
     42       1.4669      2.00000
     43       1.5057      2.00000
     44       1.5498      2.00000
     45       1.7649      2.00000
     46       1.8936      2.00000
     47       1.9829      2.00000
     48       2.1525      2.00000
     49       2.3713      2.00000
     50       2.5750      2.00000
     51       2.7043      2.00000
     52       2.9123      2.00000
     53       3.0106      2.00000
     54       3.2210      2.00000
     55       3.3993      2.00000
     56       3.6563      2.00000
     57       6.3783     -0.00000
     58       6.5198     -0.00000
     59       7.7195      0.00000
     60       7.9022      0.00000
     61       8.2969      0.00000
     62       8.5751      0.00000
     63       9.3254      0.00000
     64       9.8444      0.00000
     65      10.0206      0.00000
     66      10.3533      0.00000
     67      10.5841      0.00000
     68      10.7881      0.00000
     69      10.9793      0.00000
     70      11.2533      0.00000
     71      11.3025      0.00000
     72      11.7042      0.00000
     73      12.2517      0.00000
     74      12.4653      0.00000
     75      13.0942      0.00000
     76      13.4644      0.00000
     77      13.7947      0.00000
     78      14.6672      0.00000
     79      14.9972      0.00000
     80      15.7249      0.00000

 k-point  40 :       0.2500   -0.2500    0.4000
  band No.  band energies     occupation 
      1     -68.6459      2.00000
      2     -68.6454      2.00000
      3     -68.6328      2.00000
      4     -68.6319      2.00000
      5     -68.6141      2.00000
      6     -68.6136      2.00000
      7     -68.5966      2.00000
      8     -68.5963      2.00000
      9     -68.5768      2.00000
     10     -68.5755      2.00000
     11     -68.5602      2.00000
     12     -68.5602      2.00000
     13     -12.2192      2.00000
     14     -11.8185      2.00000
     15     -10.8215      2.00000
     16     -10.6712      2.00000
     17     -10.3514      2.00000
     18     -10.2775      2.00000
     19      -5.4463      2.00000
     20      -5.1158      2.00000
     21      -2.4280      2.00000
     22      -2.1527      2.00000
     23      -2.0181      2.00000
     24      -1.5230      2.00000
     25      -1.3567      2.00000
     26      -1.1695      2.00000
     27      -0.9335      2.00000
     28      -0.8122      2.00000
     29      -0.5845      2.00000
     30      -0.5353      2.00000
     31      -0.2786      2.00000
     32      -0.2395      2.00000
     33      -0.1358      2.00000
     34      -0.0915      2.00000
     35      -0.0227      2.00000
     36       0.0316      2.00000
     37       1.3124      2.00000
     38       1.3456      2.00000
     39       1.3636      2.00000
     40       1.3970      2.00000
     41       1.4520      2.00000
     42       1.4822      2.00000
     43       1.4993      2.00000
     44       1.5649      2.00000
     45       1.8029      2.00000
     46       1.8482      2.00000
     47       1.9600      2.00000
     48       2.1088      2.00000
     49       2.2952      2.00000
     50       2.5301      2.00000
     51       2.6413      2.00000
     52       2.7694      2.00000
     53       2.9282      2.00000
     54       3.1613      2.00000
     55       3.3028      2.00000
     56       3.5747      2.00000
     57       6.5622     -0.00000
     58       6.7188     -0.00000
     59       7.9643      0.00000
     60       8.0025      0.00000
     61       8.7306      0.00000
     62       9.0920      0.00000
     63       9.4567      0.00000
     64       9.8277      0.00000
     65      10.2965      0.00000
     66      10.3668      0.00000
     67      10.7790      0.00000
     68      10.8483      0.00000
     69      11.1150      0.00000
     70      11.2718      0.00000
     71      11.3734      0.00000
     72      11.6211      0.00000
     73      12.0455      0.00000
     74      12.2948      0.00000
     75      12.6496      0.00000
     76      13.1215      0.00000
     77      13.2788      0.00000
     78      14.2428      0.00000
     79      15.6364      0.00000
     80      15.8443      0.00000

 k-point  41 :       0.5000   -0.2500    0.4000
  band No.  band energies     occupation 
      1     -68.6457      2.00000
      2     -68.6454      2.00000
      3     -68.6326      2.00000
      4     -68.6318      2.00000
      5     -68.6140      2.00000
      6     -68.6136      2.00000
      7     -68.5965      2.00000
      8     -68.5961      2.00000
      9     -68.5768      2.00000
     10     -68.5755      2.00000
     11     -68.5600      2.00000
     12     -68.5603      2.00000
     13     -12.0790      2.00000
     14     -11.7753      2.00000
     15     -10.8467      2.00000
     16     -10.7585      2.00000
     17     -10.5341      2.00000
     18     -10.3172      2.00000
     19      -5.4189      2.00000
     20      -4.9400      2.00000
     21      -2.3987      2.00000
     22      -2.1297      2.00000
     23      -1.8647      2.00000
     24      -1.7215      2.00000
     25      -1.4460      2.00000
     26      -1.1220      2.00000
     27      -0.8857      2.00000
     28      -0.6462      2.00000
     29      -0.6017      2.00000
     30      -0.4489      2.00000
     31      -0.2629      2.00000
     32      -0.1849      2.00000
     33      -0.1227      2.00000
     34      -0.0522      2.00000
     35      -0.0196      2.00000
     36       0.0223      2.00000
     37       1.2618      2.00000
     38       1.3161      2.00000
     39       1.4100      2.00000
     40       1.4374      2.00000
     41       1.4846      2.00000
     42       1.4924      2.00000
     43       1.5161      2.00000
     44       1.5747      2.00000
     45       1.7621      2.00000
     46       1.8421      2.00000
     47       2.1167      2.00000
     48       2.1862      2.00000
     49       2.3662      2.00000
     50       2.4604      2.00000
     51       2.4926      2.00000
     52       2.6930      2.00000
     53       2.8253      2.00000
     54       3.0877      2.00000
     55       3.2899      2.00000
     56       3.5248      2.00000
     57       6.4965     -0.00000
     58       6.5843     -0.00000
     59       7.4537      0.00000
     60       7.7212      0.00000
     61       8.5893      0.00000
     62       8.7450      0.00000
     63       9.3004      0.00000
     64       9.5320      0.00000
     65       9.9503      0.00000
     66      10.1857      0.00000
     67      10.6797      0.00000
     68      11.1144      0.00000
     69      11.2506      0.00000
     70      11.5695      0.00000
     71      11.7059      0.00000
     72      11.8937      0.00000
     73      12.3014      0.00000
     74      12.6560      0.00000
     75      13.0115      0.00000
     76      13.2305      0.00000
     77      13.6678      0.00000
     78      14.0656      0.00000
     79      14.3942      0.00000
     80      16.5151      0.00000

 k-point  42 :      -0.2500   -0.2500    0.4000
  band No.  band energies     occupation 
      1     -68.6460      2.00000
      2     -68.6455      2.00000
      3     -68.6326      2.00000
      4     -68.6317      2.00000
      5     -68.6138      2.00000
      6     -68.6138      2.00000
      7     -68.5964      2.00000
      8     -68.5962      2.00000
      9     -68.5769      2.00000
     10     -68.5755      2.00000
     11     -68.5604      2.00000
     12     -68.5602      2.00000
     13     -12.1783      2.00000
     14     -11.7051      2.00000
     15     -10.7165      2.00000
     16     -10.6946      2.00000
     17     -10.5859      2.00000
     18     -10.3938      2.00000
     19      -5.4457      2.00000
     20      -5.0719      2.00000
     21      -2.5074      2.00000
     22      -2.3799      2.00000
     23      -1.9637      2.00000
     24      -1.3667      2.00000
     25      -1.3297      2.00000
     26      -1.0534      2.00000
     27      -0.8322      2.00000
     28      -0.7687      2.00000
     29      -0.4221      2.00000
     30      -0.3398      2.00000
     31      -0.2712      2.00000
     32      -0.2088      2.00000
     33      -0.1410      2.00000
     34      -0.1395      2.00000
     35      -0.0135      2.00000
     36       0.0268      2.00000
     37       1.1735      2.00000
     38       1.3718      2.00000
     39       1.3981      2.00000
     40       1.4527      2.00000
     41       1.4541      2.00000
     42       1.4982      2.00000
     43       1.5177      2.00000
     44       1.5489      2.00000
     45       1.7456      2.00000
     46       1.8211      2.00000
     47       1.9743      2.00000
     48       2.2267      2.00000
     49       2.3964      2.00000
     50       2.6138      2.00000
     51       2.6556      2.00000
     52       2.9148      2.00000
     53       3.0685      2.00000
     54       3.1163      2.00000
     55       3.2869      2.00000
     56       3.5824      2.00000
     57       6.2902     -0.00000
     58       6.3797     -0.00000
     59       7.3574      0.00000
     60       7.5268      0.00000
     61       8.3091      0.00000
     62       8.3356      0.00000
     63       9.1054      0.00000
     64       9.3585      0.00000
     65       9.7169      0.00000
     66       9.9475      0.00000
     67      10.5239      0.00000
     68      10.9897      0.00000
     69      11.4252      0.00000
     70      11.5639      0.00000
     71      12.0155      0.00000
     72      12.2842      0.00000
     73      12.4287      0.00000
     74      12.4755      0.00000
     75      13.0332      0.00000
     76      13.1533      0.00000
     77      14.1409      0.00000
     78      14.4401      0.00000
     79      15.1635      0.00000
     80      15.8650      0.00000


--------------------------------------------------------------------------------------------------------


 soft charge-density along one line, spin component           1
         0         1         2         3         4         5         6         7         8         9
 total charge-density along one line
 
 pseudopotential strength for first ion, spin component:           1
-65.424   0.002   0.006   7.363   0.000  -0.003   0.001   0.007
  0.002 -65.393  -0.005   0.000   7.353   0.001  -0.001  -0.024
  0.006  -0.005 -65.384  -0.003   0.001   7.349  -0.037  -0.001
  7.363   0.000  -0.003   6.110   0.000   0.001   0.002  -0.003
  0.000   7.353   0.001   0.000   6.113  -0.000   0.000   0.007
 -0.003   0.001   7.349   0.001  -0.000   6.114   0.009   0.000
  0.001  -0.001  -0.037   0.002   0.000   0.009  -2.980  -0.003
  0.007  -0.024  -0.001  -0.003   0.007   0.000  -0.003  -2.985
  0.022   0.043   0.009  -0.005  -0.008  -0.003  -0.003   0.008
 -0.001  -0.017   0.007   0.000   0.004  -0.003   0.004   0.007
  0.025   0.000  -0.034  -0.007  -0.000   0.007  -0.000   0.007
  0.001  -0.001  -0.036   0.002   0.000   0.008  -3.626  -0.003
  0.007  -0.023  -0.001  -0.003   0.007   0.000  -0.003  -3.631
  0.022   0.042   0.009  -0.005  -0.008  -0.002  -0.003   0.008
 -0.001  -0.017   0.007   0.000   0.004  -0.003   0.004   0.007
  0.025   0.000  -0.034  -0.007  -0.000   0.006  -0.000   0.007
  0.007  -0.005   0.004  -0.001   0.001  -0.001  -0.002   0.000
  0.015  -0.010   0.009  -0.002   0.001  -0.002  -0.003   0.001
 total augmentation occupancy for first ion, spin component:           1
  2.000  -0.000   0.000  -0.003  -0.000   0.000   0.007  -0.005   0.001  -0.001  -0.005  -0.007   0.005  -0.001   0.001   0.004
 -0.000   2.000  -0.000  -0.000  -0.003   0.000  -0.001   0.005   0.004   0.001   0.000   0.001  -0.005  -0.005  -0.001  -0.000
  0.000  -0.000   2.000   0.000   0.000  -0.003  -0.000  -0.000  -0.001  -0.005  -0.004   0.001   0.000   0.001   0.005   0.005
 -0.003  -0.000   0.000   0.095   0.006  -0.005  -0.334   0.233  -0.074   0.011   0.017   0.281  -0.197   0.058  -0.007  -0.011
 -0.000  -0.003   0.000   0.006   0.102   0.001   0.020  -0.048  -0.445   0.015   0.011  -0.013   0.037   0.377  -0.011  -0.009
  0.000   0.000  -0.003  -0.005   0.001   0.099   0.097  -0.002  -0.014   0.236   0.354  -0.077   0.001   0.011  -0.202  -0.297
  0.007  -0.001  -0.000  -0.334   0.020   0.097   4.008  -0.793   0.097   0.216   0.147  -1.736   0.744  -0.089  -0.182  -0.142
 -0.005   0.005  -0.000   0.233  -0.048  -0.002  -0.793   3.512   0.292   0.158   0.297   0.743  -1.270  -0.215  -0.114  -0.206
  0.001   0.004  -0.001  -0.074  -0.445  -0.014   0.097   0.292   4.691  -0.041  -0.116  -0.090  -0.215  -2.400   0.035   0.086
 -0.001   0.001  -0.005   0.011   0.015   0.236   0.216   0.158  -0.041   3.635   0.798  -0.182  -0.114   0.035  -1.353  -0.759
 -0.005   0.000  -0.004   0.017   0.011   0.354   0.147   0.297  -0.116   0.798   3.995  -0.142  -0.206   0.086  -0.760  -1.742
 -0.007   0.001   0.001   0.281  -0.013  -0.077  -1.736   0.743  -0.090  -0.182  -0.142   1.442  -0.696   0.082   0.154   0.136
  0.005  -0.005   0.000  -0.197   0.037   0.001   0.744  -1.270  -0.215  -0.114  -0.206  -0.696   1.006   0.154   0.079   0.132
 -0.001  -0.005   0.001   0.058   0.377   0.011  -0.089  -0.215  -2.400   0.035   0.086   0.082   0.154   2.083  -0.029  -0.062
  0.001  -0.001   0.005  -0.007  -0.011  -0.202  -0.182  -0.114   0.035  -1.353  -0.760   0.154   0.079  -0.029   1.059   0.721
  0.004  -0.000   0.005  -0.011  -0.009  -0.297  -0.142  -0.206   0.086  -0.759  -1.742   0.136   0.132  -0.062   0.721   1.461
 -0.024   0.016  -0.013  -0.020   0.011  -0.006   0.080  -0.101  -0.023  -0.006   0.026  -0.063   0.088   0.035   0.006   0.005
  0.012  -0.008   0.006   0.001  -0.000  -0.000  -0.008   0.003  -0.004   0.004  -0.019   0.004  -0.005  -0.002  -0.001   0.003


------------------------ aborting loop because EDIFF is reached ----------------------------------------


    FORLOC:  cpu time    0.00: real time    0.00
    FORHF :  cpu time  494.70: real time  494.29
    FORNL :  cpu time    0.39: real time    0.40
    FORCOR:  cpu time    2.23: real time    2.22

 VOLUME and BASIS-vectors are now :
 -----------------------------------------------------------------------------
  energy-cutoff  :      400.00
  volume of cell :      221.90
      direct lattice vectors                 reciprocal lattice vectors
     3.224796000 -5.643830000  0.031572000     0.154525165 -0.088592321  0.053460880
     3.224796000  5.643830000  0.031572000     0.154525165  0.088592321  0.053460880
    -2.101946000  0.000000000  6.075537000    -0.001606004  0.000000000  0.164038877

  length of vectors
     6.500240234  6.500240234  6.428866683     0.185969598  0.185969598  0.164046738


 FORCES acting on ions:
    Electron-Ion                     Ewald-Force                    Non-Local-Force
 -----------------------------------------------------------------------------------------------
   -.155E+02 -.958E+02 0.114E+02   0.143E+02 0.933E+02 -.985E+01   0.101E+01 0.211E+01 -.141E+01
   -.143E+02 0.977E+02 0.119E+02   0.130E+02 -.953E+02 -.103E+02   0.102E+01 -.211E+01 -.140E+01
   0.271E+02 -.214E+02 0.389E+01   -.239E+02 0.212E+02 -.262E+01   -.288E+01 0.295E+00 -.111E+01
   0.256E+02 0.174E+02 0.476E+01   -.223E+02 -.173E+02 -.348E+01   -.284E+01 -.160E+00 -.112E+01
   -.111E+02 -.317E+02 -.113E+02   0.104E+02 0.303E+02 0.102E+02   0.683E+00 0.135E+01 0.113E+01
   -.111E+02 0.319E+02 -.112E+02   0.104E+02 -.305E+02 0.100E+02   0.682E+00 -.134E+01 0.113E+01
   -.135E+03 -.108E+02 -.490E+02   0.132E+03 0.108E+02 0.482E+02   0.278E+01 -.369E-01 0.735E+00
   0.691E+02 -.127E+03 0.956E+02   -.674E+02 0.124E+03 -.936E+02   -.158E+01 0.229E+01 -.188E+01
   0.665E+02 -.132E+03 -.497E+02   -.650E+02 0.130E+03 0.488E+02   -.135E+01 0.218E+01 0.875E+00
   0.701E+02 0.126E+03 0.961E+02   -.684E+02 -.124E+03 -.940E+02   -.156E+01 -.229E+01 -.187E+01
   -.134E+03 0.107E+02 -.497E+02   0.131E+03 -.107E+02 0.489E+02   0.279E+01 0.308E-01 0.728E+00
   0.655E+02 0.135E+03 -.487E+02   -.640E+02 -.132E+03 0.478E+02   -.136E+01 -.218E+01 0.881E+00
 -----------------------------------------------------------------------------------------------
   0.285E+01 -.111E+00 0.375E+01   -.213E-13 0.284E-13 -.711E-13   -.260E+01 0.131E+00 -.331E+01
 
 
 POSITION                                       TOTAL-FORCE (eV/Angst)
 -----------------------------------------------------------------------------------
      2.13385     -2.80652      0.74958        -0.000086     -0.002697      0.000226
      1.08288      2.80652      3.78735        -0.002308      0.000377     -0.001367
      5.40919     -0.98301      0.77726        -0.017242      0.051579      0.005833
      4.35326      0.97432      3.81498         0.003430     -0.001187      0.000916
      1.02081     -0.97328      3.66185        -0.000382      0.005199      0.004956
      2.07178      0.97328      0.62409        -0.003383     -0.014094      0.001107
      2.15090      4.69667      3.05304         0.003096      0.001845     -0.002803
      1.11215     -0.89759      5.98620         0.006634     -0.005289      0.000063
      2.14287     -2.74882      3.03886        -0.001656      0.001402     -0.001530
      2.16313      0.89759      2.94844         0.000694      0.006187      0.000935
      1.09993     -4.69667      6.09081        -0.003757     -0.017561      0.005182
      1.09189      2.74882      6.07662         0.014960     -0.025758     -0.013517
 -----------------------------------------------------------------------------------
    total drift:                               -0.064877      0.011079     -0.051608


--------------------------------------------------------------------------------------------------------



  FREE ENERGIE OF THE ION-ELECTRON SYSTEM (eV)
  ---------------------------------------------------
  free  energy   TOTEN  =       -69.59545286 eV

  energy  without entropy=      -69.59602180  energy(sigma->0) =      -69.59564251
 


--------------------------------------------------------------------------------------------------------


    POTLOK:  cpu time    2.21: real time    2.22


--------------------------------------------------------------------------------------------------------


 writing wavefunctions
     LOOP+:  cpu time 6067.33: real time 6066.97
    4ORBIT:  cpu time    0.00: real time    0.00

 total amount of memory used by VASP on root node   155705. kBytes
========================================================================

   base      :      30000. kBytes
   nonl-proj :      74517. kBytes
   fftplans  :        702. kBytes
   grid      :       2400. kBytes
   one-center:        186. kBytes
   HF        :        194. kBytes
   nonlr-proj:       5130. kBytes
   wavefun   :      42576. kBytes
 
  
  
 General timing and accounting informations for this job:
 ========================================================
  
                  Total CPU time used (sec):     6105.106
                            User time (sec):     6099.141
                          System time (sec):        5.965
                         Elapsed time (sec):     6112.084
  
                   Maximum memory used (kb):      297540.
                   Average memory used (kb):           0.
  
                          Minor page faults:        78590
                          Major page faults:           37
                 Voluntary context switches:         4678
