       N       E                     dE             d eps       ncg     rms          ort
SDA:   1     0.755374992869E+02    0.75537E+02   -0.21316E+03  3360   0.533E+03 0.000E+00
DMP:   2    -0.838333867411E+01   -0.83921E+02   -0.14689E+03  3360   0.395E+03-0.736E+02
DMP:   3    -0.151642487368E+02   -0.67809E+01   -0.20373E+03  3360   0.693E+03-0.482E+03
DMP:   4    -0.226480875813E+02   -0.74838E+01   -0.10739E+03  3360   0.390E+03-0.319E+03
DMP:   5    -0.608072272083E+02   -0.38159E+02   -0.15062E+02  3360   0.706E+02-0.863E+02
DMP:   6    -0.659212053436E+02   -0.51140E+01   -0.82021E+01  3360   0.247E+02-0.111E+02
DMP:   7    -0.674646359400E+02   -0.15434E+01   -0.41522E+01  3360   0.148E+02-0.115E+02
DMP:   8    -0.690829840278E+02   -0.16183E+01   -0.77330E+00  3360   0.284E+01-0.238E+01
DMP:   9    -0.693944372697E+02   -0.31145E+00   -0.38766E+00  3360   0.111E+01-0.366E+00
DMP:  10    -0.694984747791E+02   -0.10404E+00   -0.15287E+00  3360   0.550E+00-0.439E+00
DMP:  11    -0.695683499047E+02   -0.69875E-01   -0.36919E-01  3360   0.105E+00-0.340E-01
DMP:  12    -0.695806891993E+02   -0.12339E-01   -0.22930E-01  3360   0.692E-01-0.311E-01
DMP:  13    -0.695903850863E+02   -0.96959E-02   -0.51315E-02  3360   0.162E-01-0.879E-02
DMP:  14    -0.695928479766E+02   -0.24629E-02   -0.37948E-02  3360   0.968E-02-0.506E-03
DMP:  15    -0.695943599862E+02   -0.15120E-02   -0.10418E-02  3360   0.334E-02-0.193E-02
DMP:  16    -0.695949338447E+02   -0.57386E-03   -0.41092E-03  3360   0.919E-03 0.284E-03
DMP:  17    -0.695951076672E+02   -0.17382E-03   -0.20967E-03  3360   0.582E-03-0.151E-03
DMP:  18    -0.695952253192E+02   -0.11765E-03   -0.56392E-04  3360   0.120E-03 0.559E-04
DMP:  19    -0.695952543412E+02   -0.29022E-04   -0.35469E-04  3360   0.887E-04-0.734E-07
DMP:  20    -0.695952742194E+02   -0.19878E-04   -0.11638E-04  3360   0.242E-04 0.127E-04
DMP:  21    -0.695952816601E+02   -0.74407E-05   -0.70614E-05  3360   0.141E-04 0.925E-05
   1 F= -.69595282E+02 E0= -.69595471E+02  d E =0.567273E-03
