<?xml version="1.0" encoding="ISO-8859-1"?>
<modeling>
 <generator>
  <i name="program" type="string">vasp </i>
  <i name="version" type="string">5.3.3  </i>
  <i name="subversion" type="string">18Dez12 (build Nov 13 2015 09:58:40) complex                          parallel </i>
  <i name="platform" type="string">LinuxIFC </i>
  <i name="date" type="string">2017 10 18 </i>
  <i name="time" type="string">13:20:26 </i>
 </generator>
 <incar>
  <i type="string" name="SYSTEM"> CGS</i>
  <i type="string" name="PREC">normal</i>
  <i type="string" name="ALGO"> D</i>
  <i type="logical" name="LDIAG"> T  </i>
  <i name="EDIFF">      0.00001000</i>
  <i name="ENCUT">    400.00000000</i>
  <i name="TIME">      0.40000000</i>
  <i type="int" name="ISMEAR">     1</i>
  <i name="SIGMA">      0.10000000</i>
  <i type="logical" name="LHFCALC"> T  </i>
  <i type="string" name="GGA"> PE</i>
  <i name="HFSCREEN">      0.20000000</i>
  <i name="AEXX">      0.25000000</i>
  <i type="string" name="PRECFOCK">fast</i>
 </incar>
 <kpoints>
  <generation param="Gamma">
   <v type="int" name="divisions">       4        4        5 </v>
   <v name="usershift">      0.00000000       0.00000000       0.00000000 </v>
   <v name="genvec1">      0.25000000       0.00000000       0.00000000 </v>
   <v name="genvec2">      0.00000000       0.25000000       0.00000000 </v>
   <v name="genvec3">      0.00000000       0.00000000       0.20000000 </v>
   <v name="shift">      0.00000000       0.00000000       0.00000000 </v>
  </generation>
  <varray name="kpointlist" >
   <v>       0.00000000       0.00000000       0.00000000 </v>
   <v>       0.25000000       0.00000000       0.00000000 </v>
   <v>       0.50000000       0.00000000       0.00000000 </v>
   <v>       0.00000000       0.25000000       0.00000000 </v>
   <v>       0.25000000       0.25000000       0.00000000 </v>
   <v>       0.50000000       0.25000000      -0.00000000 </v>
   <v>      -0.25000000       0.25000000       0.00000000 </v>
   <v>       0.00000000       0.50000000       0.00000000 </v>
   <v>       0.25000000       0.50000000      -0.00000000 </v>
   <v>       0.50000000       0.50000000       0.00000000 </v>
   <v>      -0.00000000      -0.00000000       0.20000000 </v>
   <v>       0.25000000       0.00000000       0.20000000 </v>
   <v>       0.50000000       0.00000000       0.20000000 </v>
   <v>      -0.25000000      -0.00000000       0.20000000 </v>
   <v>       0.00000000       0.25000000       0.20000000 </v>
   <v>       0.25000000       0.25000000       0.20000000 </v>
   <v>       0.50000000       0.25000000       0.20000000 </v>
   <v>      -0.25000000       0.25000000       0.20000000 </v>
   <v>       0.00000000       0.50000000       0.20000000 </v>
   <v>       0.25000000       0.50000000       0.20000000 </v>
   <v>       0.50000000       0.50000000       0.20000000 </v>
   <v>      -0.25000000       0.50000000       0.20000000 </v>
   <v>      -0.00000000      -0.25000000       0.20000000 </v>
   <v>       0.25000000      -0.25000000       0.20000000 </v>
   <v>       0.50000000      -0.25000000       0.20000000 </v>
   <v>      -0.25000000      -0.25000000       0.20000000 </v>
   <v>      -0.00000000      -0.00000000       0.40000000 </v>
   <v>       0.25000000       0.00000000       0.40000000 </v>
   <v>       0.50000000       0.00000000       0.40000000 </v>
   <v>      -0.25000000       0.00000000       0.40000000 </v>
   <v>       0.00000000       0.25000000       0.40000000 </v>
   <v>       0.25000000       0.25000000       0.40000000 </v>
   <v>       0.50000000       0.25000000       0.40000000 </v>
   <v>      -0.25000000       0.25000000       0.40000000 </v>
   <v>       0.00000000       0.50000000       0.40000000 </v>
   <v>       0.25000000       0.50000000       0.40000000 </v>
   <v>       0.50000000       0.50000000       0.40000000 </v>
   <v>      -0.25000000       0.50000000       0.40000000 </v>
   <v>       0.00000000      -0.25000000       0.40000000 </v>
   <v>       0.25000000      -0.25000000       0.40000000 </v>
   <v>       0.50000000      -0.25000000       0.40000000 </v>
   <v>      -0.25000000      -0.25000000       0.40000000 </v>
  </varray>
  <varray name="weights" >
   <v>       0.01250000 </v>
   <v>       0.02500000 </v>
   <v>       0.01250000 </v>
   <v>       0.02500000 </v>
   <v>       0.02500000 </v>
   <v>       0.02500000 </v>
   <v>       0.02500000 </v>
   <v>       0.01250000 </v>
   <v>       0.02500000 </v>
   <v>       0.01250000 </v>
   <v>       0.02500000 </v>
   <v>       0.02500000 </v>
   <v>       0.02500000 </v>
   <v>       0.02500000 </v>
   <v>       0.02500000 </v>
   <v>       0.02500000 </v>
   <v>       0.02500000 </v>
   <v>       0.02500000 </v>
   <v>       0.02500000 </v>
   <v>       0.02500000 </v>
   <v>       0.02500000 </v>
   <v>       0.02500000 </v>
   <v>       0.02500000 </v>
   <v>       0.02500000 </v>
   <v>       0.02500000 </v>
   <v>       0.02500000 </v>
   <v>       0.02500000 </v>
   <v>       0.02500000 </v>
   <v>       0.02500000 </v>
   <v>       0.02500000 </v>
   <v>       0.02500000 </v>
   <v>       0.02500000 </v>
   <v>       0.02500000 </v>
   <v>       0.02500000 </v>
   <v>       0.02500000 </v>
   <v>       0.02500000 </v>
   <v>       0.02500000 </v>
   <v>       0.02500000 </v>
   <v>       0.02500000 </v>
   <v>       0.02500000 </v>
   <v>       0.02500000 </v>
   <v>       0.02500000 </v>
  </varray>
 </kpoints>
 <parameters>
  <separator name="general" >
   <i type="string" name="SYSTEM">CGS</i>
   <i type="logical" name="LCOMPAT"> F  </i>
  </separator>
  <separator name="electronic" >
   <i type="string" name="PREC">normal</i>
   <i name="ENMAX">    400.00000000</i>
   <i name="ENAUG">    758.23300000</i>
   <i name="EDIFF">      0.00001000</i>
   <i type="int" name="IALGO">    53</i>
   <i type="int" name="IWAVPR">    10</i>
   <i type="int" name="NBANDS">    80</i>
   <i name="NELECT">    112.00000000</i>
   <i type="int" name="TURBO">     0</i>
   <i type="int" name="IRESTART">     0</i>
   <i type="int" name="NREBOOT">     0</i>
   <i type="int" name="NMIN">     0</i>
   <i name="EREF">      0.00000000</i>
   <separator name="electronic smearing" >
    <i type="int" name="ISMEAR">     1</i>
    <i name="SIGMA">      0.10000000</i>
    <i name="KSPACING">      0.50000000</i>
    <i type="logical" name="KGAMMA"> T  </i>
   </separator>
   <separator name="electronic projectors" >
    <i type="logical" name="LREAL"> F  </i>
    <v name="ROPT">      0.00000000      0.00000000      0.00000000</v>
    <i type="int" name="LMAXPAW">  -100</i>
    <i type="int" name="LMAXMIX">     2</i>
    <i type="logical" name="NLSPLINE"> F  </i>
   </separator>
   <separator name="electronic startup" >
    <i type="int" name="ISTART">     1</i>
    <i type="int" name="ICHARG">     0</i>
    <i type="int" name="INIWAV">     1</i>
   </separator>
   <separator name="electronic spin" >
    <i type="int" name="ISPIN">     1</i>
    <i type="logical" name="LNONCOLLINEAR"> F  </i>
    <v name="MAGMOM">      1.00000000      1.00000000      1.00000000      1.00000000      1.00000000      1.00000000      1.00000000      1.00000000      1.00000000      1.00000000      1.00000000      1.00000000</v>
    <i name="NUPDOWN">     -1.00000000</i>
    <i type="logical" name="LSORBIT"> F  </i>
    <v name="SAXIS">      0.00000000      0.00000000      1.00000000</v>
    <i type="logical" name="LSPIRAL"> F  </i>
    <v name="QSPIRAL">      0.00000000      0.00000000      0.00000000</v>
    <i type="logical" name="LZEROZ"> F  </i>
   </separator>
   <separator name="electronic exchange-correlation" >
    <i type="logical" name="LASPH"> F  </i>
    <i type="logical" name="LMETAGGA"> F  </i>
   </separator>
   <separator name="electronic convergence" >
    <i type="int" name="NELM">    60</i>
    <i type="int" name="NELMDL">     0</i>
    <i type="int" name="NELMIN">     2</i>
    <i name="ENINI">    400.00000000</i>
    <separator name="electronic convergence detail" >
     <i type="logical" name="LDIAG"> T  </i>
     <i type="logical" name="LSUBROT"> T  </i>
     <i name="WEIMIN">      0.00000000</i>
     <i name="EBREAK">      0.00000003</i>
     <i name="DEPER">      0.30000000</i>
     <i type="int" name="NRMM">     4</i>
     <i name="TIME">      0.40000000</i>
    </separator>
   </separator>
   <separator name="electronic mixer" >
    <i name="AMIX">      0.40000000</i>
    <i name="BMIX">      1.00000000</i>
    <i name="AMIN">      0.10000000</i>
    <i name="AMIX_MAG">      1.60000000</i>
    <i name="BMIX_MAG">      1.00000000</i>
    <separator name="electronic mixer details" >
     <i type="int" name="IMIX">     4</i>
     <i type="int" name="MAXMIX">   -45</i>
     <i name="WC">    100.00000000</i>
     <i type="int" name="INIMIX">     1</i>
     <i type="int" name="MIXPRE">     1</i>
     <i type="int" name="MREMOVE">     5</i>
    </separator>
   </separator>
   <separator name="electronic dipolcorrection" >
    <i type="logical" name="LDIPOL"> F  </i>
    <i type="logical" name="LMONO"> F  </i>
    <i type="int" name="IDIPOL">     0</i>
    <i name="EPSILON">      1.00000000</i>
    <v name="DIPOL">   -100.00000000   -100.00000000   -100.00000000</v>
    <i name="EFIELD">      0.00000000</i>
   </separator>
  </separator>
  <separator name="grids" >
   <i type="int" name="NGX">    32</i>
   <i type="int" name="NGY">    32</i>
   <i type="int" name="NGZ">    32</i>
   <i type="int" name="NGXF">    64</i>
   <i type="int" name="NGYF">    64</i>
   <i type="int" name="NGZF">    64</i>
   <i type="logical" name="ADDGRID"> F  </i>
  </separator>
  <separator name="ionic" >
   <i type="int" name="NSW">     0</i>
   <i type="int" name="IBRION">    -1</i>
   <i type="int" name="ISIF">     0</i>
   <i name="PSTRESS">      0.00000000</i>
   <i name="EDIFFG">      0.00010000</i>
   <i type="int" name="NFREE">     0</i>
   <i name="POTIM">      0.50000000</i>
   <i name="SMASS">     -3.00000000</i>
   <i name="SCALEE">      1.00000000</i>
  </separator>
  <separator name="ionic md" >
   <i name="TEBEG">      0.00010000</i>
   <i name="TEEND">      0.00010000</i>
   <i type="int" name="NBLOCK">     1</i>
   <i type="int" name="KBLOCK">     1</i>
   <i type="int" name="NPACO">   256</i>
   <i name="APACO">     16.00000000</i>
  </separator>
  <separator name="symmetry" >
   <i type="int" name="ISYM">     3</i>
   <i name="SYMPREC">      0.00001000</i>
  </separator>
  <separator name="dos" >
   <i type="logical" name="LORBIT"> F  </i>
   <v name="RWIGS">     -1.00000000     -1.00000000     -1.00000000</v>
   <i type="int" name="NEDOS">   301</i>
   <i name="EMIN">     10.00000000</i>
   <i name="EMAX">    -10.00000000</i>
   <i name="EFERMI">      0.00000000</i>
  </separator>
  <separator name="writing" >
   <i type="int" name="NWRITE">     2</i>
   <i type="logical" name="LWAVE"> T  </i>
   <i type="logical" name="LCHARG"> T  </i>
   <i type="logical" name="LPARD"> F  </i>
   <i type="logical" name="LVTOT"> F  </i>
   <i type="logical" name="LVHAR"> F  </i>
   <i type="logical" name="LELF"> F  </i>
   <i type="logical" name="LOPTICS"> F  </i>
   <v name="STM">      0.00000000      0.00000000      0.00000000      0.00000000      0.00000000      0.00000000      0.00000000</v>
  </separator>
  <separator name="performance" >
   <i type="int" name="NPAR">    16</i>
   <i type="int" name="NSIM">     4</i>
   <i type="int" name="NBLK">    -1</i>
   <i type="logical" name="LPLANE"> T  </i>
   <i type="logical" name="LSCALAPACK"> T  </i>
   <i type="logical" name="LSCAAWARE"> F  </i>
   <i type="logical" name="LSCALU"> F  </i>
   <i type="logical" name="LASYNC"> F  </i>
   <i type="logical" name="LORBITALREAL"> F  </i>
  </separator>
  <separator name="miscellaneous" >
   <i type="int" name="IDIOT">     3</i>
   <i type="logical" name="LMUSIC"> F  </i>
   <v name="POMASS">     63.54600000     72.61000000     32.06600000</v>
   <v name="DARWINR">      0.00000000      0.00000000      0.00000000</v>
   <v name="DARWINV">      1.00000000      1.00000000      1.00000000</v>
   <i type="logical" name="LCORR"> T  </i>
  </separator>
  <i type="logical" name="GGA_COMPAT"> T  </i>
  <i type="logical" name="LBERRY"> F  </i>
  <i type="int" name="ICORELEVEL">     0</i>
  <i type="logical" name="LDAU"> F  </i>
  <i type="int" name="I_CONSTRAINED_M">     0</i>
  <separator name="electronic exchange-correlation" >
   <i type="string" name="GGA">PE</i>
   <i type="int" name="VOSKOWN">     0</i>
   <i type="logical" name="LHFCALC"> T  </i>
   <i type="string" name="PRECFOCK">fast</i>
   <i type="logical" name="LSYMGRAD"> F  </i>
   <i type="logical" name="LHFONE"> F  </i>
   <i type="logical" name="LRHFCALC"> F  </i>
   <i type="logical" name="LTHOMAS"> F  </i>
   <i type="logical" name="LMODELHF"> F  </i>
   <i name="ENCUT4O">     -1.00000000</i>
   <i type="int" name="EXXOEP">     0</i>
   <i type="int" name="FOURORBIT">     0</i>
   <i name="AEXX">      0.25000000</i>
   <i name="HFALPHA">     -1.00000000</i>
   <i name="MCALPHA">      0.00000000</i>
   <i name="ALDAX">      0.75000000</i>
   <i name="AGGAX">      0.75000000</i>
   <i name="ALDAC">      1.00000000</i>
   <i name="AGGAC">      1.00000000</i>
   <i type="int" name="NKREDX">     1</i>
   <i type="int" name="NKREDY">     1</i>
   <i type="int" name="NKREDZ">     1</i>
   <i type="logical" name="SHIFTRED"> F  </i>
   <i type="logical" name="ODDONLY"> F  </i>
   <i type="logical" name="EVENONLY"> F  </i>
   <i type="int" name="LMAXFOCK">     4</i>
   <i type="int" name="NMAXFOCKAE">     1</i>
   <i type="logical" name="LFOCKAEDFT"> F  </i>
   <i name="HFSCREEN">      0.20000000</i>
   <i name="HFSCREENC">      0.20000000</i>
   <i type="int" name="NBANDSGWLOW">     1</i>
  </separator>
  <separator name="vdW DFT" >
   <i type="logical" name="LUSE_VDW"> F  </i>
   <i name="Zab_VDW">     -0.84910000</i>
   <i name="PARAM1">      0.12340000</i>
   <i name="PARAM2">      1.00000000</i>
   <i name="PARAM3">      0.00000000</i>
  </separator>
  <separator name="model GW" >
   <i type="int" name="MODEL_GW">     0</i>
   <i name="MODEL_EPS0">     11.09505304</i>
   <i name="MODEL_ALPHA">      1.00000000</i>
  </separator>
  <separator name="linear response parameters" >
   <i type="logical" name="LEPSILON"> F  </i>
   <i type="logical" name="LRPA"> F  </i>
   <i type="logical" name="LNABLA"> F  </i>
   <i type="logical" name="LVEL"> F  </i>
   <i type="int" name="KINTER">     0</i>
   <i name="CSHIFT">      0.10000000</i>
   <i name="OMEGAMAX">     -1.00000000</i>
   <i name="DEG_THRESHOLD">      0.00200000</i>
  </separator>
  <separator name="orbital magnetization" >
   <i type="logical" name="NUCIND"> F  </i>
   <v name="MAGPOS">      0.00000000      0.00000000      0.00000000</v>
   <i type="logical" name="LNICSALL"> T  </i>
   <i type="logical" name="ORBITALMAG"> F  </i>
   <i type="logical" name="LMAGBLOCH"> F  </i>
   <i type="logical" name="LCHIMAG"> F  </i>
   <i type="logical" name="LGAUGE"> T  </i>
   <i type="int" name="MAGATOM">     0</i>
   <v name="MAGDIPOL">      0.00000000      0.00000000      0.00000000</v>
   <v name="AVECCONST">      0.00000000      0.00000000      0.00000000</v>
  </separator>
  <separator name="response functions" >
   <i type="logical" name="LADDER"> F  </i>
   <i type="logical" name="LFXC"> F  </i>
   <i type="logical" name="LHARTREE"> T  </i>
   <i type="int" name="IBSE">     0</i>
   <i type="logical" name="LTCTE"> F  </i>
   <i type="logical" name="LTETE"> F  </i>
   <i type="logical" name="LTRIPLET"> F  </i>
   <i type="logical" name="LFXCEPS"> F  </i>
   <i type="logical" name="L2ORDER"> F  </i>
   <i type="logical" name="LUSEW"> F  </i>
   <i name="ENCUTGW">     -2.00000000</i>
   <i name="ENCUTGWSOFT">     -2.00000000</i>
   <i name="ENCUTLF">     -1.00000000</i>
   <i type="int" name="LMAXMP2">    -1</i>
   <i name="SCISSOR">      0.00000000</i>
   <i type="int" name="NOMEGA">     0</i>
   <i type="int" name="NOMEGAR">     0</i>
   <i type="int" name="NBANDSGW">    -1</i>
   <i type="int" name="NBANDSO">    -1</i>
   <i type="int" name="NBANDSV">    -1</i>
   <i type="int" name="NELM">     1</i>
   <i type="int" name="DIM">     3</i>
   <i type="int" name="ANTIRES">     0</i>
   <i name="OMEGAMAX">    -30.00000000</i>
   <i name="OMEGATL">   -200.00000000</i>
   <i type="int" name="OMEGAGRID">     0</i>
   <i name="CSHIFT">     -0.10000000</i>
   <i type="logical" name="SELFENERGY"> F  </i>
   <i type="logical" name="LSPECTRAL"> F  </i>
   <i type="logical" name="ODDONLYGW"> F  </i>
   <i type="logical" name="EVENONLYGW"> F  </i>
   <i type="int" name="NKREDLFX">     1</i>
   <i type="int" name="NKREDLFY">     1</i>
   <i type="int" name="NKREDLFZ">     1</i>
   <i type="int" name="MAXMEM">  1800</i>
   <i type="int" name="TELESCOPE">     0</i>
  </separator>
 </parameters>
 <atominfo>
  <atoms>      12 </atoms>
  <types>       3 </types>
  <array name="atoms" >
   <dimension dim="1">ion</dimension>
   <field type="string">element</field>
   <field type="int">atomtype</field>
   <set>
    <rc><c>Cu</c><c>   1</c></rc>
    <rc><c>Cu</c><c>   1</c></rc>
    <rc><c>Cu</c><c>   1</c></rc>
    <rc><c>Cu</c><c>   1</c></rc>
    <rc><c>Ge</c><c>   2</c></rc>
    <rc><c>Ge</c><c>   2</c></rc>
    <rc><c>S </c><c>   3</c></rc>
    <rc><c>S </c><c>   3</c></rc>
    <rc><c>S </c><c>   3</c></rc>
    <rc><c>S </c><c>   3</c></rc>
    <rc><c>S </c><c>   3</c></rc>
    <rc><c>S </c><c>   3</c></rc>
   </set>
  </array>
  <array name="atomtypes" >
   <dimension dim="1">type</dimension>
   <field type="int">atomspertype</field>
   <field type="string">element</field>
   <field>mass</field>
   <field>valence</field>
   <field type="string">pseudopotential</field>
   <set>
    <rc><c>   4</c><c>Cu</c><c>     63.54600000</c><c>     17.00000000</c><c>  PAW_PBE Cu_pv 06Sep2000               </c></rc>
    <rc><c>   2</c><c>Ge</c><c>     72.61000000</c><c>      4.00000000</c><c>  PAW_PBE Ge 05Jan2001                  </c></rc>
    <rc><c>   6</c><c>S </c><c>     32.06600000</c><c>      6.00000000</c><c>  PAW_PBE S 17Jan2003                   </c></rc>
   </set>
  </array>
 </atominfo>
 <structure name="initialpos" >
  <crystal>
   <varray name="basis" >
    <v>       3.22479600      -5.64383000       0.03157200 </v>
    <v>       3.22479600       5.64383000       0.03157200 </v>
    <v>      -2.10194600       0.00000000       6.07553700 </v>
   </varray>
   <i name="volume">    221.90106089 </i>
   <varray name="rec_basis" >
    <v>       0.15452516      -0.08859232       0.05346088 </v>
    <v>       0.15452516       0.08859232       0.05346088 </v>
    <v>      -0.00160600       0.00000000       0.16403888 </v>
   </varray>
  </crystal>
  <varray name="positions" >
   <v>       0.61844300       0.12117100       0.11953300 </v>
   <v>       0.12117100       0.61844300       0.61953300 </v>
   <v>       0.96295700       0.79032200       0.11881300 </v>
   <v>       0.79032200       0.96295700       0.61881300 </v>
   <v>       0.43973200       0.26728100       0.59904700 </v>
   <v>       0.26728100       0.43973200       0.09904700 </v>
   <v>       0.07949800       0.91167500       0.49736300 </v>
   <v>       0.57140300       0.41236400       0.98018400 </v>
   <v>       0.73711100       0.25160040       0.49504900 </v>
   <v>       0.41236400       0.57140300       0.48018400 </v>
   <v>       0.91167500       0.07949800       0.99736300 </v>
   <v>       0.25006200       0.73711100       0.99504900 </v>
  </varray>
 </structure>
 <calculation>
  <scstep>
   <time name="total">  245.66  245.49</time>
   <energy>
    <i name="alphaZ">    339.31929130 </i>
    <i name="ewald">  -9065.44803161 </i>
    <i name="hartreedc">  -8067.43340742 </i>
    <i name="XCdc">    369.90455427 </i>
    <i name="pawpsdc">  16899.66214064 </i>
    <i name="pawaedc"> -17392.47771194 </i>
    <i name="eentropy">     -0.00147266 </i>
    <i name="bandstr">  -1656.42356601 </i>
    <i name="atom">  18320.98302006 </i>
    <i name="e_fr_energy">     75.53749929 </i>
    <i name="e_wo_entrp">     75.53897194 </i>
    <i name="e_0_energy">     75.53799017 </i>
   </energy>
  </scstep>
  <scstep>
   <time name="total">  271.27  271.07</time>
   <energy>
    <i name="e_fr_energy">     -8.38333867 </i>
    <i name="e_wo_entrp">     -8.38264320 </i>
    <i name="e_0_energy">     -8.38310685 </i>
   </energy>
  </scstep>
  <scstep>
   <time name="total">  257.62  257.41</time>
   <energy>
    <i name="e_fr_energy">    -15.16424874 </i>
    <i name="e_wo_entrp">    -15.16450392 </i>
    <i name="e_0_energy">    -15.16433380 </i>
   </energy>
  </scstep>
  <scstep>
   <time name="total">  263.63  263.42</time>
   <energy>
    <i name="e_fr_energy">    -22.64808758 </i>
    <i name="e_wo_entrp">    -22.64844144 </i>
    <i name="e_0_energy">    -22.64820553 </i>
   </energy>
  </scstep>
  <scstep>
   <time name="total">  265.39  265.15</time>
   <energy>
    <i name="e_fr_energy">    -60.80722721 </i>
    <i name="e_wo_entrp">    -60.80784173 </i>
    <i name="e_0_energy">    -60.80743205 </i>
   </energy>
  </scstep>
  <scstep>
   <time name="total">  266.78  266.56</time>
   <energy>
    <i name="e_fr_energy">    -65.92120534 </i>
    <i name="e_wo_entrp">    -65.92189421 </i>
    <i name="e_0_energy">    -65.92143497 </i>
   </energy>
  </scstep>
  <scstep>
   <time name="total">  267.97  267.74</time>
   <energy>
    <i name="e_fr_energy">    -67.46463594 </i>
    <i name="e_wo_entrp">    -67.46508250 </i>
    <i name="e_0_energy">    -67.46478479 </i>
   </energy>
  </scstep>
  <scstep>
   <time name="total">  268.70  268.47</time>
   <energy>
    <i name="e_fr_energy">    -69.08298403 </i>
    <i name="e_wo_entrp">    -69.08372140 </i>
    <i name="e_0_energy">    -69.08322982 </i>
   </energy>
  </scstep>
  <scstep>
   <time name="total">  260.36  260.14</time>
   <energy>
    <i name="e_fr_energy">    -69.39443727 </i>
    <i name="e_wo_entrp">    -69.39531250 </i>
    <i name="e_0_energy">    -69.39472901 </i>
   </energy>
  </scstep>
  <scstep>
   <time name="total">  265.67  265.44</time>
   <energy>
    <i name="e_fr_energy">    -69.49847478 </i>
    <i name="e_wo_entrp">    -69.49919755 </i>
    <i name="e_0_energy">    -69.49871570 </i>
   </energy>
  </scstep>
  <scstep>
   <time name="total">  258.33  258.12</time>
   <energy>
    <i name="e_fr_energy">    -69.56834990 </i>
    <i name="e_wo_entrp">    -69.56895566 </i>
    <i name="e_0_energy">    -69.56855182 </i>
   </energy>
  </scstep>
  <scstep>
   <time name="total">  264.20  263.97</time>
   <energy>
    <i name="e_fr_energy">    -69.58068920 </i>
    <i name="e_wo_entrp">    -69.58124290 </i>
    <i name="e_0_energy">    -69.58087377 </i>
   </energy>
  </scstep>
  <scstep>
   <time name="total">  260.92  260.71</time>
   <energy>
    <i name="e_fr_energy">    -69.59038509 </i>
    <i name="e_wo_entrp">    -69.59092704 </i>
    <i name="e_0_energy">    -69.59056574 </i>
   </energy>
  </scstep>
  <scstep>
   <time name="total">  257.65  257.43</time>
   <energy>
    <i name="e_fr_energy">    -69.59284798 </i>
    <i name="e_wo_entrp">    -69.59340757 </i>
    <i name="e_0_energy">    -69.59303451 </i>
   </energy>
  </scstep>
  <scstep>
   <time name="total">  256.55  256.33</time>
   <energy>
    <i name="e_fr_energy">    -69.59435999 </i>
    <i name="e_wo_entrp">    -69.59493265 </i>
    <i name="e_0_energy">    -69.59455088 </i>
   </energy>
  </scstep>
  <scstep>
   <time name="total">  261.29  261.07</time>
   <energy>
    <i name="e_fr_energy">    -69.59493384 </i>
    <i name="e_wo_entrp">    -69.59550756 </i>
    <i name="e_0_energy">    -69.59512508 </i>
   </energy>
  </scstep>
  <scstep>
   <time name="total">  266.28  266.04</time>
   <energy>
    <i name="e_fr_energy">    -69.59510767 </i>
    <i name="e_wo_entrp">    -69.59567839 </i>
    <i name="e_0_energy">    -69.59529791 </i>
   </energy>
  </scstep>
  <scstep>
   <time name="total">  266.22  266.02</time>
   <energy>
    <i name="e_fr_energy">    -69.59522532 </i>
    <i name="e_wo_entrp">    -69.59579299 </i>
    <i name="e_0_energy">    -69.59541454 </i>
   </energy>
  </scstep>
  <scstep>
   <time name="total">  258.43  258.22</time>
   <energy>
    <i name="e_fr_energy">    -69.59525434 </i>
    <i name="e_wo_entrp">    -69.59582063 </i>
    <i name="e_0_energy">    -69.59544310 </i>
   </energy>
  </scstep>
  <scstep>
   <time name="total">  259.94  259.72</time>
   <energy>
    <i name="e_fr_energy">    -69.59527422 </i>
    <i name="e_wo_entrp">    -69.59584091 </i>
    <i name="e_0_energy">    -69.59546312 </i>
   </energy>
  </scstep>
  <scstep>
   <time name="total">  254.39  254.18</time>
   <energy>
    <i name="alphaZ">    339.31929130 </i>
    <i name="ewald">  -9065.44803161 </i>
    <i name="hartreedc">  -8148.71379876 </i>
    <i name="XCdc">    372.07063946 </i>
    <i name="pawpsdc">  15922.01395320 </i>
    <i name="pawaedc"> -16407.18835633 </i>
    <i name="eentropy">      0.00056727 </i>
    <i name="bandstr">  -1742.70443328 </i>
    <i name="atom">  18320.98302006 </i>
    <i name="e_fr_energy">    -69.59528166 </i>
    <i name="e_wo_entrp">    -69.59584893 </i>
    <i name="e_0_energy">    -69.59547075 </i>
   </energy>
  </scstep>
  <structure>
   <crystal>
    <varray name="basis" >
     <v>       3.22479600      -5.64383000       0.03157200 </v>
     <v>       3.22479600       5.64383000       0.03157200 </v>
     <v>      -2.10194600       0.00000000       6.07553700 </v>
    </varray>
    <i name="volume">    221.90106089 </i>
    <varray name="rec_basis" >
     <v>       0.15452516      -0.08859232       0.05346088 </v>
     <v>       0.15452516       0.08859232       0.05346088 </v>
     <v>      -0.00160600       0.00000000       0.16403888 </v>
    </varray>
   </crystal>
   <varray name="positions" >
    <v>       0.61844300       0.12117100       0.11953300 </v>
    <v>       0.12117100       0.61844300       0.61953300 </v>
    <v>       0.96295700       0.79032200       0.11881300 </v>
    <v>       0.79032200       0.96295700       0.61881300 </v>
    <v>       0.43973200       0.26728100       0.59904700 </v>
    <v>       0.26728100       0.43973200       0.09904700 </v>
    <v>       0.07949800       0.91167500       0.49736300 </v>
    <v>       0.57140300       0.41236400       0.98018400 </v>
    <v>       0.73711100       0.25160040       0.49504900 </v>
    <v>       0.41236400       0.57140300       0.48018400 </v>
    <v>       0.91167500       0.07949800       0.99736300 </v>
    <v>       0.25006200       0.73711100       0.99504900 </v>
   </varray>
  </structure>
  <varray name="forces" >
   <v>      -0.00437827      -0.00210982      -0.00057329 </v>
   <v>       0.01295836       0.00062146       0.00627345 </v>
   <v>       0.00180673      -0.00059995       0.00088821 </v>
   <v>       0.01406080       0.02300543      -0.00779393 </v>
   <v>      -0.02056515       0.05253164       0.01597333 </v>
   <v>       0.00161720      -0.00794400       0.00438780 </v>
   <v>       0.01127946       0.00750131      -0.00231841 </v>
   <v>      -0.00036997      -0.00354419      -0.00187135 </v>
   <v>      -0.02223782      -0.09268796      -0.01096432 </v>
   <v>       0.00310380       0.02231885      -0.00070395 </v>
   <v>       0.00177741       0.00341154      -0.00563176 </v>
   <v>       0.00094744      -0.00250432       0.00233422 </v>
  </varray>
  <energy>
   <i name="e_fr_energy">    -69.59528166 </i>
   <i name="e_wo_entrp">    -69.59547075 </i>
   <i name="e_0_energy">      0.00056727 </i>
  </energy>
  <time name="totalsc"> 6048.52 6044.98</time>
  <eigenvalues>
   <array>
    <dimension dim="1">band</dimension>
    <dimension dim="2">kpoint</dimension>
    <dimension dim="3">spin</dimension>
    <field>eigene</field>
    <field>occ</field>
    <set>
     <set comment="spin 1">
      <set comment="kpoint 1">
       <r>  -68.6487    1.0000 </r>
       <r>  -68.6453    1.0000 </r>
       <r>  -68.6337    1.0000 </r>
       <r>  -68.6250    1.0000 </r>
       <r>  -68.6178    1.0000 </r>
       <r>  -68.6139    1.0000 </r>
       <r>  -68.6000    1.0000 </r>
       <r>  -68.5962    1.0000 </r>
       <r>  -68.5779    1.0000 </r>
       <r>  -68.5700    1.0000 </r>
       <r>  -68.5611    1.0000 </r>
       <r>  -68.5513    1.0000 </r>
       <r>  -12.7227    1.0000 </r>
       <r>  -11.1334    1.0000 </r>
       <r>  -10.9170    1.0000 </r>
       <r>  -10.6024    1.0000 </r>
       <r>  -10.2540    1.0000 </r>
       <r>  -10.2366    1.0000 </r>
       <r>   -5.9841    1.0000 </r>
       <r>   -4.9851    1.0000 </r>
       <r>   -2.7614    1.0000 </r>
       <r>   -2.2108    1.0000 </r>
       <r>   -2.0733    1.0000 </r>
       <r>   -1.9229    1.0000 </r>
       <r>   -1.5764    1.0000 </r>
       <r>   -0.9780    1.0000 </r>
       <r>   -0.9507    1.0000 </r>
       <r>   -0.6847    1.0000 </r>
       <r>   -0.3990    1.0000 </r>
       <r>   -0.2755    1.0000 </r>
       <r>   -0.2628    1.0000 </r>
       <r>   -0.2347    1.0000 </r>
       <r>   -0.1886    1.0000 </r>
       <r>   -0.1529    1.0000 </r>
       <r>   -0.0353    1.0000 </r>
       <r>    0.0302    1.0000 </r>
       <r>    1.3493    1.0000 </r>
       <r>    1.3626    1.0000 </r>
       <r>    1.4142    1.0000 </r>
       <r>    1.4597    1.0000 </r>
       <r>    1.4721    1.0000 </r>
       <r>    1.4758    1.0000 </r>
       <r>    1.5202    1.0000 </r>
       <r>    1.5349    1.0000 </r>
       <r>    1.5741    1.0000 </r>
       <r>    1.7117    1.0000 </r>
       <r>    1.8931    1.0000 </r>
       <r>    1.9284    1.0000 </r>
       <r>    2.0599    1.0000 </r>
       <r>    2.6499    1.0000 </r>
       <r>    2.7318    1.0000 </r>
       <r>    3.0910    1.0000 </r>
       <r>    3.2166    1.0000 </r>
       <r>    4.0031    1.0048 </r>
       <r>    4.0360    1.0137 </r>
       <r>    4.1694    0.8613 </r>
       <r>    5.5409   -0.0000 </r>
       <r>    6.3621   -0.0000 </r>
       <r>    7.6319    0.0000 </r>
       <r>    7.9856    0.0000 </r>
       <r>    8.6204    0.0000 </r>
       <r>    8.7930    0.0000 </r>
       <r>    9.5790    0.0000 </r>
       <r>    9.7370    0.0000 </r>
       <r>    9.8143    0.0000 </r>
       <r>   10.4167    0.0000 </r>
       <r>   10.5815    0.0000 </r>
       <r>   10.6969    0.0000 </r>
       <r>   10.7116    0.0000 </r>
       <r>   11.2733    0.0000 </r>
       <r>   11.7132    0.0000 </r>
       <r>   12.3972    0.0000 </r>
       <r>   12.4539    0.0000 </r>
       <r>   12.7294    0.0000 </r>
       <r>   13.3204    0.0000 </r>
       <r>   13.3787    0.0000 </r>
       <r>   13.8343    0.0000 </r>
       <r>   13.8828    0.0000 </r>
       <r>   14.1443    0.0000 </r>
       <r>   14.1827    0.0000 </r>
      </set>
      <set comment="kpoint 2">
       <r>  -68.6487    1.0000 </r>
       <r>  -68.6453    1.0000 </r>
       <r>  -68.6337    1.0000 </r>
       <r>  -68.6249    1.0000 </r>
       <r>  -68.6177    1.0000 </r>
       <r>  -68.6138    1.0000 </r>
       <r>  -68.6001    1.0000 </r>
       <r>  -68.5962    1.0000 </r>
       <r>  -68.5779    1.0000 </r>
       <r>  -68.5700    1.0000 </r>
       <r>  -68.5611    1.0000 </r>
       <r>  -68.5513    1.0000 </r>
       <r>  -12.5976    1.0000 </r>
       <r>  -11.1319    1.0000 </r>
       <r>  -10.9819    1.0000 </r>
       <r>  -10.6763    1.0000 </r>
       <r>  -10.3671    1.0000 </r>
       <r>  -10.2810    1.0000 </r>
       <r>   -5.9321    1.0000 </r>
       <r>   -4.7739    1.0000 </r>
       <r>   -2.6456    1.0000 </r>
       <r>   -2.2540    1.0000 </r>
       <r>   -2.0883    1.0000 </r>
       <r>   -1.6910    1.0000 </r>
       <r>   -1.3473    1.0000 </r>
       <r>   -0.9977    1.0000 </r>
       <r>   -0.7676    1.0000 </r>
       <r>   -0.6189    1.0000 </r>
       <r>   -0.5529    1.0000 </r>
       <r>   -0.4384    1.0000 </r>
       <r>   -0.3612    1.0000 </r>
       <r>   -0.2399    1.0000 </r>
       <r>   -0.1910    1.0000 </r>
       <r>   -0.1690    1.0000 </r>
       <r>   -0.0428    1.0000 </r>
       <r>    0.0398    1.0000 </r>
       <r>    1.2802    1.0000 </r>
       <r>    1.3377    1.0000 </r>
       <r>    1.3563    1.0000 </r>
       <r>    1.3917    1.0000 </r>
       <r>    1.4267    1.0000 </r>
       <r>    1.4730    1.0000 </r>
       <r>    1.5008    1.0000 </r>
       <r>    1.5301    1.0000 </r>
       <r>    1.7254    1.0000 </r>
       <r>    1.8590    1.0000 </r>
       <r>    2.0586    1.0000 </r>
       <r>    2.0964    1.0000 </r>
       <r>    2.2314    1.0000 </r>
       <r>    2.4143    1.0000 </r>
       <r>    2.5557    1.0000 </r>
       <r>    2.8248    1.0000 </r>
       <r>    2.9476    1.0000 </r>
       <r>    3.2416    1.0000 </r>
       <r>    3.6598    1.0000 </r>
       <r>    4.0369    1.0141 </r>
       <r>    6.1743   -0.0000 </r>
       <r>    6.9101   -0.0000 </r>
       <r>    8.1384    0.0000 </r>
       <r>    8.2699    0.0000 </r>
       <r>    8.5961    0.0000 </r>
       <r>    9.0078    0.0000 </r>
       <r>    9.2437    0.0000 </r>
       <r>    9.5325    0.0000 </r>
       <r>    9.8710    0.0000 </r>
       <r>   10.3725    0.0000 </r>
       <r>   10.6331    0.0000 </r>
       <r>   10.8117    0.0000 </r>
       <r>   10.9349    0.0000 </r>
       <r>   11.1939    0.0000 </r>
       <r>   11.6613    0.0000 </r>
       <r>   11.7717    0.0000 </r>
       <r>   12.1170    0.0000 </r>
       <r>   12.4400    0.0000 </r>
       <r>   12.6132    0.0000 </r>
       <r>   13.0089    0.0000 </r>
       <r>   13.5046    0.0000 </r>
       <r>   13.8753    0.0000 </r>
       <r>   14.2159    0.0000 </r>
       <r>   14.7112    0.0000 </r>
      </set>
      <set comment="kpoint 3">
       <r>  -68.6485    1.0000 </r>
       <r>  -68.6451    1.0000 </r>
       <r>  -68.6336    1.0000 </r>
       <r>  -68.6249    1.0000 </r>
       <r>  -68.6176    1.0000 </r>
       <r>  -68.6138    1.0000 </r>
       <r>  -68.6000    1.0000 </r>
       <r>  -68.5961    1.0000 </r>
       <r>  -68.5778    1.0000 </r>
       <r>  -68.5700    1.0000 </r>
       <r>  -68.5610    1.0000 </r>
       <r>  -68.5511    1.0000 </r>
       <r>  -12.4381    1.0000 </r>
       <r>  -11.2533    1.0000 </r>
       <r>  -10.9562    1.0000 </r>
       <r>  -10.7645    1.0000 </r>
       <r>  -10.4271    1.0000 </r>
       <r>  -10.3627    1.0000 </r>
       <r>   -5.8694    1.0000 </r>
       <r>   -4.5480    1.0000 </r>
       <r>   -2.4938    1.0000 </r>
       <r>   -2.2476    1.0000 </r>
       <r>   -1.9458    1.0000 </r>
       <r>   -1.4647    1.0000 </r>
       <r>   -1.2290    1.0000 </r>
       <r>   -1.1062    1.0000 </r>
       <r>   -0.9017    1.0000 </r>
       <r>   -0.8617    1.0000 </r>
       <r>   -0.5969    1.0000 </r>
       <r>   -0.5366    1.0000 </r>
       <r>   -0.2720    1.0000 </r>
       <r>   -0.2047    1.0000 </r>
       <r>   -0.1987    1.0000 </r>
       <r>   -0.1447    1.0000 </r>
       <r>   -0.0262    1.0000 </r>
       <r>    0.0813    1.0000 </r>
       <r>    1.2565    1.0000 </r>
       <r>    1.3294    1.0000 </r>
       <r>    1.3463    1.0000 </r>
       <r>    1.3977    1.0000 </r>
       <r>    1.4716    1.0000 </r>
       <r>    1.4815    1.0000 </r>
       <r>    1.5008    1.0000 </r>
       <r>    1.5525    1.0000 </r>
       <r>    1.7520    1.0000 </r>
       <r>    1.7937    1.0000 </r>
       <r>    1.9700    1.0000 </r>
       <r>    2.1481    1.0000 </r>
       <r>    2.3223    1.0000 </r>
       <r>    2.3641    1.0000 </r>
       <r>    2.5515    1.0000 </r>
       <r>    2.6689    1.0000 </r>
       <r>    2.9367    1.0000 </r>
       <r>    3.0769    1.0000 </r>
       <r>    3.2511    1.0000 </r>
       <r>    3.8587    1.0000 </r>
       <r>    6.3893   -0.0000 </r>
       <r>    7.1010    0.0000 </r>
       <r>    7.9797    0.0000 </r>
       <r>    8.2028    0.0000 </r>
       <r>    8.5183    0.0000 </r>
       <r>    8.8229    0.0000 </r>
       <r>    9.3278    0.0000 </r>
       <r>    9.8832    0.0000 </r>
       <r>   10.0209    0.0000 </r>
       <r>   10.5212    0.0000 </r>
       <r>   10.6955    0.0000 </r>
       <r>   10.7948    0.0000 </r>
       <r>   11.1343    0.0000 </r>
       <r>   11.4077    0.0000 </r>
       <r>   11.6128    0.0000 </r>
       <r>   11.7741    0.0000 </r>
       <r>   11.9374    0.0000 </r>
       <r>   12.5036    0.0000 </r>
       <r>   12.7812    0.0000 </r>
       <r>   12.9988    0.0000 </r>
       <r>   13.3999    0.0000 </r>
       <r>   13.5381    0.0000 </r>
       <r>   13.9368    0.0000 </r>
       <r>   14.2666    0.0000 </r>
      </set>
      <set comment="kpoint 4">
       <r>  -68.6487    1.0000 </r>
       <r>  -68.6453    1.0000 </r>
       <r>  -68.6337    1.0000 </r>
       <r>  -68.6249    1.0000 </r>
       <r>  -68.6177    1.0000 </r>
       <r>  -68.6138    1.0000 </r>
       <r>  -68.6001    1.0000 </r>
       <r>  -68.5962    1.0000 </r>
       <r>  -68.5779    1.0000 </r>
       <r>  -68.5700    1.0000 </r>
       <r>  -68.5611    1.0000 </r>
       <r>  -68.5513    1.0000 </r>
       <r>  -12.5979    1.0000 </r>
       <r>  -11.1310    1.0000 </r>
       <r>  -10.9815    1.0000 </r>
       <r>  -10.6763    1.0000 </r>
       <r>  -10.3700    1.0000 </r>
       <r>  -10.2792    1.0000 </r>
       <r>   -5.9320    1.0000 </r>
       <r>   -4.7743    1.0000 </r>
       <r>   -2.6467    1.0000 </r>
       <r>   -2.2524    1.0000 </r>
       <r>   -2.0887    1.0000 </r>
       <r>   -1.6902    1.0000 </r>
       <r>   -1.3454    1.0000 </r>
       <r>   -0.9972    1.0000 </r>
       <r>   -0.7687    1.0000 </r>
       <r>   -0.6189    1.0000 </r>
       <r>   -0.5539    1.0000 </r>
       <r>   -0.4375    1.0000 </r>
       <r>   -0.3599    1.0000 </r>
       <r>   -0.2420    1.0000 </r>
       <r>   -0.1918    1.0000 </r>
       <r>   -0.1673    1.0000 </r>
       <r>   -0.0437    1.0000 </r>
       <r>    0.0396    1.0000 </r>
       <r>    1.2793    1.0000 </r>
       <r>    1.3374    1.0000 </r>
       <r>    1.3556    1.0000 </r>
       <r>    1.3931    1.0000 </r>
       <r>    1.4265    1.0000 </r>
       <r>    1.4726    1.0000 </r>
       <r>    1.4986    1.0000 </r>
       <r>    1.5334    1.0000 </r>
       <r>    1.7254    1.0000 </r>
       <r>    1.8589    1.0000 </r>
       <r>    2.0580    1.0000 </r>
       <r>    2.0950    1.0000 </r>
       <r>    2.2323    1.0000 </r>
       <r>    2.4143    1.0000 </r>
       <r>    2.5572    1.0000 </r>
       <r>    2.8239    1.0000 </r>
       <r>    2.9463    1.0000 </r>
       <r>    3.2415    1.0000 </r>
       <r>    3.6603    1.0000 </r>
       <r>    4.0371    1.0142 </r>
       <r>    6.1734   -0.0000 </r>
       <r>    6.9107   -0.0000 </r>
       <r>    8.1380    0.0000 </r>
       <r>    8.2703    0.0000 </r>
       <r>    8.5947    0.0000 </r>
       <r>    9.0131    0.0000 </r>
       <r>    9.2474    0.0000 </r>
       <r>    9.5333    0.0000 </r>
       <r>    9.8637    0.0000 </r>
       <r>   10.3736    0.0000 </r>
       <r>   10.6329    0.0000 </r>
       <r>   10.8129    0.0000 </r>
       <r>   10.9373    0.0000 </r>
       <r>   11.1839    0.0000 </r>
       <r>   11.6591    0.0000 </r>
       <r>   11.7717    0.0000 </r>
       <r>   12.1184    0.0000 </r>
       <r>   12.4449    0.0000 </r>
       <r>   12.6176    0.0000 </r>
       <r>   13.0062    0.0000 </r>
       <r>   13.5206    0.0000 </r>
       <r>   13.8997    0.0000 </r>
       <r>   14.2690    0.0000 </r>
       <r>   14.8384    0.0000 </r>
      </set>
      <set comment="kpoint 5">
       <r>  -68.6487    1.0000 </r>
       <r>  -68.6453    1.0000 </r>
       <r>  -68.6336    1.0000 </r>
       <r>  -68.6248    1.0000 </r>
       <r>  -68.6178    1.0000 </r>
       <r>  -68.6139    1.0000 </r>
       <r>  -68.6000    1.0000 </r>
       <r>  -68.5961    1.0000 </r>
       <r>  -68.5780    1.0000 </r>
       <r>  -68.5701    1.0000 </r>
       <r>  -68.5611    1.0000 </r>
       <r>  -68.5513    1.0000 </r>
       <r>  -12.4423    1.0000 </r>
       <r>  -11.1941    1.0000 </r>
       <r>  -10.9432    1.0000 </r>
       <r>  -10.8771    1.0000 </r>
       <r>  -10.3927    1.0000 </r>
       <r>  -10.3537    1.0000 </r>
       <r>   -5.8745    1.0000 </r>
       <r>   -4.5219    1.0000 </r>
       <r>   -2.4185    1.0000 </r>
       <r>   -2.2473    1.0000 </r>
       <r>   -1.7928    1.0000 </r>
       <r>   -1.6829    1.0000 </r>
       <r>   -1.3556    1.0000 </r>
       <r>   -1.2998    1.0000 </r>
       <r>   -1.0785    1.0000 </r>
       <r>   -0.6852    1.0000 </r>
       <r>   -0.5257    1.0000 </r>
       <r>   -0.2949    1.0000 </r>
       <r>   -0.2817    1.0000 </r>
       <r>   -0.2205    1.0000 </r>
       <r>   -0.1887    1.0000 </r>
       <r>   -0.1222    1.0000 </r>
       <r>   -0.0916    1.0000 </r>
       <r>    0.0814    1.0000 </r>
       <r>    1.2944    1.0000 </r>
       <r>    1.3121    1.0000 </r>
       <r>    1.4167    1.0000 </r>
       <r>    1.4257    1.0000 </r>
       <r>    1.4625    1.0000 </r>
       <r>    1.4838    1.0000 </r>
       <r>    1.4962    1.0000 </r>
       <r>    1.5728    1.0000 </r>
       <r>    1.6730    1.0000 </r>
       <r>    1.8820    1.0000 </r>
       <r>    1.9422    1.0000 </r>
       <r>    2.1351    1.0000 </r>
       <r>    2.2806    1.0000 </r>
       <r>    2.3196    1.0000 </r>
       <r>    2.5588    1.0000 </r>
       <r>    2.6486    1.0000 </r>
       <r>    2.9008    1.0000 </r>
       <r>    2.9456    1.0000 </r>
       <r>    3.6975    1.0000 </r>
       <r>    3.8290    1.0000 </r>
       <r>    6.1767   -0.0000 </r>
       <r>    6.9949    0.0000 </r>
       <r>    8.0054    0.0000 </r>
       <r>    8.3244    0.0000 </r>
       <r>    8.4383    0.0000 </r>
       <r>    8.5695    0.0000 </r>
       <r>    9.1476    0.0000 </r>
       <r>    9.2481    0.0000 </r>
       <r>   10.3652    0.0000 </r>
       <r>   10.5010    0.0000 </r>
       <r>   10.9165    0.0000 </r>
       <r>   11.1812    0.0000 </r>
       <r>   11.3282    0.0000 </r>
       <r>   11.5623    0.0000 </r>
       <r>   11.8088    0.0000 </r>
       <r>   11.9604    0.0000 </r>
       <r>   12.3155    0.0000 </r>
       <r>   12.5049    0.0000 </r>
       <r>   12.7068    0.0000 </r>
       <r>   12.9162    0.0000 </r>
       <r>   13.3367    0.0000 </r>
       <r>   13.4455    0.0000 </r>
       <r>   14.2603    0.0000 </r>
       <r>   14.3629    0.0000 </r>
      </set>
      <set comment="kpoint 6">
       <r>  -68.6485    1.0000 </r>
       <r>  -68.6451    1.0000 </r>
       <r>  -68.6336    1.0000 </r>
       <r>  -68.6249    1.0000 </r>
       <r>  -68.6176    1.0000 </r>
       <r>  -68.6137    1.0000 </r>
       <r>  -68.6000    1.0000 </r>
       <r>  -68.5961    1.0000 </r>
       <r>  -68.5778    1.0000 </r>
       <r>  -68.5699    1.0000 </r>
       <r>  -68.5610    1.0000 </r>
       <r>  -68.5511    1.0000 </r>
       <r>  -12.4424    1.0000 </r>
       <r>  -11.3583    1.0000 </r>
       <r>  -10.9376    1.0000 </r>
       <r>  -10.7374    1.0000 </r>
       <r>  -10.3913    1.0000 </r>
       <r>  -10.2735    1.0000 </r>
       <r>   -5.9472    1.0000 </r>
       <r>   -4.6432    1.0000 </r>
       <r>   -2.3922    1.0000 </r>
       <r>   -2.2277    1.0000 </r>
       <r>   -2.0575    1.0000 </r>
       <r>   -1.6413    1.0000 </r>
       <r>   -1.3650    1.0000 </r>
       <r>   -1.2811    1.0000 </r>
       <r>   -1.0225    1.0000 </r>
       <r>   -0.5125    1.0000 </r>
       <r>   -0.4823    1.0000 </r>
       <r>   -0.3288    1.0000 </r>
       <r>   -0.2811    1.0000 </r>
       <r>   -0.2139    1.0000 </r>
       <r>   -0.1492    1.0000 </r>
       <r>   -0.1361    1.0000 </r>
       <r>   -0.0086    1.0000 </r>
       <r>    0.1167    1.0000 </r>
       <r>    1.2479    1.0000 </r>
       <r>    1.3163    1.0000 </r>
       <r>    1.3824    1.0000 </r>
       <r>    1.4387    1.0000 </r>
       <r>    1.4628    1.0000 </r>
       <r>    1.4924    1.0000 </r>
       <r>    1.4987    1.0000 </r>
       <r>    1.5503    1.0000 </r>
       <r>    1.7485    1.0000 </r>
       <r>    1.8312    1.0000 </r>
       <r>    1.9237    1.0000 </r>
       <r>    2.1331    1.0000 </r>
       <r>    2.2213    1.0000 </r>
       <r>    2.3873    1.0000 </r>
       <r>    2.5620    1.0000 </r>
       <r>    2.7888    1.0000 </r>
       <r>    2.9788    1.0000 </r>
       <r>    3.3107    1.0000 </r>
       <r>    3.5998    1.0000 </r>
       <r>    3.7462    1.0000 </r>
       <r>    6.0917   -0.0000 </r>
       <r>    6.9434   -0.0000 </r>
       <r>    7.6138    0.0000 </r>
       <r>    8.0673    0.0000 </r>
       <r>    8.4089    0.0000 </r>
       <r>    8.6162    0.0000 </r>
       <r>    8.9859    0.0000 </r>
       <r>    9.1529    0.0000 </r>
       <r>   10.0876    0.0000 </r>
       <r>   10.3350    0.0000 </r>
       <r>   10.7313    0.0000 </r>
       <r>   11.1101    0.0000 </r>
       <r>   11.4650    0.0000 </r>
       <r>   11.5910    0.0000 </r>
       <r>   11.8002    0.0000 </r>
       <r>   12.0806    0.0000 </r>
       <r>   12.4762    0.0000 </r>
       <r>   12.9215    0.0000 </r>
       <r>   13.0344    0.0000 </r>
       <r>   13.8196    0.0000 </r>
       <r>   14.1992    0.0000 </r>
       <r>   14.6582    0.0000 </r>
       <r>   15.4240    0.0000 </r>
       <r>   15.6401    0.0000 </r>
      </set>
      <set comment="kpoint 7">
       <r>  -68.6487    1.0000 </r>
       <r>  -68.6453    1.0000 </r>
       <r>  -68.6337    1.0000 </r>
       <r>  -68.6249    1.0000 </r>
       <r>  -68.6176    1.0000 </r>
       <r>  -68.6137    1.0000 </r>
       <r>  -68.6001    1.0000 </r>
       <r>  -68.5962    1.0000 </r>
       <r>  -68.5778    1.0000 </r>
       <r>  -68.5699    1.0000 </r>
       <r>  -68.5611    1.0000 </r>
       <r>  -68.5513    1.0000 </r>
       <r>  -12.6007    1.0000 </r>
       <r>  -11.2559    1.0000 </r>
       <r>  -10.9906    1.0000 </r>
       <r>  -10.5697    1.0000 </r>
       <r>  -10.3692    1.0000 </r>
       <r>  -10.1816    1.0000 </r>
       <r>   -6.0099    1.0000 </r>
       <r>   -4.8963    1.0000 </r>
       <r>   -2.6477    1.0000 </r>
       <r>   -2.3159    1.0000 </r>
       <r>   -1.9725    1.0000 </r>
       <r>   -1.6484    1.0000 </r>
       <r>   -1.4923    1.0000 </r>
       <r>   -1.1860    1.0000 </r>
       <r>   -0.7889    1.0000 </r>
       <r>   -0.5832    1.0000 </r>
       <r>   -0.4455    1.0000 </r>
       <r>   -0.3318    1.0000 </r>
       <r>   -0.2918    1.0000 </r>
       <r>   -0.2325    1.0000 </r>
       <r>   -0.1740    1.0000 </r>
       <r>   -0.1310    1.0000 </r>
       <r>   -0.0093    1.0000 </r>
       <r>    0.0752    1.0000 </r>
       <r>    1.2598    1.0000 </r>
       <r>    1.3225    1.0000 </r>
       <r>    1.3633    1.0000 </r>
       <r>    1.4251    1.0000 </r>
       <r>    1.4326    1.0000 </r>
       <r>    1.4770    1.0000 </r>
       <r>    1.5058    1.0000 </r>
       <r>    1.5413    1.0000 </r>
       <r>    1.7244    1.0000 </r>
       <r>    1.8139    1.0000 </r>
       <r>    1.9969    1.0000 </r>
       <r>    2.0743    1.0000 </r>
       <r>    2.4190    1.0000 </r>
       <r>    2.4634    1.0000 </r>
       <r>    2.5256    1.0000 </r>
       <r>    2.8730    1.0000 </r>
       <r>    3.1417    1.0000 </r>
       <r>    3.2285    1.0000 </r>
       <r>    3.7832    1.0000 </r>
       <r>    4.0664    1.0270 </r>
       <r>    5.9811   -0.0000 </r>
       <r>    6.6907   -0.0000 </r>
       <r>    7.5379    0.0000 </r>
       <r>    8.2209    0.0000 </r>
       <r>    8.6192    0.0000 </r>
       <r>    8.9142    0.0000 </r>
       <r>    9.3120    0.0000 </r>
       <r>    9.4291    0.0000 </r>
       <r>    9.8067    0.0000 </r>
       <r>   10.2720    0.0000 </r>
       <r>   10.5403    0.0000 </r>
       <r>   10.8312    0.0000 </r>
       <r>   10.9660    0.0000 </r>
       <r>   11.3820    0.0000 </r>
       <r>   11.4620    0.0000 </r>
       <r>   11.7363    0.0000 </r>
       <r>   12.1027    0.0000 </r>
       <r>   12.6632    0.0000 </r>
       <r>   12.9443    0.0000 </r>
       <r>   13.1065    0.0000 </r>
       <r>   13.3488    0.0000 </r>
       <r>   13.5230    0.0000 </r>
       <r>   14.4762    0.0000 </r>
       <r>   14.7557    0.0000 </r>
      </set>
      <set comment="kpoint 8">
       <r>  -68.6485    1.0000 </r>
       <r>  -68.6451    1.0000 </r>
       <r>  -68.6336    1.0000 </r>
       <r>  -68.6249    1.0000 </r>
       <r>  -68.6176    1.0000 </r>
       <r>  -68.6137    1.0000 </r>
       <r>  -68.6000    1.0000 </r>
       <r>  -68.5961    1.0000 </r>
       <r>  -68.5779    1.0000 </r>
       <r>  -68.5699    1.0000 </r>
       <r>  -68.5609    1.0000 </r>
       <r>  -68.5512    1.0000 </r>
       <r>  -12.4388    1.0000 </r>
       <r>  -11.2504    1.0000 </r>
       <r>  -10.9566    1.0000 </r>
       <r>  -10.7649    1.0000 </r>
       <r>  -10.4321    1.0000 </r>
       <r>  -10.3593    1.0000 </r>
       <r>   -5.8694    1.0000 </r>
       <r>   -4.5489    1.0000 </r>
       <r>   -2.4950    1.0000 </r>
       <r>   -2.2461    1.0000 </r>
       <r>   -1.9470    1.0000 </r>
       <r>   -1.4623    1.0000 </r>
       <r>   -1.2253    1.0000 </r>
       <r>   -1.1023    1.0000 </r>
       <r>   -0.9036    1.0000 </r>
       <r>   -0.8624    1.0000 </r>
       <r>   -0.5985    1.0000 </r>
       <r>   -0.5362    1.0000 </r>
       <r>   -0.2722    1.0000 </r>
       <r>   -0.2050    1.0000 </r>
       <r>   -0.2036    1.0000 </r>
       <r>   -0.1383    1.0000 </r>
       <r>   -0.0316    1.0000 </r>
       <r>    0.0827    1.0000 </r>
       <r>    1.2544    1.0000 </r>
       <r>    1.3279    1.0000 </r>
       <r>    1.3486    1.0000 </r>
       <r>    1.3973    1.0000 </r>
       <r>    1.4723    1.0000 </r>
       <r>    1.4799    1.0000 </r>
       <r>    1.5007    1.0000 </r>
       <r>    1.5564    1.0000 </r>
       <r>    1.7530    1.0000 </r>
       <r>    1.7944    1.0000 </r>
       <r>    1.9694    1.0000 </r>
       <r>    2.1450    1.0000 </r>
       <r>    2.3206    1.0000 </r>
       <r>    2.3633    1.0000 </r>
       <r>    2.5510    1.0000 </r>
       <r>    2.6687    1.0000 </r>
       <r>    2.9389    1.0000 </r>
       <r>    3.0758    1.0000 </r>
       <r>    3.2503    1.0000 </r>
       <r>    3.8593    1.0000 </r>
       <r>    6.3884   -0.0000 </r>
       <r>    7.1018    0.0000 </r>
       <r>    7.9811    0.0000 </r>
       <r>    8.2066    0.0000 </r>
       <r>    8.5205    0.0000 </r>
       <r>    8.8260    0.0000 </r>
       <r>    9.3239    0.0000 </r>
       <r>    9.8953    0.0000 </r>
       <r>   10.0130    0.0000 </r>
       <r>   10.5149    0.0000 </r>
       <r>   10.6901    0.0000 </r>
       <r>   10.7893    0.0000 </r>
       <r>   11.1423    0.0000 </r>
       <r>   11.4069    0.0000 </r>
       <r>   11.6066    0.0000 </r>
       <r>   11.7737    0.0000 </r>
       <r>   11.9416    0.0000 </r>
       <r>   12.5027    0.0000 </r>
       <r>   12.8248    0.0000 </r>
       <r>   13.0315    0.0000 </r>
       <r>   13.5524    0.0000 </r>
       <r>   13.6730    0.0000 </r>
       <r>   14.5568    0.0000 </r>
       <r>   15.2518    0.0000 </r>
      </set>
      <set comment="kpoint 9">
       <r>  -68.6485    1.0000 </r>
       <r>  -68.6451    1.0000 </r>
       <r>  -68.6336    1.0000 </r>
       <r>  -68.6249    1.0000 </r>
       <r>  -68.6176    1.0000 </r>
       <r>  -68.6137    1.0000 </r>
       <r>  -68.6000    1.0000 </r>
       <r>  -68.5961    1.0000 </r>
       <r>  -68.5778    1.0000 </r>
       <r>  -68.5699    1.0000 </r>
       <r>  -68.5609    1.0000 </r>
       <r>  -68.5512    1.0000 </r>
       <r>  -12.4428    1.0000 </r>
       <r>  -11.3571    1.0000 </r>
       <r>  -10.9377    1.0000 </r>
       <r>  -10.7377    1.0000 </r>
       <r>  -10.3922    1.0000 </r>
       <r>  -10.2731    1.0000 </r>
       <r>   -5.9472    1.0000 </r>
       <r>   -4.6436    1.0000 </r>
       <r>   -2.3930    1.0000 </r>
       <r>   -2.2282    1.0000 </r>
       <r>   -2.0576    1.0000 </r>
       <r>   -1.6392    1.0000 </r>
       <r>   -1.3618    1.0000 </r>
       <r>   -1.2829    1.0000 </r>
       <r>   -1.0222    1.0000 </r>
       <r>   -0.5108    1.0000 </r>
       <r>   -0.4842    1.0000 </r>
       <r>   -0.3281    1.0000 </r>
       <r>   -0.2815    1.0000 </r>
       <r>   -0.2142    1.0000 </r>
       <r>   -0.1515    1.0000 </r>
       <r>   -0.1333    1.0000 </r>
       <r>   -0.0096    1.0000 </r>
       <r>    0.1159    1.0000 </r>
       <r>    1.2469    1.0000 </r>
       <r>    1.3157    1.0000 </r>
       <r>    1.3832    1.0000 </r>
       <r>    1.4373    1.0000 </r>
       <r>    1.4617    1.0000 </r>
       <r>    1.4921    1.0000 </r>
       <r>    1.4990    1.0000 </r>
       <r>    1.5536    1.0000 </r>
       <r>    1.7492    1.0000 </r>
       <r>    1.8306    1.0000 </r>
       <r>    1.9226    1.0000 </r>
       <r>    2.1338    1.0000 </r>
       <r>    2.2215    1.0000 </r>
       <r>    2.3854    1.0000 </r>
       <r>    2.5616    1.0000 </r>
       <r>    2.7894    1.0000 </r>
       <r>    2.9776    1.0000 </r>
       <r>    3.3117    1.0000 </r>
       <r>    3.6000    1.0000 </r>
       <r>    3.7471    1.0000 </r>
       <r>    6.0911   -0.0000 </r>
       <r>    6.9433   -0.0000 </r>
       <r>    7.6134    0.0000 </r>
       <r>    8.0695    0.0000 </r>
       <r>    8.4100    0.0000 </r>
       <r>    8.6148    0.0000 </r>
       <r>    8.9827    0.0000 </r>
       <r>    9.1566    0.0000 </r>
       <r>   10.0900    0.0000 </r>
       <r>   10.3359    0.0000 </r>
       <r>   10.7311    0.0000 </r>
       <r>   11.1100    0.0000 </r>
       <r>   11.4547    0.0000 </r>
       <r>   11.5697    0.0000 </r>
       <r>   11.7857    0.0000 </r>
       <r>   12.0344    0.0000 </r>
       <r>   12.5163    0.0000 </r>
       <r>   12.6724    0.0000 </r>
       <r>   12.9144    0.0000 </r>
       <r>   13.2186    0.0000 </r>
       <r>   14.2248    0.0000 </r>
       <r>   14.7688    0.0000 </r>
       <r>   15.2609    0.0000 </r>
       <r>   15.9138    0.0000 </r>
      </set>
      <set comment="kpoint 10">
       <r>  -68.6483    1.0000 </r>
       <r>  -68.6449    1.0000 </r>
       <r>  -68.6335    1.0000 </r>
       <r>  -68.6247    1.0000 </r>
       <r>  -68.6174    1.0000 </r>
       <r>  -68.6136    1.0000 </r>
       <r>  -68.5998    1.0000 </r>
       <r>  -68.5960    1.0000 </r>
       <r>  -68.5777    1.0000 </r>
       <r>  -68.5698    1.0000 </r>
       <r>  -68.5608    1.0000 </r>
       <r>  -68.5509    1.0000 </r>
       <r>  -12.4344    1.0000 </r>
       <r>  -11.5052    1.0000 </r>
       <r>  -10.9130    1.0000 </r>
       <r>  -10.6174    1.0000 </r>
       <r>  -10.4004    1.0000 </r>
       <r>  -10.2002    1.0000 </r>
       <r>   -6.0266    1.0000 </r>
       <r>   -4.8125    1.0000 </r>
       <r>   -2.3123    1.0000 </r>
       <r>   -2.2646    1.0000 </r>
       <r>   -2.0949    1.0000 </r>
       <r>   -1.7006    1.0000 </r>
       <r>   -1.2481    1.0000 </r>
       <r>   -1.1111    1.0000 </r>
       <r>   -0.8421    1.0000 </r>
       <r>   -0.7847    1.0000 </r>
       <r>   -0.7261    1.0000 </r>
       <r>   -0.2418    1.0000 </r>
       <r>   -0.1968    1.0000 </r>
       <r>   -0.1797    1.0000 </r>
       <r>   -0.1511    1.0000 </r>
       <r>   -0.0389    1.0000 </r>
       <r>   -0.0035    1.0000 </r>
       <r>    0.1904    1.0000 </r>
       <r>    1.2686    1.0000 </r>
       <r>    1.3167    1.0000 </r>
       <r>    1.3741    1.0000 </r>
       <r>    1.4157    1.0000 </r>
       <r>    1.4375    1.0000 </r>
       <r>    1.4916    1.0000 </r>
       <r>    1.5101    1.0000 </r>
       <r>    1.5485    1.0000 </r>
       <r>    1.7909    1.0000 </r>
       <r>    1.8476    1.0000 </r>
       <r>    1.9971    1.0000 </r>
       <r>    2.1514    1.0000 </r>
       <r>    2.2541    1.0000 </r>
       <r>    2.3351    1.0000 </r>
       <r>    2.5602    1.0000 </r>
       <r>    2.7634    1.0000 </r>
       <r>    2.7751    1.0000 </r>
       <r>    3.3678    1.0000 </r>
       <r>    3.7628    1.0000 </r>
       <r>    4.0026    1.0048 </r>
       <r>    5.8582   -0.0000 </r>
       <r>    6.7657   -0.0000 </r>
       <r>    7.0907    0.0000 </r>
       <r>    8.4088    0.0000 </r>
       <r>    8.5608    0.0000 </r>
       <r>    8.7661    0.0000 </r>
       <r>    9.1438    0.0000 </r>
       <r>    9.2418    0.0000 </r>
       <r>    9.9609    0.0000 </r>
       <r>   10.2830    0.0000 </r>
       <r>   10.7275    0.0000 </r>
       <r>   10.8200    0.0000 </r>
       <r>   10.8789    0.0000 </r>
       <r>   11.2753    0.0000 </r>
       <r>   11.7519    0.0000 </r>
       <r>   11.9158    0.0000 </r>
       <r>   11.9769    0.0000 </r>
       <r>   12.3637    0.0000 </r>
       <r>   12.5421    0.0000 </r>
       <r>   13.4543    0.0000 </r>
       <r>   14.2840    0.0000 </r>
       <r>   14.6773    0.0000 </r>
       <r>   16.7429    0.0000 </r>
       <r>   16.7582    0.0000 </r>
      </set>
      <set comment="kpoint 11">
       <r>  -68.6487    1.0000 </r>
       <r>  -68.6453    1.0000 </r>
       <r>  -68.6337    1.0000 </r>
       <r>  -68.6249    1.0000 </r>
       <r>  -68.6177    1.0000 </r>
       <r>  -68.6138    1.0000 </r>
       <r>  -68.6001    1.0000 </r>
       <r>  -68.5962    1.0000 </r>
       <r>  -68.5779    1.0000 </r>
       <r>  -68.5700    1.0000 </r>
       <r>  -68.5611    1.0000 </r>
       <r>  -68.5513    1.0000 </r>
       <r>  -12.6195    1.0000 </r>
       <r>  -11.4277    1.0000 </r>
       <r>  -10.7796    1.0000 </r>
       <r>  -10.6078    1.0000 </r>
       <r>  -10.2528    1.0000 </r>
       <r>  -10.2387    1.0000 </r>
       <r>   -5.8304    1.0000 </r>
       <r>   -5.0482    1.0000 </r>
       <r>   -2.6014    1.0000 </r>
       <r>   -2.3733    1.0000 </r>
       <r>   -1.9626    1.0000 </r>
       <r>   -1.7774    1.0000 </r>
       <r>   -1.4437    1.0000 </r>
       <r>   -1.1250    1.0000 </r>
       <r>   -1.0622    1.0000 </r>
       <r>   -0.7707    1.0000 </r>
       <r>   -0.4695    1.0000 </r>
       <r>   -0.2924    1.0000 </r>
       <r>   -0.2375    1.0000 </r>
       <r>   -0.2334    1.0000 </r>
       <r>   -0.1921    1.0000 </r>
       <r>   -0.1453    1.0000 </r>
       <r>   -0.0128    1.0000 </r>
       <r>    0.0234    1.0000 </r>
       <r>    1.3331    1.0000 </r>
       <r>    1.3817    1.0000 </r>
       <r>    1.4153    1.0000 </r>
       <r>    1.4405    1.0000 </r>
       <r>    1.4659    1.0000 </r>
       <r>    1.4695    1.0000 </r>
       <r>    1.5148    1.0000 </r>
       <r>    1.5482    1.0000 </r>
       <r>    1.6328    1.0000 </r>
       <r>    1.7583    1.0000 </r>
       <r>    1.7872    1.0000 </r>
       <r>    1.9519    1.0000 </r>
       <r>    2.0893    1.0000 </r>
       <r>    2.6611    1.0000 </r>
       <r>    2.7173    1.0000 </r>
       <r>    3.1955    1.0000 </r>
       <r>    3.2521    1.0000 </r>
       <r>    3.5168    1.0000 </r>
       <r>    3.8919    1.0000 </r>
       <r>    3.9757    1.0016 </r>
       <r>    6.0505   -0.0000 </r>
       <r>    6.4211   -0.0000 </r>
       <r>    7.8249    0.0000 </r>
       <r>    7.9075    0.0000 </r>
       <r>    8.3680    0.0000 </r>
       <r>    8.8205    0.0000 </r>
       <r>    9.7755    0.0000 </r>
       <r>    9.7972    0.0000 </r>
       <r>   10.0643    0.0000 </r>
       <r>   10.5868    0.0000 </r>
       <r>   10.6446    0.0000 </r>
       <r>   10.8072    0.0000 </r>
       <r>   10.8555    0.0000 </r>
       <r>   11.4916    0.0000 </r>
       <r>   11.5573    0.0000 </r>
       <r>   12.0243    0.0000 </r>
       <r>   12.5839    0.0000 </r>
       <r>   12.7803    0.0000 </r>
       <r>   12.9096    0.0000 </r>
       <r>   13.2031    0.0000 </r>
       <r>   13.5340    0.0000 </r>
       <r>   13.8191    0.0000 </r>
       <r>   14.1993    0.0000 </r>
       <r>   14.7057    0.0000 </r>
      </set>
      <set comment="kpoint 12">
       <r>  -68.6486    1.0000 </r>
       <r>  -68.6452    1.0000 </r>
       <r>  -68.6337    1.0000 </r>
       <r>  -68.6249    1.0000 </r>
       <r>  -68.6177    1.0000 </r>
       <r>  -68.6138    1.0000 </r>
       <r>  -68.6000    1.0000 </r>
       <r>  -68.5962    1.0000 </r>
       <r>  -68.5779    1.0000 </r>
       <r>  -68.5700    1.0000 </r>
       <r>  -68.5611    1.0000 </r>
       <r>  -68.5513    1.0000 </r>
       <r>  -12.4604    1.0000 </r>
       <r>  -11.4688    1.0000 </r>
       <r>  -10.8656    1.0000 </r>
       <r>  -10.6897    1.0000 </r>
       <r>  -10.3742    1.0000 </r>
       <r>  -10.2484    1.0000 </r>
       <r>   -5.7655    1.0000 </r>
       <r>   -4.8045    1.0000 </r>
       <r>   -2.4462    1.0000 </r>
       <r>   -2.2338    1.0000 </r>
       <r>   -1.8521    1.0000 </r>
       <r>   -1.7127    1.0000 </r>
       <r>   -1.4367    1.0000 </r>
       <r>   -1.1881    1.0000 </r>
       <r>   -0.8884    1.0000 </r>
       <r>   -0.7445    1.0000 </r>
       <r>   -0.6072    1.0000 </r>
       <r>   -0.5236    1.0000 </r>
       <r>   -0.3102    1.0000 </r>
       <r>   -0.2425    1.0000 </r>
       <r>   -0.1706    1.0000 </r>
       <r>   -0.1235    1.0000 </r>
       <r>   -0.0478    1.0000 </r>
       <r>    0.0619    1.0000 </r>
       <r>    1.3028    1.0000 </r>
       <r>    1.3361    1.0000 </r>
       <r>    1.3688    1.0000 </r>
       <r>    1.4348    1.0000 </r>
       <r>    1.4470    1.0000 </r>
       <r>    1.4803    1.0000 </r>
       <r>    1.5220    1.0000 </r>
       <r>    1.5490    1.0000 </r>
       <r>    1.6445    1.0000 </r>
       <r>    1.8720    1.0000 </r>
       <r>    1.9819    1.0000 </r>
       <r>    2.0477    1.0000 </r>
       <r>    2.1950    1.0000 </r>
       <r>    2.4761    1.0000 </r>
       <r>    2.5932    1.0000 </r>
       <r>    2.8365    1.0000 </r>
       <r>    2.9635    1.0000 </r>
       <r>    3.1318    1.0000 </r>
       <r>    3.5654    1.0000 </r>
       <r>    3.7222    1.0000 </r>
       <r>    6.4476   -0.0000 </r>
       <r>    6.9612    0.0000 </r>
       <r>    8.1717    0.0000 </r>
       <r>    8.2480    0.0000 </r>
       <r>    8.8349    0.0000 </r>
       <r>    9.1275    0.0000 </r>
       <r>    9.4659    0.0000 </r>
       <r>    9.7954    0.0000 </r>
       <r>   10.0811    0.0000 </r>
       <r>   10.3026    0.0000 </r>
       <r>   10.7386    0.0000 </r>
       <r>   11.0793    0.0000 </r>
       <r>   11.2902    0.0000 </r>
       <r>   11.4253    0.0000 </r>
       <r>   11.6343    0.0000 </r>
       <r>   11.7212    0.0000 </r>
       <r>   12.0862    0.0000 </r>
       <r>   12.2669    0.0000 </r>
       <r>   12.5418    0.0000 </r>
       <r>   12.6508    0.0000 </r>
       <r>   12.9532    0.0000 </r>
       <r>   13.0644    0.0000 </r>
       <r>   13.6406    0.0000 </r>
       <r>   14.6922    0.0000 </r>
      </set>
      <set comment="kpoint 13">
       <r>  -68.6485    1.0000 </r>
       <r>  -68.6451    1.0000 </r>
       <r>  -68.6336    1.0000 </r>
       <r>  -68.6248    1.0000 </r>
       <r>  -68.6176    1.0000 </r>
       <r>  -68.6137    1.0000 </r>
       <r>  -68.5999    1.0000 </r>
       <r>  -68.5961    1.0000 </r>
       <r>  -68.5778    1.0000 </r>
       <r>  -68.5699    1.0000 </r>
       <r>  -68.5610    1.0000 </r>
       <r>  -68.5512    1.0000 </r>
       <r>  -12.3578    1.0000 </r>
       <r>  -11.4158    1.0000 </r>
       <r>  -10.9542    1.0000 </r>
       <r>  -10.6851    1.0000 </r>
       <r>  -10.4797    1.0000 </r>
       <r>  -10.3371    1.0000 </r>
       <r>   -5.7501    1.0000 </r>
       <r>   -4.7214    1.0000 </r>
       <r>   -2.5229    1.0000 </r>
       <r>   -2.1850    1.0000 </r>
       <r>   -1.9549    1.0000 </r>
       <r>   -1.5369    1.0000 </r>
       <r>   -1.3036    1.0000 </r>
       <r>   -1.1001    1.0000 </r>
       <r>   -0.8681    1.0000 </r>
       <r>   -0.7564    1.0000 </r>
       <r>   -0.5480    1.0000 </r>
       <r>   -0.4444    1.0000 </r>
       <r>   -0.2874    1.0000 </r>
       <r>   -0.1818    1.0000 </r>
       <r>   -0.1432    1.0000 </r>
       <r>   -0.1066    1.0000 </r>
       <r>   -0.0403    1.0000 </r>
       <r>    0.0236    1.0000 </r>
       <r>    1.2739    1.0000 </r>
       <r>    1.2991    1.0000 </r>
       <r>    1.3508    1.0000 </r>
       <r>    1.4317    1.0000 </r>
       <r>    1.4528    1.0000 </r>
       <r>    1.4805    1.0000 </r>
       <r>    1.5030    1.0000 </r>
       <r>    1.5879    1.0000 </r>
       <r>    1.7202    1.0000 </r>
       <r>    1.9324    1.0000 </r>
       <r>    2.0786    1.0000 </r>
       <r>    2.1450    1.0000 </r>
       <r>    2.2671    1.0000 </r>
       <r>    2.4050    1.0000 </r>
       <r>    2.5670    1.0000 </r>
       <r>    2.5976    1.0000 </r>
       <r>    2.8987    1.0000 </r>
       <r>    3.0073    1.0000 </r>
       <r>    3.3603    1.0000 </r>
       <r>    3.8969    1.0000 </r>
       <r>    6.3710   -0.0000 </r>
       <r>    6.8997   -0.0000 </r>
       <r>    7.5732    0.0000 </r>
       <r>    8.0840    0.0000 </r>
       <r>    8.5495    0.0000 </r>
       <r>    8.7977    0.0000 </r>
       <r>    9.2788    0.0000 </r>
       <r>    9.6342    0.0000 </r>
       <r>    9.9310    0.0000 </r>
       <r>   10.2767    0.0000 </r>
       <r>   10.6601    0.0000 </r>
       <r>   10.9277    0.0000 </r>
       <r>   10.9734    0.0000 </r>
       <r>   11.2776    0.0000 </r>
       <r>   11.5214    0.0000 </r>
       <r>   11.7873    0.0000 </r>
       <r>   12.2477    0.0000 </r>
       <r>   12.5351    0.0000 </r>
       <r>   13.0948    0.0000 </r>
       <r>   13.5149    0.0000 </r>
       <r>   14.3008    0.0000 </r>
       <r>   14.5646    0.0000 </r>
       <r>   15.1381    0.0000 </r>
       <r>   16.2680    0.0000 </r>
      </set>
      <set comment="kpoint 14">
       <r>  -68.6487    1.0000 </r>
       <r>  -68.6453    1.0000 </r>
       <r>  -68.6337    1.0000 </r>
       <r>  -68.6249    1.0000 </r>
       <r>  -68.6177    1.0000 </r>
       <r>  -68.6138    1.0000 </r>
       <r>  -68.6001    1.0000 </r>
       <r>  -68.5962    1.0000 </r>
       <r>  -68.5779    1.0000 </r>
       <r>  -68.5700    1.0000 </r>
       <r>  -68.5611    1.0000 </r>
       <r>  -68.5513    1.0000 </r>
       <r>  -12.5430    1.0000 </r>
       <r>  -11.3398    1.0000 </r>
       <r>  -10.8744    1.0000 </r>
       <r>  -10.6060    1.0000 </r>
       <r>  -10.4011    1.0000 </r>
       <r>  -10.2851    1.0000 </r>
       <r>   -5.8234    1.0000 </r>
       <r>   -4.9751    1.0000 </r>
       <r>   -2.6644    1.0000 </r>
       <r>   -2.4544    1.0000 </r>
       <r>   -2.0405    1.0000 </r>
       <r>   -1.5797    1.0000 </r>
       <r>   -1.1711    1.0000 </r>
       <r>   -0.9846    1.0000 </r>
       <r>   -0.7946    1.0000 </r>
       <r>   -0.6519    1.0000 </r>
       <r>   -0.5155    1.0000 </r>
       <r>   -0.3879    1.0000 </r>
       <r>   -0.2685    1.0000 </r>
       <r>   -0.2533    1.0000 </r>
       <r>   -0.1915    1.0000 </r>
       <r>   -0.1421    1.0000 </r>
       <r>   -0.0419    1.0000 </r>
       <r>    0.0128    1.0000 </r>
       <r>    1.2920    1.0000 </r>
       <r>    1.3119    1.0000 </r>
       <r>    1.3907    1.0000 </r>
       <r>    1.4083    1.0000 </r>
       <r>    1.4345    1.0000 </r>
       <r>    1.4551    1.0000 </r>
       <r>    1.4932    1.0000 </r>
       <r>    1.5650    1.0000 </r>
       <r>    1.6872    1.0000 </r>
       <r>    1.9150    1.0000 </r>
       <r>    1.9873    1.0000 </r>
       <r>    2.1466    1.0000 </r>
       <r>    2.3335    1.0000 </r>
       <r>    2.5661    1.0000 </r>
       <r>    2.6181    1.0000 </r>
       <r>    2.8291    1.0000 </r>
       <r>    2.9732    1.0000 </r>
       <r>    3.2492    1.0000 </r>
       <r>    3.6804    1.0000 </r>
       <r>    3.9414    1.0003 </r>
       <r>    6.1840   -0.0000 </r>
       <r>    6.6414   -0.0000 </r>
       <r>    7.7677    0.0000 </r>
       <r>    7.9740    0.0000 </r>
       <r>    8.2146    0.0000 </r>
       <r>    8.5645    0.0000 </r>
       <r>    9.3819    0.0000 </r>
       <r>    9.5777    0.0000 </r>
       <r>    9.9052    0.0000 </r>
       <r>   10.2521    0.0000 </r>
       <r>   10.5452    0.0000 </r>
       <r>   10.7861    0.0000 </r>
       <r>   10.8390    0.0000 </r>
       <r>   11.0703    0.0000 </r>
       <r>   11.5671    0.0000 </r>
       <r>   12.0233    0.0000 </r>
       <r>   12.5288    0.0000 </r>
       <r>   12.7626    0.0000 </r>
       <r>   12.9466    0.0000 </r>
       <r>   13.3031    0.0000 </r>
       <r>   13.4068    0.0000 </r>
       <r>   13.7401    0.0000 </r>
       <r>   13.8495    0.0000 </r>
       <r>   14.7249    0.0000 </r>
      </set>
      <set comment="kpoint 15">
       <r>  -68.6486    1.0000 </r>
       <r>  -68.6452    1.0000 </r>
       <r>  -68.6337    1.0000 </r>
       <r>  -68.6249    1.0000 </r>
       <r>  -68.6177    1.0000 </r>
       <r>  -68.6138    1.0000 </r>
       <r>  -68.6000    1.0000 </r>
       <r>  -68.5961    1.0000 </r>
       <r>  -68.5779    1.0000 </r>
       <r>  -68.5700    1.0000 </r>
       <r>  -68.5611    1.0000 </r>
       <r>  -68.5512    1.0000 </r>
       <r>  -12.4607    1.0000 </r>
       <r>  -11.4686    1.0000 </r>
       <r>  -10.8641    1.0000 </r>
       <r>  -10.6900    1.0000 </r>
       <r>  -10.3760    1.0000 </r>
       <r>  -10.2477    1.0000 </r>
       <r>   -5.7656    1.0000 </r>
       <r>   -4.8050    1.0000 </r>
       <r>   -2.4465    1.0000 </r>
       <r>   -2.2346    1.0000 </r>
       <r>   -1.8501    1.0000 </r>
       <r>   -1.7123    1.0000 </r>
       <r>   -1.4343    1.0000 </r>
       <r>   -1.1872    1.0000 </r>
       <r>   -0.8915    1.0000 </r>
       <r>   -0.7450    1.0000 </r>
       <r>   -0.6068    1.0000 </r>
       <r>   -0.5232    1.0000 </r>
       <r>   -0.3104    1.0000 </r>
       <r>   -0.2375    1.0000 </r>
       <r>   -0.1728    1.0000 </r>
       <r>   -0.1226    1.0000 </r>
       <r>   -0.0507    1.0000 </r>
       <r>    0.0614    1.0000 </r>
       <r>    1.3026    1.0000 </r>
       <r>    1.3374    1.0000 </r>
       <r>    1.3708    1.0000 </r>
       <r>    1.4317    1.0000 </r>
       <r>    1.4456    1.0000 </r>
       <r>    1.4786    1.0000 </r>
       <r>    1.5229    1.0000 </r>
       <r>    1.5480    1.0000 </r>
       <r>    1.6459    1.0000 </r>
       <r>    1.8717    1.0000 </r>
       <r>    1.9786    1.0000 </r>
       <r>    2.0507    1.0000 </r>
       <r>    2.1955    1.0000 </r>
       <r>    2.4748    1.0000 </r>
       <r>    2.5966    1.0000 </r>
       <r>    2.8369    1.0000 </r>
       <r>    2.9600    1.0000 </r>
       <r>    3.1309    1.0000 </r>
       <r>    3.5657    1.0000 </r>
       <r>    3.7240    1.0000 </r>
       <r>    6.4465   -0.0000 </r>
       <r>    6.9628    0.0000 </r>
       <r>    8.1715    0.0000 </r>
       <r>    8.2462    0.0000 </r>
       <r>    8.8370    0.0000 </r>
       <r>    9.1278    0.0000 </r>
       <r>    9.4634    0.0000 </r>
       <r>    9.8028    0.0000 </r>
       <r>   10.0842    0.0000 </r>
       <r>   10.2959    0.0000 </r>
       <r>   10.7384    0.0000 </r>
       <r>   11.0794    0.0000 </r>
       <r>   11.2848    0.0000 </r>
       <r>   11.4260    0.0000 </r>
       <r>   11.6310    0.0000 </r>
       <r>   11.7208    0.0000 </r>
       <r>   12.0906    0.0000 </r>
       <r>   12.2669    0.0000 </r>
       <r>   12.5412    0.0000 </r>
       <r>   12.6562    0.0000 </r>
       <r>   12.9551    0.0000 </r>
       <r>   13.0597    0.0000 </r>
       <r>   13.6544    0.0000 </r>
       <r>   14.6951    0.0000 </r>
      </set>
      <set comment="kpoint 16">
       <r>  -68.6486    1.0000 </r>
       <r>  -68.6451    1.0000 </r>
       <r>  -68.6335    1.0000 </r>
       <r>  -68.6248    1.0000 </r>
       <r>  -68.6176    1.0000 </r>
       <r>  -68.6137    1.0000 </r>
       <r>  -68.5999    1.0000 </r>
       <r>  -68.5960    1.0000 </r>
       <r>  -68.5778    1.0000 </r>
       <r>  -68.5699    1.0000 </r>
       <r>  -68.5610    1.0000 </r>
       <r>  -68.5512    1.0000 </r>
       <r>  -12.3287    1.0000 </r>
       <r>  -11.4768    1.0000 </r>
       <r>  -10.8630    1.0000 </r>
       <r>  -10.8593    1.0000 </r>
       <r>  -10.4079    1.0000 </r>
       <r>  -10.2901    1.0000 </r>
       <r>   -5.7463    1.0000 </r>
       <r>   -4.6913    1.0000 </r>
       <r>   -2.2440    1.0000 </r>
       <r>   -2.1384    1.0000 </r>
       <r>   -1.9277    1.0000 </r>
       <r>   -1.8511    1.0000 </r>
       <r>   -1.4554    1.0000 </r>
       <r>   -1.3954    1.0000 </r>
       <r>   -1.0399    1.0000 </r>
       <r>   -0.5200    1.0000 </r>
       <r>   -0.4634    1.0000 </r>
       <r>   -0.3491    1.0000 </r>
       <r>   -0.2506    1.0000 </r>
       <r>   -0.2116    1.0000 </r>
       <r>   -0.1576    1.0000 </r>
       <r>   -0.1121    1.0000 </r>
       <r>   -0.0900    1.0000 </r>
       <r>    0.0825    1.0000 </r>
       <r>    1.2628    1.0000 </r>
       <r>    1.3475    1.0000 </r>
       <r>    1.4002    1.0000 </r>
       <r>    1.4353    1.0000 </r>
       <r>    1.4535    1.0000 </r>
       <r>    1.5112    1.0000 </r>
       <r>    1.5353    1.0000 </r>
       <r>    1.5428    1.0000 </r>
       <r>    1.7552    1.0000 </r>
       <r>    1.8185    1.0000 </r>
       <r>    2.0428    1.0000 </r>
       <r>    2.1362    1.0000 </r>
       <r>    2.2829    1.0000 </r>
       <r>    2.3125    1.0000 </r>
       <r>    2.5187    1.0000 </r>
       <r>    2.7709    1.0000 </r>
       <r>    2.8970    1.0000 </r>
       <r>    3.2597    1.0000 </r>
       <r>    3.4952    1.0000 </r>
       <r>    3.7996    1.0000 </r>
       <r>    6.1894   -0.0000 </r>
       <r>    6.8457   -0.0000 </r>
       <r>    7.8242    0.0000 </r>
       <r>    8.0447    0.0000 </r>
       <r>    8.1939    0.0000 </r>
       <r>    8.7289    0.0000 </r>
       <r>    9.1543    0.0000 </r>
       <r>    9.3108    0.0000 </r>
       <r>   10.2149    0.0000 </r>
       <r>   10.4416    0.0000 </r>
       <r>   10.5938    0.0000 </r>
       <r>   11.0040    0.0000 </r>
       <r>   11.2370    0.0000 </r>
       <r>   11.4896    0.0000 </r>
       <r>   11.8109    0.0000 </r>
       <r>   12.1729    0.0000 </r>
       <r>   12.2063    0.0000 </r>
       <r>   12.5706    0.0000 </r>
       <r>   12.6934    0.0000 </r>
       <r>   13.1164    0.0000 </r>
       <r>   13.4160    0.0000 </r>
       <r>   13.8777    0.0000 </r>
       <r>   14.0072    0.0000 </r>
       <r>   14.5297    0.0000 </r>
      </set>
      <set comment="kpoint 17">
       <r>  -68.6484    1.0000 </r>
       <r>  -68.6450    1.0000 </r>
       <r>  -68.6336    1.0000 </r>
       <r>  -68.6249    1.0000 </r>
       <r>  -68.6176    1.0000 </r>
       <r>  -68.6137    1.0000 </r>
       <r>  -68.6000    1.0000 </r>
       <r>  -68.5961    1.0000 </r>
       <r>  -68.5778    1.0000 </r>
       <r>  -68.5699    1.0000 </r>
       <r>  -68.5609    1.0000 </r>
       <r>  -68.5511    1.0000 </r>
       <r>  -12.3751    1.0000 </r>
       <r>  -11.4764    1.0000 </r>
       <r>  -10.9380    1.0000 </r>
       <r>  -10.6531    1.0000 </r>
       <r>  -10.4219    1.0000 </r>
       <r>  -10.3059    1.0000 </r>
       <r>   -5.8000    1.0000 </r>
       <r>   -4.8368    1.0000 </r>
       <r>   -2.5269    1.0000 </r>
       <r>   -2.2438    1.0000 </r>
       <r>   -1.8735    1.0000 </r>
       <r>   -1.6464    1.0000 </r>
       <r>   -1.5056    1.0000 </r>
       <r>   -1.3073    1.0000 </r>
       <r>   -0.9020    1.0000 </r>
       <r>   -0.5328    1.0000 </r>
       <r>   -0.3749    1.0000 </r>
       <r>   -0.3498    1.0000 </r>
       <r>   -0.2216    1.0000 </r>
       <r>   -0.1779    1.0000 </r>
       <r>   -0.1603    1.0000 </r>
       <r>   -0.0771    1.0000 </r>
       <r>   -0.0263    1.0000 </r>
       <r>    0.0846    1.0000 </r>
       <r>    1.1918    1.0000 </r>
       <r>    1.3655    1.0000 </r>
       <r>    1.3969    1.0000 </r>
       <r>    1.4441    1.0000 </r>
       <r>    1.4643    1.0000 </r>
       <r>    1.5057    1.0000 </r>
       <r>    1.5187    1.0000 </r>
       <r>    1.5868    1.0000 </r>
       <r>    1.7390    1.0000 </r>
       <r>    1.8194    1.0000 </r>
       <r>    2.0382    1.0000 </r>
       <r>    2.2348    1.0000 </r>
       <r>    2.2719    1.0000 </r>
       <r>    2.3635    1.0000 </r>
       <r>    2.4872    1.0000 </r>
       <r>    2.6696    1.0000 </r>
       <r>    3.0536    1.0000 </r>
       <r>    3.4115    1.0000 </r>
       <r>    3.7266    1.0000 </r>
       <r>    3.8608    1.0000 </r>
       <r>    5.9367   -0.0000 </r>
       <r>    6.6159   -0.0000 </r>
       <r>    7.3564    0.0000 </r>
       <r>    7.9402    0.0000 </r>
       <r>    8.0674    0.0000 </r>
       <r>    8.7269    0.0000 </r>
       <r>    8.9072    0.0000 </r>
       <r>    9.1410    0.0000 </r>
       <r>    9.8425    0.0000 </r>
       <r>   10.3270    0.0000 </r>
       <r>   10.5561    0.0000 </r>
       <r>   10.9248    0.0000 </r>
       <r>   11.2237    0.0000 </r>
       <r>   11.4193    0.0000 </r>
       <r>   11.7471    0.0000 </r>
       <r>   12.0036    0.0000 </r>
       <r>   12.4978    0.0000 </r>
       <r>   12.8257    0.0000 </r>
       <r>   13.2014    0.0000 </r>
       <r>   14.1917    0.0000 </r>
       <r>   14.7162    0.0000 </r>
       <r>   15.1616    0.0000 </r>
       <r>   15.9180    0.0000 </r>
       <r>   16.5641    0.0000 </r>
      </set>
      <set comment="kpoint 18">
       <r>  -68.6486    1.0000 </r>
       <r>  -68.6452    1.0000 </r>
       <r>  -68.6337    1.0000 </r>
       <r>  -68.6250    1.0000 </r>
       <r>  -68.6177    1.0000 </r>
       <r>  -68.6137    1.0000 </r>
       <r>  -68.6001    1.0000 </r>
       <r>  -68.5962    1.0000 </r>
       <r>  -68.5779    1.0000 </r>
       <r>  -68.5700    1.0000 </r>
       <r>  -68.5610    1.0000 </r>
       <r>  -68.5512    1.0000 </r>
       <r>  -12.5017    1.0000 </r>
       <r>  -11.4283    1.0000 </r>
       <r>  -10.9483    1.0000 </r>
       <r>  -10.5812    1.0000 </r>
       <r>  -10.3780    1.0000 </r>
       <r>  -10.2088    1.0000 </r>
       <r>   -5.8284    1.0000 </r>
       <r>   -4.9417    1.0000 </r>
       <r>   -2.5729    1.0000 </r>
       <r>   -2.3669    1.0000 </r>
       <r>   -1.9180    1.0000 </r>
       <r>   -1.5976    1.0000 </r>
       <r>   -1.4142    1.0000 </r>
       <r>   -1.1228    1.0000 </r>
       <r>   -0.8153    1.0000 </r>
       <r>   -0.6758    1.0000 </r>
       <r>   -0.5301    1.0000 </r>
       <r>   -0.4682    1.0000 </r>
       <r>   -0.2528    1.0000 </r>
       <r>   -0.1943    1.0000 </r>
       <r>   -0.1649    1.0000 </r>
       <r>   -0.1195    1.0000 </r>
       <r>   -0.0340    1.0000 </r>
       <r>    0.0603    1.0000 </r>
       <r>    1.2814    1.0000 </r>
       <r>    1.3240    1.0000 </r>
       <r>    1.3459    1.0000 </r>
       <r>    1.4343    1.0000 </r>
       <r>    1.4519    1.0000 </r>
       <r>    1.4684    1.0000 </r>
       <r>    1.4949    1.0000 </r>
       <r>    1.5605    1.0000 </r>
       <r>    1.7271    1.0000 </r>
       <r>    1.8415    1.0000 </r>
       <r>    1.9712    1.0000 </r>
       <r>    2.1005    1.0000 </r>
       <r>    2.3382    1.0000 </r>
       <r>    2.4495    1.0000 </r>
       <r>    2.5387    1.0000 </r>
       <r>    2.8508    1.0000 </r>
       <r>    3.0523    1.0000 </r>
       <r>    3.2640    1.0000 </r>
       <r>    3.6694    1.0000 </r>
       <r>    3.7816    1.0000 </r>
       <r>    6.2656   -0.0000 </r>
       <r>    6.8023   -0.0000 </r>
       <r>    7.8159    0.0000 </r>
       <r>    8.1364    0.0000 </r>
       <r>    8.3355    0.0000 </r>
       <r>    8.9317    0.0000 </r>
       <r>    9.3423    0.0000 </r>
[...]
       <r>   11.7097    0.0000 </r>
       <r>   11.8945    0.0000 </r>
       <r>   12.2977    0.0000 </r>
       <r>   12.6493    0.0000 </r>
       <r>   13.0111    0.0000 </r>
       <r>   13.2337    0.0000 </r>
       <r>   13.6837    0.0000 </r>
       <r>   14.0638    0.0000 </r>
       <r>   14.3887    0.0000 </r>
       <r>   16.5167    0.0000 </r>
      </set>
      <set comment="kpoint 42">
       <r>  -68.6486    1.0000 </r>
       <r>  -68.6452    1.0000 </r>
       <r>  -68.6334    1.0000 </r>
       <r>  -68.6247    1.0000 </r>
       <r>  -68.6175    1.0000 </r>
       <r>  -68.6138    1.0000 </r>
       <r>  -68.5998    1.0000 </r>
       <r>  -68.5960    1.0000 </r>
       <r>  -68.5778    1.0000 </r>
       <r>  -68.5699    1.0000 </r>
       <r>  -68.5610    1.0000 </r>
       <r>  -68.5512    1.0000 </r>
       <r>  -12.1804    1.0000 </r>
       <r>  -11.7077    1.0000 </r>
       <r>  -10.7174    1.0000 </r>
       <r>  -10.6940    1.0000 </r>
       <r>  -10.5887    1.0000 </r>
       <r>  -10.3948    1.0000 </r>
       <r>   -5.4436    1.0000 </r>
       <r>   -5.0710    1.0000 </r>
       <r>   -2.5088    1.0000 </r>
       <r>   -2.3804    1.0000 </r>
       <r>   -1.9646    1.0000 </r>
       <r>   -1.3671    1.0000 </r>
       <r>   -1.3325    1.0000 </r>
       <r>   -1.0562    1.0000 </r>
       <r>   -0.8333    1.0000 </r>
       <r>   -0.7671    1.0000 </r>
       <r>   -0.4230    1.0000 </r>
       <r>   -0.3362    1.0000 </r>
       <r>   -0.2695    1.0000 </r>
       <r>   -0.2068    1.0000 </r>
       <r>   -0.1444    1.0000 </r>
       <r>   -0.1380    1.0000 </r>
       <r>   -0.0125    1.0000 </r>
       <r>    0.0309    1.0000 </r>
       <r>    1.1749    1.0000 </r>
       <r>    1.3716    1.0000 </r>
       <r>    1.3979    1.0000 </r>
       <r>    1.4521    1.0000 </r>
       <r>    1.4561    1.0000 </r>
       <r>    1.5015    1.0000 </r>
       <r>    1.5183    1.0000 </r>
       <r>    1.5484    1.0000 </r>
       <r>    1.7440    1.0000 </r>
       <r>    1.8210    1.0000 </r>
       <r>    1.9720    1.0000 </r>
       <r>    2.2263    1.0000 </r>
       <r>    2.3984    1.0000 </r>
       <r>    2.6129    1.0000 </r>
       <r>    2.6536    1.0000 </r>
       <r>    2.9150    1.0000 </r>
       <r>    3.0703    1.0000 </r>
       <r>    3.1184    1.0000 </r>
       <r>    3.2850    1.0000 </r>
       <r>    3.5819    1.0000 </r>
       <r>    6.2946   -0.0000 </r>
       <r>    6.3850   -0.0000 </r>
       <r>    7.3600    0.0000 </r>
       <r>    7.5240    0.0000 </r>
       <r>    8.3134    0.0000 </r>
       <r>    8.3394    0.0000 </r>
       <r>    9.1025    0.0000 </r>
       <r>    9.3582    0.0000 </r>
       <r>    9.7153    0.0000 </r>
       <r>    9.9503    0.0000 </r>
       <r>   10.5266    0.0000 </r>
       <r>   10.9890    0.0000 </r>
       <r>   11.4217    0.0000 </r>
       <r>   11.5625    0.0000 </r>
       <r>   12.0249    0.0000 </r>
       <r>   12.2876    0.0000 </r>
       <r>   12.4313    0.0000 </r>
       <r>   12.4728    0.0000 </r>
       <r>   13.0290    0.0000 </r>
       <r>   13.1437    0.0000 </r>
       <r>   14.1353    0.0000 </r>
       <r>   14.4368    0.0000 </r>
       <r>   15.1654    0.0000 </r>
       <r>   15.8700    0.0000 </r>
      </set>
     </set>
    </set>
   </array>
  </eigenvalues>
  <separator name="orbital magnetization" >
   <v name="MAGDIPOLOUT">      0.00000000      0.00000000      0.00000000</v>
  </separator>
  <dos>
   <i name="efermi">      4.21775985 </i>
   <total>
    <array>
     <dimension dim="1">gridpoints</dimension>
     <dimension dim="2">spin</dimension>
     <field>energy</field>
     <field>total</field>
     <field>integrated</field>
     <set>
      <set comment="spin 1">
       <r>   -72.8301     0.0000     0.0000 </r>
       <r>   -72.5238     0.0000     0.0000 </r>
       <r>   -72.2174     0.0000     0.0000 </r>
       <r>   -71.9110     0.0000     0.0000 </r>
       <r>   -71.6046     0.0000     0.0000 </r>
       <r>   -71.2982     0.0000     0.0000 </r>
       <r>   -70.9918     0.0000     0.0000 </r>
       <r>   -70.6855     0.0000     0.0000 </r>
       <r>   -70.3791     0.0000     0.0000 </r>
       <r>   -70.0727     0.0000     0.0000 </r>
       <r>   -69.7663     0.0000     0.0000 </r>
       <r>   -69.4599    -0.0000    -0.0000 </r>
       <r>   -69.1536    -0.0000    -0.0000 </r>
       <r>   -68.8472    -0.2161    -0.0662 </r>
       <r>   -68.5408    69.5524    21.2433 </r>
       <r>   -68.2344     8.9981    24.0002 </r>
       <r>   -67.9280    -0.0005    24.0000 </r>
       <r>   -67.6217     0.0000    24.0000 </r>
       <r>   -67.3153     0.0000    24.0000 </r>
       <r>   -67.0089     0.0000    24.0000 </r>
       <r>   -66.7025     0.0000    24.0000 </r>
       <r>   -66.3961     0.0000    24.0000 </r>
       <r>   -66.0898     0.0000    24.0000 </r>
       <r>   -65.7834     0.0000    24.0000 </r>
       <r>   -65.4770     0.0000    24.0000 </r>
       <r>   -65.1706     0.0000    24.0000 </r>
       <r>   -64.8642     0.0000    24.0000 </r>
       <r>   -64.5578     0.0000    24.0000 </r>
       <r>   -64.2515     0.0000    24.0000 </r>
       <r>   -63.9451     0.0000    24.0000 </r>
       <r>   -63.6387     0.0000    24.0000 </r>
       <r>   -63.3323     0.0000    24.0000 </r>
       <r>   -63.0259     0.0000    24.0000 </r>
       <r>   -62.7196     0.0000    24.0000 </r>
       <r>   -62.4132     0.0000    24.0000 </r>
       <r>   -62.1068     0.0000    24.0000 </r>
       <r>   -61.8004     0.0000    24.0000 </r>
       <r>   -61.4940     0.0000    24.0000 </r>
       <r>   -61.1877     0.0000    24.0000 </r>
       <r>   -60.8813     0.0000    24.0000 </r>
       <r>   -60.5749     0.0000    24.0000 </r>
       <r>   -60.2685     0.0000    24.0000 </r>
       <r>   -59.9621     0.0000    24.0000 </r>
       <r>   -59.6557     0.0000    24.0000 </r>
       <r>   -59.3494     0.0000    24.0000 </r>
       <r>   -59.0430     0.0000    24.0000 </r>
       <r>   -58.7366     0.0000    24.0000 </r>
       <r>   -58.4302     0.0000    24.0000 </r>
       <r>   -58.1238     0.0000    24.0000 </r>
       <r>   -57.8175     0.0000    24.0000 </r>
       <r>   -57.5111     0.0000    24.0000 </r>
       <r>   -57.2047     0.0000    24.0000 </r>
       <r>   -56.8983     0.0000    24.0000 </r>
       <r>   -56.5919     0.0000    24.0000 </r>
       <r>   -56.2856     0.0000    24.0000 </r>
       <r>   -55.9792     0.0000    24.0000 </r>
       <r>   -55.6728     0.0000    24.0000 </r>
       <r>   -55.3664     0.0000    24.0000 </r>
       <r>   -55.0600     0.0000    24.0000 </r>
       <r>   -54.7537     0.0000    24.0000 </r>
       <r>   -54.4473     0.0000    24.0000 </r>
       <r>   -54.1409     0.0000    24.0000 </r>
       <r>   -53.8345     0.0000    24.0000 </r>
       <r>   -53.5281     0.0000    24.0000 </r>
       <r>   -53.2217     0.0000    24.0000 </r>
       <r>   -52.9154     0.0000    24.0000 </r>
       <r>   -52.6090     0.0000    24.0000 </r>
       <r>   -52.3026     0.0000    24.0000 </r>
       <r>   -51.9962     0.0000    24.0000 </r>
       <r>   -51.6898     0.0000    24.0000 </r>
       <r>   -51.3835     0.0000    24.0000 </r>
       <r>   -51.0771     0.0000    24.0000 </r>
       <r>   -50.7707     0.0000    24.0000 </r>
       <r>   -50.4643     0.0000    24.0000 </r>
       <r>   -50.1579     0.0000    24.0000 </r>
       <r>   -49.8516     0.0000    24.0000 </r>
       <r>   -49.5452     0.0000    24.0000 </r>
       <r>   -49.2388     0.0000    24.0000 </r>
       <r>   -48.9324     0.0000    24.0000 </r>
       <r>   -48.6260     0.0000    24.0000 </r>
       <r>   -48.3197     0.0000    24.0000 </r>
       <r>   -48.0133     0.0000    24.0000 </r>
       <r>   -47.7069     0.0000    24.0000 </r>
       <r>   -47.4005     0.0000    24.0000 </r>
       <r>   -47.0941     0.0000    24.0000 </r>
       <r>   -46.7877     0.0000    24.0000 </r>
       <r>   -46.4814     0.0000    24.0000 </r>
       <r>   -46.1750     0.0000    24.0000 </r>
       <r>   -45.8686     0.0000    24.0000 </r>
       <r>   -45.5622     0.0000    24.0000 </r>
       <r>   -45.2558     0.0000    24.0000 </r>
       <r>   -44.9495     0.0000    24.0000 </r>
       <r>   -44.6431     0.0000    24.0000 </r>
       <r>   -44.3367     0.0000    24.0000 </r>
       <r>   -44.0303     0.0000    24.0000 </r>
       <r>   -43.7239     0.0000    24.0000 </r>
       <r>   -43.4176     0.0000    24.0000 </r>
       <r>   -43.1112     0.0000    24.0000 </r>
       <r>   -42.8048     0.0000    24.0000 </r>
       <r>   -42.4984     0.0000    24.0000 </r>
       <r>   -42.1920     0.0000    24.0000 </r>
       <r>   -41.8856     0.0000    24.0000 </r>
       <r>   -41.5793     0.0000    24.0000 </r>
       <r>   -41.2729     0.0000    24.0000 </r>
       <r>   -40.9665     0.0000    24.0000 </r>
       <r>   -40.6601     0.0000    24.0000 </r>
       <r>   -40.3537     0.0000    24.0000 </r>
       <r>   -40.0474     0.0000    24.0000 </r>
       <r>   -39.7410     0.0000    24.0000 </r>
       <r>   -39.4346     0.0000    24.0000 </r>
       <r>   -39.1282     0.0000    24.0000 </r>
       <r>   -38.8218     0.0000    24.0000 </r>
       <r>   -38.5155     0.0000    24.0000 </r>
       <r>   -38.2091     0.0000    24.0000 </r>
       <r>   -37.9027     0.0000    24.0000 </r>
       <r>   -37.5963     0.0000    24.0000 </r>
       <r>   -37.2899     0.0000    24.0000 </r>
       <r>   -36.9836     0.0000    24.0000 </r>
       <r>   -36.6772     0.0000    24.0000 </r>
       <r>   -36.3708     0.0000    24.0000 </r>
       <r>   -36.0644     0.0000    24.0000 </r>
       <r>   -35.7580     0.0000    24.0000 </r>
       <r>   -35.4516     0.0000    24.0000 </r>
       <r>   -35.1453     0.0000    24.0000 </r>
       <r>   -34.8389     0.0000    24.0000 </r>
       <r>   -34.5325     0.0000    24.0000 </r>
       <r>   -34.2261     0.0000    24.0000 </r>
       <r>   -33.9197     0.0000    24.0000 </r>
       <r>   -33.6134     0.0000    24.0000 </r>
       <r>   -33.3070     0.0000    24.0000 </r>
       <r>   -33.0006     0.0000    24.0000 </r>
       <r>   -32.6942     0.0000    24.0000 </r>
       <r>   -32.3878     0.0000    24.0000 </r>
       <r>   -32.0815     0.0000    24.0000 </r>
       <r>   -31.7751     0.0000    24.0000 </r>
       <r>   -31.4687     0.0000    24.0000 </r>
       <r>   -31.1623     0.0000    24.0000 </r>
       <r>   -30.8559     0.0000    24.0000 </r>
       <r>   -30.5496     0.0000    24.0000 </r>
       <r>   -30.2432     0.0000    24.0000 </r>
       <r>   -29.9368     0.0000    24.0000 </r>
       <r>   -29.6304     0.0000    24.0000 </r>
       <r>   -29.3240     0.0000    24.0000 </r>
       <r>   -29.0176     0.0000    24.0000 </r>
       <r>   -28.7113     0.0000    24.0000 </r>
       <r>   -28.4049     0.0000    24.0000 </r>
       <r>   -28.0985     0.0000    24.0000 </r>
       <r>   -27.7921     0.0000    24.0000 </r>
       <r>   -27.4857     0.0000    24.0000 </r>
       <r>   -27.1794     0.0000    24.0000 </r>
       <r>   -26.8730     0.0000    24.0000 </r>
       <r>   -26.5666     0.0000    24.0000 </r>
       <r>   -26.2602     0.0000    24.0000 </r>
       <r>   -25.9538     0.0000    24.0000 </r>
       <r>   -25.6475     0.0000    24.0000 </r>
       <r>   -25.3411     0.0000    24.0000 </r>
       <r>   -25.0347     0.0000    24.0000 </r>
       <r>   -24.7283     0.0000    24.0000 </r>
       <r>   -24.4219     0.0000    24.0000 </r>
       <r>   -24.1155     0.0000    24.0000 </r>
       <r>   -23.8092     0.0000    24.0000 </r>
       <r>   -23.5028     0.0000    24.0000 </r>
       <r>   -23.1964     0.0000    24.0000 </r>
       <r>   -22.8900     0.0000    24.0000 </r>
       <r>   -22.5836     0.0000    24.0000 </r>
       <r>   -22.2773     0.0000    24.0000 </r>
       <r>   -21.9709     0.0000    24.0000 </r>
       <r>   -21.6645     0.0000    24.0000 </r>
       <r>   -21.3581     0.0000    24.0000 </r>
       <r>   -21.0517     0.0000    24.0000 </r>
       <r>   -20.7454     0.0000    24.0000 </r>
       <r>   -20.4390     0.0000    24.0000 </r>
       <r>   -20.1326     0.0000    24.0000 </r>
       <r>   -19.8262     0.0000    24.0000 </r>
       <r>   -19.5198     0.0000    24.0000 </r>
       <r>   -19.2135     0.0000    24.0000 </r>
       <r>   -18.9071     0.0000    24.0000 </r>
       <r>   -18.6007     0.0000    24.0000 </r>
       <r>   -18.2943     0.0000    24.0000 </r>
       <r>   -17.9879     0.0000    24.0000 </r>
       <r>   -17.6815     0.0000    24.0000 </r>
       <r>   -17.3752     0.0000    24.0000 </r>
       <r>   -17.0688     0.0000    24.0000 </r>
       <r>   -16.7624     0.0000    24.0000 </r>
       <r>   -16.4560     0.0000    24.0000 </r>
       <r>   -16.1496     0.0000    24.0000 </r>
       <r>   -15.8433     0.0000    24.0000 </r>
       <r>   -15.5369     0.0000    24.0000 </r>
       <r>   -15.2305     0.0000    24.0000 </r>
       <r>   -14.9241     0.0000    24.0000 </r>
       <r>   -14.6177     0.0000    24.0000 </r>
       <r>   -14.3114     0.0000    24.0000 </r>
       <r>   -14.0050     0.0000    24.0000 </r>
       <r>   -13.6986    -0.0000    24.0000 </r>
       <r>   -13.3922    -0.0000    24.0000 </r>
       <r>   -13.0858    -0.0000    24.0000 </r>
       <r>   -12.7795    -0.0037    23.9989 </r>
       <r>   -12.4731     1.5688    24.4795 </r>
       <r>   -12.1667     3.5672    25.5724 </r>
       <r>   -11.8603     1.9026    26.1553 </r>
       <r>   -11.5539     2.1433    26.8120 </r>
       <r>   -11.2475     3.1972    27.7916 </r>
       <r>   -10.9412     2.5254    28.5653 </r>
       <r>   -10.6348     9.3200    31.4208 </r>
       <r>   -10.3284     9.4844    34.3266 </r>
       <r>   -10.0220     5.4787    36.0052 </r>
       <r>    -9.7156    -0.0170    36.0000 </r>
       <r>    -9.4093    -0.0000    36.0000 </r>
       <r>    -9.1029     0.0000    36.0000 </r>
       <r>    -8.7965     0.0000    36.0000 </r>
       <r>    -8.4901     0.0000    36.0000 </r>
       <r>    -8.1837     0.0000    36.0000 </r>
       <r>    -7.8774     0.0000    36.0000 </r>
       <r>    -7.5710     0.0000    36.0000 </r>
       <r>    -7.2646     0.0000    36.0000 </r>
       <r>    -6.9582    -0.0000    36.0000 </r>
       <r>    -6.6518    -0.0000    36.0000 </r>
       <r>    -6.3454    -0.0000    36.0000 </r>
       <r>    -6.0391     0.0568    36.0174 </r>
       <r>    -5.7327     3.4794    37.0834 </r>
       <r>    -5.4263     2.0474    37.7107 </r>
       <r>    -5.1199     1.8855    38.2884 </r>
       <r>    -4.8135     3.3168    39.3046 </r>
       <r>    -4.5072     2.2045    39.9800 </r>
       <r>    -4.2008     0.0652    40.0000 </r>
       <r>    -3.8944    -0.0000    40.0000 </r>
       <r>    -3.5880    -0.0000    40.0000 </r>
       <r>    -3.2816    -0.0000    40.0000 </r>
       <r>    -2.9753    -0.0004    39.9999 </r>
       <r>    -2.6689     0.3817    40.1168 </r>
       <r>    -2.3625     6.1626    42.0049 </r>
       <r>    -2.0561     6.6997    44.0576 </r>
       <r>    -1.7497     7.3396    46.3063 </r>
       <r>    -1.4434     6.4129    48.2711 </r>
       <r>    -1.1370     8.7697    50.9580 </r>
       <r>    -0.8306     9.0442    53.7290 </r>
       <r>    -0.5242    11.3399    57.2033 </r>
       <r>    -0.2178    18.0182    62.7237 </r>
       <r>     0.0886    29.0555    71.6258 </r>
       <r>     0.3949     1.2223    72.0002 </r>
       <r>     0.7013    -0.0008    72.0000 </r>
       <r>     1.0077    -0.0193    71.9941 </r>
       <r>     1.3141     7.3545    74.2474 </r>
       <r>     1.6205    44.8466    87.9875 </r>
       <r>     1.9268    13.8164    92.2206 </r>
       <r>     2.2332    13.2052    96.2664 </r>
       <r>     2.5396    12.8734   100.2105 </r>
       <r>     2.8460    11.1596   103.6296 </r>
       <r>     3.1524     9.0744   106.4098 </r>
       <r>     3.4587     7.9224   108.8371 </r>
       <r>     3.7651     6.9506   110.9667 </r>
       <r>     4.0715     3.1413   111.9291 </r>
       <r>     4.3779     0.2319   112.0002 </r>
       <r>     4.6843    -0.0005   112.0000 </r>
       <r>     4.9907    -0.0000   112.0000 </r>
       <r>     5.2970    -0.0001   112.0000 </r>
       <r>     5.6034     0.0760   112.0233 </r>
       <r>     5.9098     0.1591   112.0720 </r>
       <r>     6.2162     2.6019   112.8692 </r>
       <r>     6.5226     4.3413   114.1993 </r>
       <r>     6.8289     3.4839   115.2667 </r>
       <r>     7.1353     2.4540   116.0185 </r>
       <r>     7.4417     1.4262   116.4555 </r>
       <r>     7.7481     3.1901   117.4329 </r>
       <r>     8.0545     5.5550   119.1349 </r>
       <r>     8.3608     5.5322   120.8298 </r>
       <r>     8.6672     4.5788   122.2327 </r>
       <r>     8.9736     4.5133   123.6155 </r>
       <r>     9.2800     5.5900   125.3281 </r>
       <r>     9.5864     5.7056   127.0762 </r>
       <r>     9.8927     4.7762   128.5396 </r>
       <r>    10.1991     4.4828   129.9130 </r>
       <r>    10.5055     6.4818   131.8989 </r>
       <r>    10.8119     8.3159   134.4467 </r>
       <r>    11.1183     8.2312   136.9686 </r>
       <r>    11.4247     7.9824   139.4143 </r>
       <r>    11.7310     7.9085   141.8373 </r>
       <r>    12.0374     6.5590   143.8468 </r>
       <r>    12.3438     5.8496   145.6390 </r>
       <r>    12.6502     6.7224   147.6986 </r>
       <r>    12.9566     5.7591   149.4631 </r>
       <r>    13.2629     6.1556   151.3491 </r>
       <r>    13.5693     5.3457   152.9869 </r>
       <r>    13.8757     4.0500   154.2277 </r>
       <r>    14.1821     3.1886   155.2046 </r>
       <r>    14.4885     4.6116   156.6175 </r>
       <r>    14.7948     3.4750   157.6822 </r>
       <r>    15.1012     1.3927   158.1089 </r>
       <r>    15.4076     1.6240   158.6065 </r>
       <r>    15.7140     1.2106   158.9774 </r>
       <r>    16.0204     1.6825   159.4929 </r>
       <r>    16.3267     0.3263   159.5928 </r>
       <r>    16.6331     0.6861   159.8031 </r>
       <r>    16.9395     0.5188   159.9620 </r>
       <r>    17.2459     0.1241   160.0000 </r>
       <r>    17.5523    -0.0000   160.0000 </r>
       <r>    17.8587     0.0000   160.0000 </r>
       <r>    18.1650     0.0000   160.0000 </r>
       <r>    18.4714     0.0000   160.0000 </r>
       <r>    18.7778     0.0000   160.0000 </r>
       <r>    19.0842     0.0000   160.0000 </r>
      </set>
     </set>
    </array>
   </total>
  </dos>
 </calculation>
 <structure name="finalpos" >
  <crystal>
   <varray name="basis" >
    <v>       3.22479600      -5.64383000       0.03157200 </v>
    <v>       3.22479600       5.64383000       0.03157200 </v>
    <v>      -2.10194600       0.00000000       6.07553700 </v>
   </varray>
   <i name="volume">    221.90106089 </i>
   <varray name="rec_basis" >
    <v>       0.15452516      -0.08859232       0.05346088 </v>
    <v>       0.15452516       0.08859232       0.05346088 </v>
    <v>      -0.00160600       0.00000000       0.16403888 </v>
   </varray>
  </crystal>
  <varray name="positions" >
   <v>       0.61844300       0.12117100       0.11953300 </v>
   <v>       0.12117100       0.61844300       0.61953300 </v>
   <v>       0.96295700       0.79032200       0.11881300 </v>
   <v>       0.79032200       0.96295700       0.61881300 </v>
   <v>       0.43973200       0.26728100       0.59904700 </v>
   <v>       0.26728100       0.43973200       0.09904700 </v>
   <v>       0.07949800       0.91167500       0.49736300 </v>
   <v>       0.57140300       0.41236400       0.98018400 </v>
   <v>       0.73711100       0.25160040       0.49504900 </v>
   <v>       0.41236400       0.57140300       0.48018400 </v>
   <v>       0.91167500       0.07949800       0.99736300 </v>
   <v>       0.25006200       0.73711100       0.99504900 </v>
  </varray>
 </structure>
</modeling>
