       N       E                     dE             d eps       ncg     rms          ort
SDA:   1     0.757028727837E+02    0.75703E+02   -0.21358E+03  3360   0.534E+03 0.000E+00
DMP:   2    -0.824337883629E+01   -0.83946E+02   -0.14721E+03  3360   0.396E+03-0.743E+02
DMP:   3    -0.148657354300E+02   -0.66224E+01   -0.20633E+03  3360   0.704E+03-0.493E+03
DMP:   4    -0.223250699878E+02   -0.74593E+01   -0.10808E+03  3360   0.393E+03-0.321E+03
DMP:   5    -0.607586231694E+02   -0.38434E+02   -0.15138E+02  3360   0.710E+02-0.869E+02
DMP:   6    -0.658864396648E+02   -0.51278E+01   -0.82858E+01  3360   0.250E+02-0.112E+02
DMP:   7    -0.674446319785E+02   -0.15582E+01   -0.41925E+01  3360   0.149E+02-0.116E+02
DMP:   8    -0.690788126752E+02   -0.16342E+01   -0.77957E+00  3360   0.287E+01-0.241E+01
DMP:   9    -0.693930773914E+02   -0.31426E+00   -0.39099E+00  3360   0.112E+01-0.367E+00
DMP:  10    -0.694978492977E+02   -0.10477E+00   -0.15434E+00  3360   0.555E+00-0.443E+00
DMP:  11    -0.695683522597E+02   -0.70503E-01   -0.37081E-01  3360   0.106E+00-0.346E-01
DMP:  12    -0.695807266685E+02   -0.12374E-01   -0.23145E-01  3360   0.698E-01-0.313E-01
DMP:  13    -0.695905170190E+02   -0.97904E-02   -0.51709E-02  3360   0.163E-01-0.885E-02
DMP:  14    -0.695930034022E+02   -0.24864E-02   -0.38315E-02  3360   0.976E-02-0.487E-03
DMP:  15    -0.695945320315E+02   -0.15286E-02   -0.10524E-02  3360   0.337E-02-0.194E-02
DMP:  16    -0.695951132011E+02   -0.58117E-03   -0.41588E-03  3360   0.927E-03 0.294E-03
DMP:  17    -0.695952895901E+02   -0.17639E-03   -0.21183E-03  3360   0.587E-03-0.151E-03
DMP:  18    -0.695954088113E+02   -0.11922E-03   -0.57454E-04  3360   0.121E-03 0.584E-04
DMP:  19    -0.695954385078E+02   -0.29696E-04   -0.36042E-04  3360   0.899E-04 0.640E-06
DMP:  20    -0.695954588001E+02   -0.20292E-04   -0.11902E-04  3360   0.247E-04 0.133E-04
DMP:  21    -0.695954664434E+02   -0.76433E-05   -0.72269E-05  3360   0.144E-04 0.961E-05
   1 F= -.69595466E+02 E0= -.69595658E+02  d E =0.575763E-03
