nqpoint: 1      
npath: 1      
segment_nqpoint:
- 1
reciprocal_lattice:
- [   0.14993466,  -0.08673359,   0.05290997 ] # a*
- [   0.14993466,   0.08673359,   0.05290997 ] # b*
- [  -0.00025631,   0.00000000,   0.15857564 ] # c*
natom: 12     
lattice:
- [     3.332885000000000,    -5.764779000000000,     0.005387000000000 ] # a
- [     3.332885000000000,     5.764779000000000,     0.005387000000000 ] # b
- [    -2.224085000000000,     0.000000000000000,     6.302544000000000 ] # c
points:
- symbol: Cu # 1
  coordinates: [  0.618558000000000,  0.116066000000000,  0.121074000000000 ]
  mass: 63.546000
- symbol: Cu # 2
  coordinates: [  0.116066000000000,  0.618558000000000,  0.621074000000000 ]
  mass: 63.546000
- symbol: Cu # 3
  coordinates: [  0.964421000000000,  0.798406000000000,  0.121014000000000 ]
  mass: 63.546000
- symbol: Cu # 4
  coordinates: [  0.798406000000000,  0.964421000000000,  0.621014000000000 ]
  mass: 63.546000
- symbol: Sn # 5
  coordinates: [  0.446048000000000,  0.262133000000000,  0.601046000000000 ]
  mass: 118.710000
- symbol: Sn # 6
  coordinates: [  0.262133000000000,  0.446048000000000,  0.101046000000000 ]
  mass: 118.710000
- symbol: S  # 7
  coordinates: [  0.061335000000000,  0.891656000000000,  0.486563000000000 ]
  mass: 32.065000
- symbol: S  # 8
  coordinates: [  0.588241000000000,  0.415409000000000,  0.994692000000000 ]
  mass: 32.065000
- symbol: S  # 9
  coordinates: [  0.756455000000000,  0.243291000000000,  0.485599000000000 ]
  mass: 32.065000
- symbol: S  # 10
  coordinates: [  0.415409000000000,  0.588241000000000,  0.494692000000000 ]
  mass: 32.065000
- symbol: S  # 11
  coordinates: [  0.891656000000000,  0.061335000000000,  0.986563000000000 ]
  mass: 32.065000
- symbol: S  # 12
  coordinates: [  0.243291000000000,  0.756455000000000,  0.985599000000000 ]
  mass: 32.065000
supercell_matrix:
- [    1,    0,    0 ]
- [    0,    1,    0 ]
- [    0,    0,    1 ]

phonon:
- q-position: [    0.0000000,    0.0000000,    0.0000000 ]
  distance:    0.0000000
  band:
  - # 1
    frequency:   -0.2413729425
    eigenvector:
    - # atom 1
      - [ -0.24353575807565,  0.00000000000000 ]
      - [  0.00320438422927,  0.00000000000000 ]
      - [ -0.15276719801549,  0.00000000000000 ]
    - # atom 2
      - [ -0.24353575807566,  0.00000000000000 ]
      - [ -0.00320438422913,  0.00000000000000 ]
      - [ -0.15276719801548,  0.00000000000000 ]
    - # atom 3
      - [ -0.22309564625606,  0.00000000000000 ]
      - [ -0.00253061659534,  0.00000000000000 ]
      - [ -0.15572660165446,  0.00000000000000 ]
    - # atom 4
      - [ -0.22309564625605,  0.00000000000000 ]
      - [  0.00253061659547,  0.00000000000000 ]
      - [ -0.15572660165446,  0.00000000000000 ]
    - # atom 5
      - [ -0.36627588986989,  0.00000000000000 ]
      - [  0.00401159591486,  0.00000000000000 ]
      - [ -0.24258791944335,  0.00000000000000 ]
    - # atom 6
      - [ -0.36627588986989,  0.00000000000000 ]
      - [ -0.00401159591466,  0.00000000000000 ]
      - [ -0.24258791944335,  0.00000000000000 ]
    - # atom 7
      - [ -0.19261756175184,  0.00000000000000 ]
      - [ -0.00132643697260,  0.00000000000000 ]
      - [ -0.12355536633543,  0.00000000000000 ]
    - # atom 8
      - [ -0.18623971182862,  0.00000000000000 ]
      - [  0.00007515007235,  0.00000000000000 ]
      - [ -0.12678554330068,  0.00000000000000 ]
    - # atom 9
      - [ -0.18200105012894,  0.00000000000000 ]
      - [  0.00273352517013,  0.00000000000000 ]
      - [ -0.11844622138118,  0.00000000000000 ]
    - # atom 10
      - [ -0.18623971182862,  0.00000000000000 ]
      - [ -0.00007515007225,  0.00000000000000 ]
      - [ -0.12678554330068,  0.00000000000000 ]
    - # atom 11
      - [ -0.19261756175183,  0.00000000000000 ]
      - [  0.00132643697270,  0.00000000000000 ]
      - [ -0.12355536633543,  0.00000000000000 ]
    - # atom 12
      - [ -0.18200105012894,  0.00000000000000 ]
      - [ -0.00273352517003,  0.00000000000000 ]
      - [ -0.11844622138118,  0.00000000000000 ]
  - # 2
    frequency:   -0.1624618337
    eigenvector:
    - # atom 1
      - [  0.01639826078545,  0.00000000000000 ]
      - [  0.29288065916588,  0.00000000000000 ]
      - [ -0.00530741968502,  0.00000000000000 ]
    - # atom 2
      - [ -0.01639826078521,  0.00000000000000 ]
      - [  0.29288065916587,  0.00000000000000 ]
      - [  0.00530741968490,  0.00000000000000 ]
    - # atom 3
      - [ -0.00366505271135,  0.00000000000000 ]
      - [  0.28632867702138,  0.00000000000000 ]
      - [  0.00373689049662,  0.00000000000000 ]
    - # atom 4
      - [  0.00366505271158,  0.00000000000000 ]
      - [  0.28632867702138,  0.00000000000000 ]
      - [ -0.00373689049674,  0.00000000000000 ]
    - # atom 5
      - [ -0.00225744736117,  0.00000000000000 ]
      - [  0.43286161038110,  0.00000000000000 ]
      - [ -0.00062906083957,  0.00000000000000 ]
    - # atom 6
      - [  0.00225744736151,  0.00000000000000 ]
      - [  0.43286161038111,  0.00000000000000 ]
      - [  0.00062906083942,  0.00000000000000 ]
    - # atom 7
      - [ -0.00221881126463,  0.00000000000000 ]
      - [  0.21327172644808,  0.00000000000000 ]
      - [  0.00029164651826,  0.00000000000000 ]
    - # atom 8
      - [ -0.00000281805423,  0.00000000000000 ]
      - [  0.22432835217259,  0.00000000000000 ]
      - [ -0.00056746556959,  0.00000000000000 ]
    - # atom 9
      - [ -0.00659143814143,  0.00000000000000 ]
      - [  0.22063738857070,  0.00000000000000 ]
      - [ -0.00002573935685,  0.00000000000000 ]
    - # atom 10
      - [  0.00000281805440,  0.00000000000000 ]
      - [  0.22432835217259,  0.00000000000000 ]
      - [  0.00056746556952,  0.00000000000000 ]
    - # atom 11
      - [  0.00221881126481,  0.00000000000000 ]
      - [  0.21327172644808,  0.00000000000000 ]
      - [ -0.00029164651834,  0.00000000000000 ]
    - # atom 12
      - [  0.00659143814160,  0.00000000000000 ]
      - [  0.22063738857070,  0.00000000000000 ]
      - [  0.00002573935677,  0.00000000000000 ]
  - # 3
    frequency:   -0.0620511400
    eigenvector:
    - # atom 1
      - [  0.17176748084950,  0.00000000000000 ]
      - [  0.00941817878358,  0.00000000000000 ]
      - [ -0.25546827794734,  0.00000000000000 ]
    - # atom 2
      - [  0.17176748084951,  0.00000000000000 ]
      - [ -0.00941817878380,  0.00000000000000 ]
      - [ -0.25546827794734,  0.00000000000000 ]
    - # atom 3
      - [  0.17199241615325,  0.00000000000000 ]
      - [ -0.00391521958583,  0.00000000000000 ]
      - [ -0.26034621814397,  0.00000000000000 ]
    - # atom 4
      - [  0.17199241615325,  0.00000000000000 ]
      - [  0.00391521958562,  0.00000000000000 ]
      - [ -0.26034621814396,  0.00000000000000 ]
    - # atom 5
      - [  0.22459938789627,  0.00000000000000 ]
      - [ -0.00100113225536,  0.00000000000000 ]
      - [ -0.34310748237320,  0.00000000000000 ]
    - # atom 6
      - [  0.22459938789627,  0.00000000000000 ]
      - [  0.00100113225504,  0.00000000000000 ]
      - [ -0.34310748237320,  0.00000000000000 ]
    - # atom 7
      - [  0.11802662593492,  0.00000000000000 ]
      - [ -0.00143731026398,  0.00000000000000 ]
      - [ -0.18098013153368,  0.00000000000000 ]
    - # atom 8
      - [  0.11920713553591,  0.00000000000000 ]
      - [  0.00222826953420,  0.00000000000000 ]
      - [ -0.17901085648827,  0.00000000000000 ]
    - # atom 9
      - [  0.11973858329288,  0.00000000000000 ]
      - [  0.00213361933478,  0.00000000000000 ]
      - [ -0.17974830211785,  0.00000000000000 ]
    - # atom 10
      - [  0.11920713553591,  0.00000000000000 ]
      - [ -0.00222826953437,  0.00000000000000 ]
      - [ -0.17901085648827,  0.00000000000000 ]
    - # atom 11
      - [  0.11802662593492,  0.00000000000000 ]
      - [  0.00143731026382,  0.00000000000000 ]
      - [ -0.18098013153368,  0.00000000000000 ]
    - # atom 12
      - [  0.11973858329287,  0.00000000000000 ]
      - [ -0.00213361933495,  0.00000000000000 ]
      - [ -0.17974830211785,  0.00000000000000 ]
  - # 4
    frequency:    1.8497114615
    eigenvector:
    - # atom 1
      - [ -0.38182848432229,  0.00000000000000 ]
      - [ -0.10959480964771,  0.00000000000000 ]
      - [  0.15328975241911,  0.00000000000000 ]
    - # atom 2
      - [  0.38182848432229,  0.00000000000000 ]
      - [ -0.10959480964770,  0.00000000000000 ]
      - [ -0.15328975241911,  0.00000000000000 ]
    - # atom 3
      - [ -0.20539114300794,  0.00000000000000 ]
      - [  0.03822118246252,  0.00000000000000 ]
      - [  0.08567106158276,  0.00000000000000 ]
    - # atom 4
      - [  0.20539114300794,  0.00000000000000 ]
      - [  0.03822118246252,  0.00000000000000 ]
      - [ -0.08567106158276,  0.00000000000000 ]
    - # atom 5
      - [  0.37732270742799,  0.00000000000000 ]
      - [  0.04820363988433,  0.00000000000000 ]
      - [  0.16303596893631,  0.00000000000000 ]
    - # atom 6
      - [ -0.37732270742799,  0.00000000000000 ]
      - [  0.04820363988432,  0.00000000000000 ]
      - [ -0.16303596893631,  0.00000000000000 ]
    - # atom 7
      - [  0.19267035657400,  0.00000000000000 ]
      - [  0.01779599554142,  0.00000000000000 ]
      - [  0.05582686815957,  0.00000000000000 ]
    - # atom 8
      - [ -0.13705334276120,  0.00000000000000 ]
      - [ -0.00348658344004,  0.00000000000000 ]
      - [  0.07934227109858,  0.00000000000000 ]
    - # atom 9
      - [  0.16827567690311,  0.00000000000000 ]
      - [  0.02627877695502,  0.00000000000000 ]
      - [  0.04221530191011,  0.00000000000000 ]
    - # atom 10
      - [  0.13705334276120,  0.00000000000000 ]
      - [ -0.00348658344003,  0.00000000000000 ]
      - [ -0.07934227109859,  0.00000000000000 ]
    - # atom 11
      - [ -0.19267035657400,  0.00000000000000 ]
      - [  0.01779599554142,  0.00000000000000 ]
      - [ -0.05582686815957,  0.00000000000000 ]
    - # atom 12
      - [ -0.16827567690311,  0.00000000000000 ]
      - [  0.02627877695502,  0.00000000000000 ]
      - [ -0.04221530191011,  0.00000000000000 ]
  - # 5
    frequency:    2.0220800744
    eigenvector:
    - # atom 1
      - [  0.04275273560103,  0.00000000000000 ]
      - [  0.40811519911439,  0.00000000000000 ]
      - [ -0.08882708002353,  0.00000000000000 ]
    - # atom 2
      - [  0.04275273560103,  0.00000000000000 ]
      - [ -0.40811519911440,  0.00000000000000 ]
      - [ -0.08882708002353,  0.00000000000000 ]
    - # atom 3
      - [ -0.02976363367434,  0.00000000000000 ]
      - [  0.25610909143589,  0.00000000000000 ]
      - [  0.11045856112111,  0.00000000000000 ]
    - # atom 4
      - [ -0.02976363367434,  0.00000000000000 ]
      - [ -0.25610909143589,  0.00000000000000 ]
      - [  0.11045856112111,  0.00000000000000 ]
    - # atom 5
      - [ -0.00379233129076,  0.00000000000000 ]
      - [ -0.38499397525702,  0.00000000000000 ]
      - [ -0.01748450608421,  0.00000000000000 ]
    - # atom 6
      - [ -0.00379233129076,  0.00000000000000 ]
      - [  0.38499397525702,  0.00000000000000 ]
      - [ -0.01748450608421,  0.00000000000000 ]
    - # atom 7
      - [ -0.02060868708036,  0.00000000000000 ]
      - [ -0.16047142265222,  0.00000000000000 ]
      - [  0.05014971554651,  0.00000000000000 ]
    - # atom 8
      - [  0.01330725335948,  0.00000000000000 ]
      - [  0.17726359326192,  0.00000000000000 ]
      - [ -0.00702798982150,  0.00000000000000 ]
    - # atom 9
      - [ -0.01603355329789,  0.00000000000000 ]
      - [ -0.18670380257609,  0.00000000000000 ]
      - [ -0.03239786047235,  0.00000000000000 ]
    - # atom 10
      - [  0.01330725335948,  0.00000000000000 ]
      - [ -0.17726359326192,  0.00000000000000 ]
      - [ -0.00702798982151,  0.00000000000000 ]
    - # atom 11
      - [ -0.02060868708036,  0.00000000000000 ]
      - [  0.16047142265222,  0.00000000000000 ]
      - [  0.05014971554651,  0.00000000000000 ]
    - # atom 12
      - [ -0.01603355329789,  0.00000000000000 ]
      - [  0.18670380257609,  0.00000000000000 ]
      - [ -0.03239786047235,  0.00000000000000 ]
  - # 6
    frequency:    2.1837030523
    eigenvector:
    - # atom 1
      - [  0.21488438480356,  0.00000000000000 ]
      - [  0.01910637409073,  0.00000000000000 ]
      - [ -0.42609452979616,  0.00000000000000 ]
    - # atom 2
      - [ -0.21488438480356,  0.00000000000000 ]
      - [  0.01910637409073,  0.00000000000000 ]
      - [  0.42609452979616,  0.00000000000000 ]
    - # atom 3
      - [ -0.14645657398549,  0.00000000000000 ]
      - [  0.08593260852760,  0.00000000000000 ]
      - [  0.34747526434525,  0.00000000000000 ]
    - # atom 4
      - [  0.14645657398549,  0.00000000000000 ]
      - [  0.08593260852759,  0.00000000000000 ]
      - [ -0.34747526434526,  0.00000000000000 ]
    - # atom 5
      - [  0.20337363519637,  0.00000000000000 ]
      - [ -0.05964106684971,  0.00000000000000 ]
      - [ -0.01566481471650,  0.00000000000000 ]
    - # atom 6
      - [ -0.20337363519637,  0.00000000000000 ]
      - [ -0.05964106684971,  0.00000000000000 ]
      - [  0.01566481471651,  0.00000000000000 ]
    - # atom 7
      - [  0.04094135958354,  0.00000000000000 ]
      - [ -0.10013112394416,  0.00000000000000 ]
      - [  0.15513146573677,  0.00000000000000 ]
    - # atom 8
      - [  0.03686071349202,  0.00000000000000 ]
      - [  0.02935837383631,  0.00000000000000 ]
      - [ -0.00324233336016,  0.00000000000000 ]
    - # atom 9
      - [  0.07656540345202,  0.00000000000000 ]
      - [  0.01702958861559,  0.00000000000000 ]
      - [ -0.18170086527296,  0.00000000000000 ]
    - # atom 10
      - [ -0.03686071349202,  0.00000000000000 ]
      - [  0.02935837383630,  0.00000000000000 ]
      - [  0.00324233336016,  0.00000000000000 ]
    - # atom 11
      - [ -0.04094135958354,  0.00000000000000 ]
      - [ -0.10013112394415,  0.00000000000000 ]
      - [ -0.15513146573677,  0.00000000000000 ]
    - # atom 12
      - [ -0.07656540345202,  0.00000000000000 ]
      - [  0.01702958861559,  0.00000000000000 ]
      - [  0.18170086527296,  0.00000000000000 ]
  - # 7
    frequency:    2.2924084247
    eigenvector:
    - # atom 1
      - [  0.06330510886319,  0.00000000000000 ]
      - [ -0.04883594908954,  0.00000000000000 ]
      - [  0.24551211714051,  0.00000000000000 ]
    - # atom 2
      - [  0.06330510886319,  0.00000000000000 ]
      - [  0.04883594908955,  0.00000000000000 ]
      - [  0.24551211714050,  0.00000000000000 ]
    - # atom 3
      - [  0.14390566547499,  0.00000000000000 ]
      - [  0.17363645798411,  0.00000000000000 ]
      - [ -0.46467458465463,  0.00000000000000 ]
    - # atom 4
      - [  0.14390566547498,  0.00000000000000 ]
      - [ -0.17363645798411,  0.00000000000000 ]
      - [ -0.46467458465462,  0.00000000000000 ]
    - # atom 5
      - [ -0.16639991513462,  0.00000000000000 ]
      - [ -0.12150851802028,  0.00000000000000 ]
      - [  0.19400429915483,  0.00000000000000 ]
    - # atom 6
      - [ -0.16639991513462,  0.00000000000000 ]
      - [  0.12150851802028,  0.00000000000000 ]
      - [  0.19400429915483,  0.00000000000000 ]
    - # atom 7
      - [  0.02149008616816,  0.00000000000000 ]
      - [ -0.11514457826525,  0.00000000000000 ]
      - [ -0.21070785381035,  0.00000000000000 ]
    - # atom 8
      - [ -0.06479647861463,  0.00000000000000 ]
      - [  0.05129590852865,  0.00000000000000 ]
      - [  0.06769796530813,  0.00000000000000 ]
    - # atom 9
      - [  0.07318214784760,  0.00000000000000 ]
      - [  0.02409385493022,  0.00000000000000 ]
      - [  0.10484539919530,  0.00000000000000 ]
    - # atom 10
      - [ -0.06479647861463,  0.00000000000000 ]
      - [ -0.05129590852866,  0.00000000000000 ]
      - [  0.06769796530813,  0.00000000000000 ]
    - # atom 11
      - [  0.02149008616816,  0.00000000000000 ]
      - [  0.11514457826525,  0.00000000000000 ]
      - [ -0.21070785381034,  0.00000000000000 ]
    - # atom 12
      - [  0.07318214784760,  0.00000000000000 ]
      - [ -0.02409385493023,  0.00000000000000 ]
      - [  0.10484539919530,  0.00000000000000 ]
  - # 8
    frequency:    2.4190495993
    eigenvector:
    - # atom 1
      - [  0.17308274645604,  0.00000000000000 ]
      - [ -0.04087101762404,  0.00000000000000 ]
      - [  0.40613390022456,  0.00000000000000 ]
    - # atom 2
      - [  0.17308274645604,  0.00000000000000 ]
      - [  0.04087101762404,  0.00000000000000 ]
      - [  0.40613390022457,  0.00000000000000 ]
    - # atom 3
      - [ -0.26952722254091,  0.00000000000000 ]
      - [  0.07639824896937,  0.00000000000000 ]
      - [  0.04333779552350,  0.00000000000000 ]
    - # atom 4
      - [ -0.26952722254091,  0.00000000000000 ]
      - [ -0.07639824896936,  0.00000000000000 ]
      - [  0.04333779552349,  0.00000000000000 ]
    - # atom 5
      - [  0.06030986946941,  0.00000000000000 ]
      - [  0.00352565818487,  0.00000000000000 ]
      - [ -0.37230213853852,  0.00000000000000 ]
    - # atom 6
      - [  0.06030986946941,  0.00000000000000 ]
      - [ -0.00352565818488,  0.00000000000000 ]
      - [ -0.37230213853852,  0.00000000000000 ]
    - # atom 7
      - [ -0.03305893003512,  0.00000000000000 ]
      - [ -0.00914359494287,  0.00000000000000 ]
      - [  0.01865859289732,  0.00000000000000 ]
    - # atom 8
      - [ -0.03046212241228,  0.00000000000000 ]
      - [ -0.01241241134198,  0.00000000000000 ]
      - [ -0.13820766521099,  0.00000000000000 ]
    - # atom 9
      - [  0.11220195420475,  0.00000000000000 ]
      - [ -0.07979176851707,  0.00000000000000 ]
      - [  0.20036164938526,  0.00000000000000 ]
    - # atom 10
      - [ -0.03046212241229,  0.00000000000000 ]
      - [  0.01241241134198,  0.00000000000000 ]
      - [ -0.13820766521099,  0.00000000000000 ]
    - # atom 11
      - [ -0.03305893003512,  0.00000000000000 ]
      - [  0.00914359494287,  0.00000000000000 ]
      - [  0.01865859289732,  0.00000000000000 ]
    - # atom 12
      - [  0.11220195420475,  0.00000000000000 ]
      - [  0.07979176851707,  0.00000000000000 ]
      - [  0.20036164938526,  0.00000000000000 ]
  - # 9
    frequency:    2.6879112524
    eigenvector:
    - # atom 1
      - [  0.05688390132700,  0.00000000000000 ]
      - [  0.13461337499297,  0.00000000000000 ]
      - [  0.09176238655040,  0.00000000000000 ]
    - # atom 2
      - [ -0.05688390132700,  0.00000000000000 ]
      - [  0.13461337499297,  0.00000000000000 ]
      - [ -0.09176238655040,  0.00000000000000 ]
    - # atom 3
      - [  0.50162600546582,  0.00000000000000 ]
      - [ -0.04601024127471,  0.00000000000000 ]
      - [  0.19560431257475,  0.00000000000000 ]
    - # atom 4
      - [ -0.50162600546583,  0.00000000000000 ]
      - [ -0.04601024127471,  0.00000000000000 ]
      - [ -0.19560431257475,  0.00000000000000 ]
    - # atom 5
      - [  0.15145416301598,  0.00000000000000 ]
      - [ -0.05551898766845,  0.00000000000000 ]
      - [  0.30859818553420,  0.00000000000000 ]
    - # atom 6
      - [ -0.15145416301598,  0.00000000000000 ]
      - [ -0.05551898766845,  0.00000000000000 ]
      - [ -0.30859818553420,  0.00000000000000 ]
    - # atom 7
      - [  0.08503969733865,  0.00000000000000 ]
      - [  0.03886565131227,  0.00000000000000 ]
      - [  0.08722223143407,  0.00000000000000 ]
    - # atom 8
      - [  0.13280112505867,  0.00000000000000 ]
      - [  0.01339519748258,  0.00000000000000 ]
      - [  0.12190543208577,  0.00000000000000 ]
    - # atom 9
      - [ -0.04923894738104,  0.00000000000000 ]
      - [ -0.05622869923058,  0.00000000000000 ]
      - [  0.04847961843565,  0.00000000000000 ]
    - # atom 10
      - [ -0.13280112505867,  0.00000000000000 ]
      - [  0.01339519748258,  0.00000000000000 ]
      - [ -0.12190543208577,  0.00000000000000 ]
    - # atom 11
      - [ -0.08503969733865,  0.00000000000000 ]
      - [  0.03886565131227,  0.00000000000000 ]
      - [ -0.08722223143407,  0.00000000000000 ]
    - # atom 12
      - [  0.04923894738104,  0.00000000000000 ]
      - [ -0.05622869923058,  0.00000000000000 ]
      - [ -0.04847961843565,  0.00000000000000 ]
  - # 10
    frequency:    2.8076092662
    eigenvector:
    - # atom 1
      - [ -0.29663683264359,  0.00000000000000 ]
      - [ -0.33947956505262,  0.00000000000000 ]
      - [ -0.05442188091915,  0.00000000000000 ]
    - # atom 2
      - [ -0.29663683264361,  0.00000000000000 ]
      - [  0.33947956505268,  0.00000000000000 ]
      - [ -0.05442188091914,  0.00000000000000 ]
    - # atom 3
      - [ -0.19085804050763,  0.00000000000000 ]
      - [  0.31307418908089,  0.00000000000000 ]
      - [ -0.03283312817610,  0.00000000000000 ]
    - # atom 4
      - [ -0.19085804050762,  0.00000000000000 ]
      - [ -0.31307418908094,  0.00000000000000 ]
      - [ -0.03283312817605,  0.00000000000000 ]
    - # atom 5
      - [  0.29375385713986,  0.00000000000000 ]
      - [ -0.11516656644533,  0.00000000000000 ]
      - [  0.04305579803797,  0.00000000000000 ]
    - # atom 6
      - [  0.29375385713981,  0.00000000000000 ]
      - [  0.11516656644533,  0.00000000000000 ]
      - [  0.04305579803799,  0.00000000000000 ]
    - # atom 7
      - [  0.14065543529328,  0.00000000000000 ]
      - [ -0.02639395994564,  0.00000000000000 ]
      - [ -0.03127781702465,  0.00000000000000 ]
    - # atom 8
      - [ -0.01698978507511,  0.00000000000000 ]
      - [ -0.05104663685780,  0.00000000000000 ]
      - [  0.04302391466063,  0.00000000000000 ]
    - # atom 9
      - [ -0.06334044875410,  0.00000000000000 ]
      - [ -0.15371833585011,  0.00000000000000 ]
      - [ -0.05499134772973,  0.00000000000000 ]
    - # atom 10
      - [ -0.01698978507510,  0.00000000000000 ]
      - [  0.05104663685781,  0.00000000000000 ]
      - [  0.04302391466063,  0.00000000000000 ]
    - # atom 11
      - [  0.14065543529326,  0.00000000000000 ]
      - [  0.02639395994564,  0.00000000000000 ]
      - [ -0.03127781702463,  0.00000000000000 ]
    - # atom 12
      - [ -0.06334044875410,  0.00000000000000 ]
      - [  0.15371833585009,  0.00000000000000 ]
      - [ -0.05499134772973,  0.00000000000000 ]
  - # 11
    frequency:    2.8148594732
    eigenvector:
    - # atom 1
      - [ -0.10917976028457,  0.00000000000000 ]
      - [ -0.40965657886357,  0.00000000000000 ]
      - [  0.05300280149645,  0.00000000000000 ]
    - # atom 2
      - [  0.10917976028452,  0.00000000000000 ]
      - [ -0.40965657886351,  0.00000000000000 ]
      - [ -0.05300280149646,  0.00000000000000 ]
    - # atom 3
      - [  0.05840441759752,  0.00000000000000 ]
      - [  0.27386668172669,  0.00000000000000 ]
      - [  0.27481264638379,  0.00000000000000 ]
    - # atom 4
      - [ -0.05840441759754,  0.00000000000000 ]
      - [  0.27386668172663,  0.00000000000000 ]
      - [ -0.27481264638380,  0.00000000000000 ]
    - # atom 5
      - [ -0.30588561233909,  0.00000000000000 ]
      - [  0.05552273213962,  0.00000000000000 ]
      - [  0.12161251909772,  0.00000000000000 ]
    - # atom 6
      - [  0.30588561233914,  0.00000000000000 ]
      - [  0.05552273213963,  0.00000000000000 ]
      - [ -0.12161251909771,  0.00000000000000 ]
    - # atom 7
      - [ -0.15043229390645,  0.00000000000000 ]
      - [ -0.00844428022028,  0.00000000000000 ]
      - [  0.09281269963015,  0.00000000000000 ]
    - # atom 8
      - [  0.04070120102752,  0.00000000000000 ]
      - [ -0.03742295277276,  0.00000000000000 ]
      - [  0.03963140448816,  0.00000000000000 ]
    - # atom 9
      - [ -0.00564034582561,  0.00000000000000 ]
      - [  0.12688815848064,  0.00000000000000 ]
      - [  0.00143115579163,  0.00000000000000 ]
    - # atom 10
      - [ -0.04070120102753,  0.00000000000000 ]
      - [ -0.03742295277275,  0.00000000000000 ]
      - [ -0.03963140448815,  0.00000000000000 ]
    - # atom 11
      - [  0.15043229390647,  0.00000000000000 ]
      - [ -0.00844428022028,  0.00000000000000 ]
      - [ -0.09281269963015,  0.00000000000000 ]
    - # atom 12
      - [  0.00564034582560,  0.00000000000000 ]
      - [  0.12688815848066,  0.00000000000000 ]
      - [ -0.00143115579164,  0.00000000000000 ]
  - # 12
    frequency:    2.9995231351
    eigenvector:
    - # atom 1
      - [ -0.30893501865960,  0.00000000000000 ]
      - [  0.19575385105681,  0.00000000000000 ]
      - [  0.16898571170704,  0.00000000000000 ]
    - # atom 2
      - [ -0.30893501865961,  0.00000000000000 ]
      - [ -0.19575385105681,  0.00000000000000 ]
      - [  0.16898571170704,  0.00000000000000 ]
    - # atom 3
      - [  0.31923744548658,  0.00000000000000 ]
      - [  0.24543558948201,  0.00000000000000 ]
      - [  0.05308456480119,  0.00000000000000 ]
    - # atom 4
      - [  0.31923744548659,  0.00000000000000 ]
      - [ -0.24543558948201,  0.00000000000000 ]
      - [  0.05308456480120,  0.00000000000000 ]
    - # atom 5
      - [  0.04415965945590,  0.00000000000000 ]
      - [  0.32406727338164,  0.00000000000000 ]
      - [ -0.14414104277220,  0.00000000000000 ]
    - # atom 6
      - [  0.04415965945590,  0.00000000000000 ]
      - [ -0.32406727338164,  0.00000000000000 ]
      - [ -0.14414104277220,  0.00000000000000 ]
    - # atom 7
      - [ -0.01953992990565,  0.00000000000000 ]
      - [ -0.14826851031292,  0.00000000000000 ]
      - [  0.01762573275288,  0.00000000000000 ]
    - # atom 8
      - [  0.07006643049780,  0.00000000000000 ]
      - [ -0.05720103333929,  0.00000000000000 ]
      - [ -0.05152338264308,  0.00000000000000 ]
    - # atom 9
      - [ -0.09902396448869,  0.00000000000000 ]
      - [  0.02878464696504,  0.00000000000000 ]
      - [  0.02866537802130,  0.00000000000000 ]
    - # atom 10
      - [  0.07006643049780,  0.00000000000000 ]
      - [  0.05720103333929,  0.00000000000000 ]
      - [ -0.05152338264308,  0.00000000000000 ]
    - # atom 11
      - [ -0.01953992990565,  0.00000000000000 ]
      - [  0.14826851031292,  0.00000000000000 ]
      - [  0.01762573275288,  0.00000000000000 ]
    - # atom 12
      - [ -0.09902396448868,  0.00000000000000 ]
      - [ -0.02878464696504,  0.00000000000000 ]
      - [  0.02866537802129,  0.00000000000000 ]
  - # 13
    frequency:    3.0594061230
    eigenvector:
    - # atom 1
      - [ -0.28917892838656,  0.00000000000000 ]
      - [  0.22159336604220,  0.00000000000000 ]
      - [ -0.10173868623255,  0.00000000000000 ]
    - # atom 2
      - [  0.28917892838656,  0.00000000000000 ]
      - [  0.22159336604221,  0.00000000000000 ]
      - [  0.10173868623255,  0.00000000000000 ]
    - # atom 3
      - [  0.12485287915298,  0.00000000000000 ]
      - [  0.33127143437201,  0.00000000000000 ]
      - [ -0.04733143246234,  0.00000000000000 ]
    - # atom 4
      - [ -0.12485287915298,  0.00000000000000 ]
      - [  0.33127143437200,  0.00000000000000 ]
      - [  0.04733143246234,  0.00000000000000 ]
    - # atom 5
      - [ -0.05796985275155,  0.00000000000000 ]
      - [ -0.37275954753617,  0.00000000000000 ]
      - [ -0.14632194295780,  0.00000000000000 ]
    - # atom 6
      - [  0.05796985275155,  0.00000000000000 ]
      - [ -0.37275954753617,  0.00000000000000 ]
      - [  0.14632194295780,  0.00000000000000 ]
    - # atom 7
      - [ -0.01991245029154,  0.00000000000000 ]
      - [  0.14411425528810,  0.00000000000000 ]
      - [ -0.00924874622254,  0.00000000000000 ]
    - # atom 8
      - [  0.04952820808882,  0.00000000000000 ]
      - [ -0.08580557659267,  0.00000000000000 ]
      - [ -0.05862715791972,  0.00000000000000 ]
    - # atom 9
      - [  0.15901981698301,  0.00000000000000 ]
      - [ -0.01949455025405,  0.00000000000000 ]
      - [ -0.07389530232636,  0.00000000000000 ]
    - # atom 10
      - [ -0.04952820808882,  0.00000000000000 ]
      - [ -0.08580557659266,  0.00000000000000 ]
      - [  0.05862715791972,  0.00000000000000 ]
    - # atom 11
      - [  0.01991245029154,  0.00000000000000 ]
      - [  0.14411425528810,  0.00000000000000 ]
      - [  0.00924874622254,  0.00000000000000 ]
    - # atom 12
      - [ -0.15901981698301,  0.00000000000000 ]
      - [ -0.01949455025405,  0.00000000000000 ]
      - [  0.07389530232636,  0.00000000000000 ]
  - # 14
    frequency:    3.8307118198
    eigenvector:
    - # atom 1
      - [  0.07962333947437,  0.00000000000000 ]
      - [  0.31840822852604,  0.00000000000000 ]
      - [ -0.09088335832057,  0.00000000000000 ]
    - # atom 2
      - [  0.07962333947437,  0.00000000000000 ]
      - [ -0.31840822852604,  0.00000000000000 ]
      - [ -0.09088335832057,  0.00000000000000 ]
    - # atom 3
      - [ -0.39496937948825,  0.00000000000000 ]
      - [  0.07419130564842,  0.00000000000000 ]
      - [ -0.23444104966522,  0.00000000000000 ]
    - # atom 4
      - [ -0.39496937948825,  0.00000000000000 ]
      - [ -0.07419130564842,  0.00000000000000 ]
      - [ -0.23444104966521,  0.00000000000000 ]
    - # atom 5
      - [  0.14118343530345,  0.00000000000000 ]
      - [  0.30102964611741,  0.00000000000000 ]
      - [  0.15130620441428,  0.00000000000000 ]
    - # atom 6
      - [  0.14118343530345,  0.00000000000000 ]
      - [ -0.30102964611741,  0.00000000000000 ]
      - [  0.15130620441428,  0.00000000000000 ]
    - # atom 7
      - [  0.07193201777223,  0.00000000000000 ]
      - [ -0.02336224471413,  0.00000000000000 ]
      - [  0.01658880834024,  0.00000000000000 ]
    - # atom 8
      - [  0.06559241012389,  0.00000000000000 ]
      - [ -0.09264394941371,  0.00000000000000 ]
      - [  0.07959541035635,  0.00000000000000 ]
    - # atom 9
      - [ -0.04850016548037,  0.00000000000000 ]
      - [  0.07496539129094,  0.00000000000000 ]
      - [  0.03025930898705,  0.00000000000000 ]
    - # atom 10
      - [  0.06559241012389,  0.00000000000000 ]
      - [  0.09264394941371,  0.00000000000000 ]
      - [  0.07959541035635,  0.00000000000000 ]
    - # atom 11
      - [  0.07193201777223,  0.00000000000000 ]
      - [  0.02336224471413,  0.00000000000000 ]
      - [  0.01658880834024,  0.00000000000000 ]
    - # atom 12
      - [ -0.04850016548038,  0.00000000000000 ]