  12
   1   1
     3.979001365482643    -0.793858002541618     0.740488753810820
    -0.805722326329873     3.339202296068517     0.488044089290158
     0.683295452989744     0.491110386255307     4.294701821891179
   1   2
    -0.087844053686689    -0.010756216044390    -0.185411679143317
     0.034052898461214    -0.041196031178914    -0.047786160211524
    -0.230037427362072     0.002056830962636    -0.153448896885707
   1   3
    -0.109467144592311     0.205017390727203     0.003728036217278
    -0.136577471478805    -0.164501991765091    -0.030170321674771
    -0.016853419495218     0.020589017210244     0.083815544786616
   1   4
    -0.045957272642021    -0.002045068452237     0.060582183998479
     0.004959129130056    -0.021625187447351    -0.103020688072936
     0.065667727929802     0.091583633632812    -0.149117003376301
   1   5
    -0.070444405905495     0.007639687067828     0.222004476473011
     0.038398092429650    -0.003574165331783     0.335075473075365
     0.308209881552789    -0.467914325398323    -0.492786211841804
   1   6
    -0.551502131889809    -0.517667557717466     0.021816517467440
     0.589710423690469    -0.313419675502365     0.007737431194941
    -0.019239941097923    -0.018638899528630     0.215047831076854
   1   7
    -0.048794170977108    -0.049529817188970    -0.092529298642258
     0.039062563176070     0.016655373650795     0.019677401621798
    -0.031163053964079    -0.027203700538768     0.072551577058701
   1   8
    -0.446049157426833    -0.557554571843434     0.134161535919246
    -0.682574614317811    -0.682260716142514     0.057006738626634
     0.301581918452652     0.233662266468488    -0.130182521628536
   1   9
     0.055825541938238     0.057423175278332    -0.123480899859717
     0.094663257446199    -0.058051814520285     0.113478955153474
    -0.418553019806252     0.389683432018825    -2.933914643589722
   1  10
     0.014134090927814     0.114003989628727    -0.001840799789849
    -0.038668674389405    -0.033975218048008    -0.041872630465685
    -0.032566622765338     0.008490005134067     0.078617099680481
   1  11
    -0.459377504028723     1.054847940007822     0.440690289373605
     0.723990691871680    -1.962690357771833    -0.981228658266107
     0.261480033000941    -0.998875425052573    -0.453681940366380
   1  12
    -2.229524658856951     0.492479551990497    -1.220210112510245
     0.138705741535785    -0.074562800785938     0.183058369728654
    -0.871820823357342     0.275455895163100    -0.431604068960791
   2   1
    -0.087844053686689     0.010756216044390    -0.185411679143317
    -0.034052898461214    -0.041196031178914     0.047786160211524
    -0.230037427362072    -0.002056830962636    -0.153448896885707
   2   2
     3.979001365482643     0.793858002541618     0.740488753810820
     0.805722326329873     3.339202296068517    -0.488044089290158
     0.683295452989744    -0.491110386255307     4.294701821891179
   2   3
    -0.045957272642021     0.002045068452237     0.060582183998479
    -0.004959129130056    -0.021625187447351     0.103020688072936
     0.065667727929802    -0.091583633632812    -0.149117003376301
   2   4
    -0.109467144592311    -0.205017390727203     0.003728036217278
     0.136577471478805    -0.164501991765091     0.030170321674771
    -0.016853419495218    -0.020589017210244     0.083815544786616
   2   5
    -0.551502131889809     0.517667557717466     0.021816517467440
    -0.589710423690469    -0.313419675502365    -0.007737431194941
    -0.019239941097923     0.018638899528630     0.215047831076854
   2   6
    -0.070444405905495    -0.007639687067828     0.222004476473011
    -0.038398092429650    -0.003574165331783    -0.335075473075365
     0.308209881552789     0.467914325398323    -0.492786211841804
   2   7
    -0.459377504028723    -1.054847940007822     0.440690289373605
    -0.723990691871680    -1.962690357771833     0.981228658266107
     0.261480033000941     0.998875425052573    -0.453681940366380
   2   8
     0.014134090927814    -0.114003989628727    -0.001840799789849
     0.038668674389405    -0.033975218048008     0.041872630465685
    -0.032566622765338    -0.008490005134067     0.078617099680481
   2   9
    -2.229524658856951    -0.492479551990497    -1.220210112510245
    -0.138705741535785    -0.074562800785938    -0.183058369728654
    -0.871820823357342    -0.275455895163100    -0.431604068960791
   2  10
    -0.446049157426833     0.557554571843434     0.134161535919246
     0.682574614317811    -0.682260716142514    -0.057006738626634
     0.301581918452652    -0.233662266468488    -0.130182521628536
   2  11
    -0.048794170977108     0.049529817188970    -0.092529298642258
    -0.039062563176070     0.016655373650795    -0.019677401621798
    -0.031163053964079     0.027203700538768     0.072551577058701
   2  12
     0.055825541938238    -0.057423175278332    -0.123480899859717
    -0.094663257446199    -0.058051814520285    -0.113478955153474
    -0.418553019806252    -0.389683432018825    -2.933914643589722
   3   1
    -0.162755527519962    -0.127178695049524    -0.040800782611231
     0.159602927787254    -0.168977711929695     0.019699926053880
    -0.032345911275931     0.006847423015645     0.084322371912295
   3   2
    -0.073458721833348    -0.000568295149831     0.052287021187031
    -0.003806917796630    -0.050278286479059    -0.097978969358579
     0.035914713643383     0.101596749712307    -0.153299816192611
   3   3
     2.968514364612531    -0.029998804521182    -0.239088881402167
     0.009073880831806     4.688758264658441    -0.143287730815852
    -0.234263936748085    -0.182142812936572     4.016024466356766
   3   4
    -0.096546139982882    -0.004162609431209     0.033569454379199
    -0.007581204044218    -0.043796159210535     0.102240129868863
     0.036699007605755    -0.089055291711414    -0.150269328131786
   3   5
     0.081453444280201    -0.049892685878553    -0.586083608621794
    -0.015879147068276    -0.144556318381702     0.059832110979074
    -0.698763932435206     0.016519487614542    -0.469366083893259
   3   6
    -0.355678523908259     0.476490757536512    -0.078200068936877
    -0.643206816209553    -0.494181708257734    -0.027320114692086
    -0.050393899152920    -0.038630692533085     0.233224826297529
   3   7
    -0.233456471131213    -0.006589600227981     0.190013350819407
    -0.034603591948142     0.033139792637582     0.044421356588196
     0.664496675615065     0.014467185475973    -2.702213761496827
   3   8
    -1.027692400990606    -0.282526692538090    -0.097865482085455
    -0.060903754151591     0.010642794158749    -0.099327547535797
    -0.333083529672768    -0.152002891159021    -0.148589811609083
   3   9
    -0.017667946076942     0.051633904368888    -0.062609171524437
    -0.027762806414928    -0.026487577029362    -0.041677418720975
    -0.033870335390712     0.022716124150388     0.074383120919792
   3  10
     0.007586711031871    -0.025530988798263    -0.079549929976447
     0.063524673966672    -0.012131428099554     0.041191988332130
    -0.039276334939972    -0.011518017145098     0.062491416233853
   3  11
    -0.328095053793917    -0.883469106922576     0.347278172817386
    -0.696176194772872    -2.120372355787169     1.067597726760262
     0.135042887290434     1.013783614754529    -0.433522668422556
   3  12
    -0.762205233998306     0.881791817356758     0.561049428469143
     1.257719238595247    -1.671759306279962    -0.925391168684346
     0.549845126812041    -0.702580701643086    -0.413185967968658
   4   1
    -0.073458721833348     0.000568295149831     0.052287021187031
     0.003806917796630    -0.050278286479059     0.097978969358579
     0.035914713643383    -0.101596749712307    -0.153299816192611
   4   2
    -0.162755527519962     0.127178695049524    -0.040800782611231
    -0.159602927787254    -0.168977711929695    -0.019699926053880
    -0.032345911275931    -0.006847423015645     0.084322371912295
   4   3
    -0.096546139982882     0.004162609431209     0.033569454379199
     0.007581204044218    -0.043796159210535    -0.102240129868863
     0.036699007605755     0.089055291711414    -0.150269328131786
   4   4
     2.968514364612531     0.029998804521182    -0.239088881402167
    -0.009073880831806     4.688758264658441     0.143287730815852
    -0.234263936748085     0.182142812936572     4.016024466356766
   4   5
    -0.355678523908259    -0.476490757536512    -0.078200068936877
     0.643206816209553    -0.494181708257734     0.027320114692086
    -0.050393899152920     0.038630692533085     0.233224826297529
   4   6
     0.081453444280201     0.049892685878553    -0.586083608621794
     0.015879147068276    -0.144556318381702    -0.059832110979074
    -0.698763932435206    -0.016519487614542    -0.469366083893259
   4   7
    -0.328095053793917     0.883469106922576     0.347278172817386
     0.696176194772872    -2.120372355787169    -1.067597726760262
     0.135042887290434    -1.013783614754529    -0.433522668422556
   4   8
     0.007586711031871     0.025530988798263    -0.079549929976447
    -0.063524673966672    -0.012131428099554    -0.041191988332130
    -0.039276334939972     0.011518017145098     0.062491416233853
   4   9
    -0.762205233998306    -0.881791817356758     0.561049428469143
    -1.257719238595247    -1.671759306279962     0.925391168684346
     0.549845126812041     0.702580701643086    -0.413185967968658
   4  10
    -1.027692400990606     0.282526692538090    -0.097865482085455
     0.060903754151591     0.010642794158749     0.099327547535797
    -0.333083529672768     0.152002891159021    -0.148589811609083
   4  11
    -0.233456471131213     0.006589600227981     0.190013350819407
     0.034603591948142     0.033139792637582    -0.044421356588196
     0.664496675615065    -0.014467185475973    -2.702213761496827
   4  12
    -0.017667946076942    -0.051633904368888    -0.062609171524437
     0.027762806414928    -0.026487577029362     0.041677418720975
    -0.033870335390712    -0.022716124150388     0.074383120919792
   5   1
    -0.017164068005270     0.021653710150873     0.342004950953024
    -0.006467399755239     0.035642603571618    -0.461161179600279
     0.253277425265954     0.341424302208937    -0.476063518521362
   5   2
    -0.499669307465261    -0.567773912081868     0.017207201666353
     0.535544073704331    -0.269634200958330     0.017500039853870
     0.055623968280912    -0.014548917549649     0.227765811372318
   5   3
     0.131158795000769    -0.010325657250136    -0.660966634597871
    -0.046812989235673    -0.083087720779438     0.006260637019718
    -0.541902138060773     0.054279995830491    -0.450895548888397
   5   4
    -0.307392151266252     0.636372507084711    -0.005416825470102
    -0.475571906961670    -0.436320485085836     0.047447427405983
    -0.032628402504337     0.031877928477606     0.241918736412202
   5   5
    15.782684933605665    -2.257067821006050     0.699095207142415
    -2.256687619774560    12.977631161956898     1.262423668377915
     0.700568173613922     1.264238192545194    11.232525083122198
   5   6
     0.021776820002547    -0.085889275418448     1.144676420455370
     0.085430839265508    -0.081526315596523     1.163528127898459
     1.144127192550689    -1.163788771730494    -1.751835172662538
   5   7
    -9.395706171338276     0.400755543546080    -2.802887493186292
     0.503417880510440    -0.256050524539027     0.082752742045911
    -2.741643231498851     0.093912676753431    -1.398304599544260
   5   8
    -0.695991006150842     0.173774071474025    -0.458532287763608
     0.215075983608919    -0.689894188420153    -0.091030470836050
    -0.773176201899563     0.546301265261853    -6.080405551767283
   5   9
    -3.115779861871866     4.213228928630688     1.550224736553347
     4.143024484409934    -6.724697498011428    -2.288792443635450
     1.483119489597777    -2.487950789501321    -1.316587155289281
   5  10
    -1.945139230939473    -2.515187490225376     0.294445800887056
    -2.610596694592958    -4.712492951802703     0.519656552167717
     0.480651685496475     1.146390463651040    -0.598263617282602
   5  11
    -0.009471069996206    -0.154103182570105    -0.116270821162608
    -0.076098793789069     0.119057506165786    -0.088495317127742
    -0.029447553181347    -0.003781651011941     0.185685405451263
   5  12
     0.050691318312897     0.144562580235148    -0.003579756277815
    -0.010257857389963     0.121372035949598    -0.170088917245741
     0.001430299851090     0.191643715314336     0.184460303758607
   6   1
    -0.499669307465261     0.567773912081868     0.017207201666353
    -0.535544073704331    -0.269634200958330    -0.017500039853870
     0.055623968280912     0.014548917549649     0.227765811372318
   6   2
    -0.017164068005270    -0.021653710150873     0.342004950953024
     0.006467399755239     0.035642603571618     0.461161179600279
     0.253277425265954    -0.341424302208937    -0.476063518521362
   6   3
    -0.307392151266252    -0.636372507084711    -0.005416825470102
     0.475571906961670    -0.436320485085836    -0.047447427405983
    -0.032628402504337    -0.031877928477606     0.241918736412202
   6   4
     0.131158795000769     0.010325657250136    -0.660966634597871
     0.046812989235673    -0.083087720779438    -0.006260637019718
    -0.541902138060773    -0.054279995830491    -0.450895548888397
   6   5
     0.021776820002547     0.085889275418448     1.144676420455370
    -0.085430839265508    -0.081526315596523    -1.163528127898459
     1.144127192550689     1.163788771730494    -1.751835172662538
   6   6
    15.782684933605665     2.257067821006050     0.699095207142415
     2.256687619774560    12.977631161956898    -1.262423668377915
     0.700568173613922    -1.264238192545194    11.232525083122198
   6   7
    -0.009471069996206     0.154103182570105    -0.116270821162608
     0.076098793789069     0.119057506165786     0.088495317127742
    -0.029447553181347     0.003781651011941     0.185685405451263
   6   8
    -1.945139230939473     2.515187490225376     0.294445800887056
     2.610596694592958    -4.712492951802703    -0.519656552167717
     0.480651685496475    -1.146390463651040    -0.598263617282602
   6   9
     0.050691318312897    -0.144562580235148    -0.003579756277815
     0.010257857389963     0.121372035949598     0.170088917245741
     0.001430299851090    -0.191643715314336     0.184460303758607
   6  10
    -0.695991006150842    -0.173774071474025    -0.458532287763608
    -0.215075983608919    -0.689894188420153     0.091030470836050
    -0.773176201899563    -0.546301265261853    -6.080405551767283
   6  11
    -9.395706171338276    -0.400755543546080    -2.802887493186292
    -0.503417880510440    -0.256050524539027    -0.082752742045911
    -2.741643231498851    -0.093912676753431    -1.398304599544260
   6  12
    -3.115779861871866    -4.213228928630688     1.550224736553347
    -4.143024484409934    -6.724697498011428     2.288792443635450
     1.483119489597777     2.487950789501321    -1.316587155289281
   7   1
     0.035896852185823    -0.002174759595325     0.015649218504915
    -0.060077569533814     0.059587229973875    -0.025007028782125
    -0.033026223423906     0.010201728468183     0.104521731134141
   7   2
    -0.375108932397607    -0.688541256841129     0.308639000248336
    -1.039899317119107    -1.919039163495979     0.999638049871596
     0.501514922115141     0.989541502157542    -0.427286904041161
   7   3
    -0.175672251345279    -0.028865120737305     0.707608368708695
    -0.006664921698113     0.095646246764240     0.007539331702527
     0.234694313554181     0.043844794092949    -2.688757371205285
   7   4
    -0.269438145005219     0.693756988298869     0.183846474456022
     0.882977085524382    -2.060667883256560    -1.006932789343694
     0.389986041802961    -1.067799016314327    -0.421758606251766
   7   5
    -9.396907595676996     0.503918666924762    -2.741016805462915
     0.401595318959405    -0.256326304444647     0.093662075317631
    -2.804891267869534     0.082047502392551    -1.397441941746250
   7   6
    -0.012009423352375     0.076571990086894    -0.028410305468102
     0.153696906185443     0.119107752975815     0.002574715851836
    -0.116916947791986     0.087396237122465     0.184584401048196
   7   7
    12.793235736762153    -0.344298859446837     1.349396050923783
    -0.346906575413826     7.338603493379531    -0.087533985917472
     1.351991970071839    -0.087736844823524     7.922766111664441
   7   8
    -0.302018530957360    -0.036155760905684    -0.465737206378601
    -0.001268587565850     0.016721214298419     0.007833304418674
    -0.501217791612857    -0.101291165528104    -0.848372816800671
   7   9
    -1.078710288358218    -0.367581475982374    -0.046603176810323
     0.281574171385187    -1.124494730974188     0.034100257523541
     0.069325236295097    -0.020264729304721    -0.007218246160006
   7  10
    -1.031880643848470     0.190240829184318     0.077702193889901
    -0.176416261237393    -1.227446401877026     0.071962383979547
     0.094651379263758     0.085686386229079    -0.109373790842387
   7  11
    -0.063695971047357     0.044836240365349     0.395132357169378
    -0.045401458158534    -0.513284159311900    -0.048111031828091
     0.395103997021397     0.046935376638278    -1.194419242874132
   7  12
    -0.123689307648263    -0.041706482953002     0.243796326215251
    -0.043208502553011    -0.528407294031578    -0.049724994019198
     0.418783839222825    -0.068561418808641    -1.117242443120793
   8   1
    -0.414835382623915    -0.698276104632073     0.333110496288068
    -0.514204773279560    -0.682034027947842     0.266862540713162
     0.161580378181404     0.075074745395594    -0.117813935673688
   8   2
     0.045355701292847     0.046851918067356    -0.003353532737606
    -0.028479834169539     0.049463364077323     0.009654895669614
     0.020360650902589     0.024215770950511     0.093942129119852
   8   3
    -0.973183082743435    -0.061809971280157    -0.284790367978752
    -0.279197843800535     0.075378589511985    -0.159284697990403
    -0.060293956292566    -0.104249861188578    -0.134379780373942
   8   4
     0.067815457482667    -0.065387048747747     0.002236988618694
     0.021132248914479     0.045819315251132     0.018700476573933
    -0.034620379803750    -0.036713586620871     0.078307435088243
   8   5
    -0.697380905741372     0.215514416387483    -0.773535983424992
     0.173665392775685    -0.690645291597657     0.544748480732305
    -0.458689497652909    -0.090888864656061    -6.080643324316847
   8   6
    -1.947361792921645     2.611501438575995     0.481430560004380
     2.512965410057798    -4.712572942414072    -1.148131812246095
     0.292676173386130    -0.519653116586187    -0.596673199878688
   8   7
    -0.302638151959539    -0.000616064276920    -0.501294333634861
    -0.035540666077708     0.017164772345572    -0.101733041372247
    -0.472935050678989     0.007231647025315    -0.850313427075615
   8   8
     6.502557012471982    -1.966417648585438    -0.114949608130572
    -1.957861466063174     8.525334096520620     0.775072060986895
    -0.104502314358096     0.769528920929935     9.610310315875967
   8   9
    -0.054574791219470    -0.039289876396551     0.394299411089051
    -0.046796240298996    -0.316295583439605    -0.213384341004606
     0.201899367584989     0.233911272108190    -0.864499091014744
   8  10
    -0.016802499123072    -0.068006684510971     0.338549987023021
     0.068862675595339     0.007579760170367     0.170751366568768
     0.332732687120423    -0.171855561635235    -0.911460586320783
   8  11
    -1.041876297710032     0.178218529750610     0.089897760735972
    -0.185814436136227    -1.228151301091285    -0.084861086643741
     0.070225989024370    -0.073017430215596    -0.111021314562570
   8  12
    -1.167076764802821    -0.152280408355248     0.038399123916405
     0.271269243707668    -1.091041040161309    -0.078396285861434
     0.051565424103810    -0.113583054702693    -0.115756634456840
   9   1
     0.062603569295932     0.097018959765382    -0.395470682288082
     0.097579593851279    -0.045197005621174     0.415609558561198
    -0.051757467921459     0.091665276679775    -2.904392876305335
   9   2
    -2.219290330636110    -0.143442932744109    -0.850104003178654
    -0.417746491861287     0.006024708032397    -0.262761938975155
    -1.143084384351503    -0.162783264270986    -0.398509486421122
   9   3
     0.042716401955023    -0.019011324660890     0.004993031078857
     0.051992742290224     0.031439486790161     0.015957405031023
    -0.013925215561614    -0.045139656753112     0.087955451050598
   9   4
    -0.703882625792592    -1.270275963904162     0.597264253370755
    -0.885166864607432    -1.615187173682604     0.714185055771978
     0.602466488503294     0.935880657711189    -0.401280563188290
   9   5
    -3.115511601611428     4.145083213380783     1.487038959658098
     4.212288845710734    -6.723806339070338    -2.489763223589936
     1.548918904945825    -2.287013301363342    -1.316864056982388
   9   6
     0.051356628818777     0.009943603504097     0.002898041513563
    -0.145711995012371     0.122264061214999    -0.191886503230950
    -0.002585687266567     0.169113886599910     0.181994410021288
   9   7
    -1.091363899235912     0.282073616828937     0.065185023911492
    -0.360272515656337    -1.123963962946410    -0.017214441606061
    -0.052317945805659     0.035218136189931    -0.010114015441026
   9   8
    -0.052304603565623    -0.044517163874660     0.210371287830872
    -0.038495409527235    -0.316837036133884     0.234117791961326
     0.395947318413999    -0.210970125975361    -0.860090428600186
   9   9
     8.997301416088018    -2.781726431945162    -0.842266291115400
    -2.773413108023913    11.200603633566892     1.371083838939691
    -0.830181361895717     1.363508412729899     8.100748990530672
   9  10
    -1.165245243552815    -0.262491025381449     0.045861651832919
     0.159194022712535    -1.092038179443094     0.120252744939984
     0.046365548194258     0.084176162531153    -0.116212262795327
   9  11
    -0.121477923159882     0.042948262259554     0.420578086523212
     0.043310728821691    -0.528419133797159     0.067573007471258
     0.245933892072100     0.049054374849380    -1.118718069146250
   9  12
    -0.684902288659169    -0.055601315630517    -0.746348362452125
     0.056441317626421     0.085116652315441     0.022846704725644
    -0.745779735570983    -0.022710030445842    -1.244515680567226
  10   1
     0.045355701292847    -0.046851918067356    -0.003353532737606
     0.028479834169539     0.049463364077323    -0.009654895669614
     0.020360650902589    -0.024215770950511     0.093942129119852
  10   2
    -0.414835382623915     0.698276104632073     0.333110496288068
     0.514204773279560    -0.682034027947842    -0.266862540713162
     0.161580378181404    -0.075074745395594    -0.117813935673688
  10   3
     0.067815457482667     0.065387048747747     0.002236988618694
    -0.021132248914479     0.045819315251132    -0.018700476573933
    -0.034620379803750     0.036713586620871     0.078307435088243
  10   4
    -0.973183082743435     0.061809971280157    -0.284790367978752
     0.279197843800535     0.075378589511985     0.159284697990403
    -0.060293956292566     0.104249861188578    -0.134379780373942
  10   5
    -1.947361792921645    -2.611501438575995     0.481430560004380
    -2.512965410057798    -4.712572942414072     1.148131812246095
     0.292676173386130     0.519653116586187    -0.596673199878688
  10   6
    -0.697380905741372    -0.215514416387483    -0.773535983424992
    -0.173665392775685    -0.690645291597657    -0.544748480732305
    -0.458689497652909     0.090888864656061    -6.080643324316847
  10   7
    -1.041876297710032    -0.178218529750610     0.089897760735972
     0.185814436136227    -1.228151301091285     0.084861086643741
     0.070225989024370     0.073017430215596    -0.111021314562570
  10   8
    -0.016802499123072     0.068006684510971     0.338549987023021
    -0.068862675595339     0.007579760170367    -0.170751366568768
     0.332732687120423     0.171855561635235    -0.911460586320783
  10   9
    -1.167076764802821     0.152280408355248     0.038399123916405
    -0.271269243707668    -1.091041040161309     0.078396285861434
     0.051565424103810     0.113583054702693    -0.115756634456840
  10  10
     6.502557012471982     1.966417648585438    -0.114949608130572
     1.957861466063174     8.525334096520620    -0.775072060986895
    -0.104502314358096    -0.769528920929935     9.610310315875967
  10  11
    -0.302638151959539     0.000616064276920    -0.501294333634861
     0.035540666077708     0.017164772345572     0.101733041372247
    -0.472935050678989    -0.007231647025315    -0.850313427075615
  10  12
    -0.054574791219470     0.039289876396551     0.394299411089051
     0.046796240298996    -0.316295583439605     0.213384341004606
     0.201899367584989    -0.233911272108190    -0.864499091014744
  11   1
    -0.375108932397607     0.688541256841129     0.308639000248336
     1.039899317119107    -1.919039163495979    -0.999638049871596
     0.501514922115141    -0.989541502157542    -0.427286904041161
  11   2
     0.035896852185823     0.002174759595325     0.015649218504915
     0.060077569533814     0.059587229973875     0.025007028782125
    -0.033026223423906    -0.010201728468183     0.104521731134141
  11   3
    -0.269438145005219    -0.693756988298869     0.183846474456022
    -0.882977085524382    -2.060667883256560     1.006932789343694
     0.389986041802961     1.067799016314327    -0.421758606251766
  11   4
    -0.175672251345279     0.028865120737305     0.707608368708695
     0.006664921698113     0.095646246764240    -0.007539331702527
     0.234694313554181    -0.043844794092949    -2.688757371205285
  11   5
    -0.012009423352375    -0.076571990086894    -0.028410305468102
    -0.153696906185443     0.119107752975815    -0.002574715851836
    -0.116916947791986    -0.087396237122465     0.184584401048196
  11   6
    -9.396907595676996    -0.503918666924762    -2.741016805462915
    -0.401595318959405    -0.256326304444647    -0.093662075317631
    -2.804891267869534    -0.082047502392551    -1.397441941746250
  11   7
    -0.063695971047357    -0.044836240365349     0.395132357169378
     0.045401458158534    -0.513284159311900     0.048111031828091
     0.395103997021397    -0.046935376638278    -1.194419242874132
  11   8
    -1.031880643848470    -0.190240829184318     0.077702193889901
     0.176416261237393    -1.227446401877026    -0.071962383979547
     0.094651379263758    -0.085686386229079    -0.109373790842387
  11   9
    -0.123689307648263     0.041706482953002     0.243796326215251
     0.043208502553011    -0.528407294031578     0.049724994019198
     0.418783839222825     0.068561418808641    -1.117242443120793
  11  10
    -0.302018530957360     0.036155760905684    -0.465737206378601
     0.001268587565850     0.016721214298419    -0.007833304418674
    -0.501217791612857     0.101291165528104    -0.848372816800671
  11  11
    12.793235736762153     0.344298859446837     1.349396050923783
     0.346906575413826     7.338603493379531     0.087533985917472
     1.351991970071839     0.087736844823524     7.922766111664441
  11  12
    -1.078710288358218     0.367581475982374    -0.046603176810323
    -0.281574171385187    -1.124494730974188    -0.034100257523541
     0.069325236295097     0.020264729304721    -0.007218246160006
  12   1
    -2.219290330636110     0.143442932744109    -0.850104003178654
     0.417746491861287     0.006024708032397     0.262761938975155
    -1.143084384351503     0.162783264270986    -0.398509486421122
  12   2
     0.062603569295932    -0.097018959765382    -0.395470682288082
    -0.097579593851279    -0.045197005621174    -0.415609558561198
    -0.051757467921459    -0.091665276679775    -2.904392876305335
  12   3
    -0.703882625792592     1.270275963904162     0.597264253370755
     0.885166864607432    -1.615187173682604    -0.714185055771978
     0.602466488503294    -0.935880657711189    -0.401280563188290
  12   4
     0.042716401955023     0.019011324660890     0.004993031078857
    -0.051992742290224     0.031439486790161    -0.015957405031023
    -0.013925215561614     0.045139656753112     0.087955451050598
  12   5
     0.051356628818777    -0.009943603504097     0.002898041513563
     0.145711995012371     0.122264061214999     0.191886503230950
    -0.002585687266567    -0.169113886599910     0.181994410021288
  12   6
    -3.115511601611428    -4.145083213380783     1.487038959658098
    -4.212288845710734    -6.723806339070338     2.489763223589936
     1.548918904945825     2.287013301363342    -1.316864056982388
  12   7
    -0.121477923159882    -0.042948262259554     0.420578086523212
    -0.043310728821691    -0.528419133797159    -0.067573007471258
     0.245933892072100    -0.049054374849380    -1.118718069146250
  12   8
    -1.165245243552815     0.262491025381449     0.045861651832919
    -0.159194022712535    -1.092038179443094    -0.120252744939984
     0.046365548194258    -0.084176162531153    -0.116212262795327
  12   9
    -0.684902288659169     0.055601315630517    -0.746348362452125
    -0.056441317626421     0.085116652315441    -0.022846704725644
    -0.745779735570983     0.022710030445842    -1.244515680567226
  12  10
    -0.052304603565623     0.044517163874660     0.210371287830872
     0.038495409527235    -0.316837036133884    -0.234117791961326
     0.395947318413999     0.210970125975361    -0.860090428600186
  12  11
    -1.091363899235912    -0.282073616828937     0.065185023911492
     0.360272515656337    -1.123963962946410     0.017214441606061