phonopy:
  version: 1.11.14
  configuration:
    dim: "1 1 1"
    create_displacements: ".true."

supercell_matrix:
- [   1,   0,   0 ]
- [   0,   1,   0 ]
- [   0,   0,   1 ]

space_group:
  type: "Cc"
  number: 9
  Hall_symbol: "C -2yc"

primitive_cell:
  lattice:
  - [     3.332885000000000,    -5.764779000000000,     0.005387000000000 ] # a
  - [     3.332885000000000,     5.764779000000000,     0.005387000000000 ] # b
  - [    -2.224085000000000,     0.000000000000000,     6.302544000000000 ] # c
  points:
  - symbol: Cu # 1
    coordinates: [  0.618558000000000,  0.116066000000000,  0.121074000000000 ]
    mass: 63.546000
  - symbol: Cu # 2
    coordinates: [  0.116066000000000,  0.618558000000000,  0.621074000000000 ]
    mass: 63.546000
  - symbol: Cu # 3
    coordinates: [  0.964421000000000,  0.798406000000000,  0.121014000000000 ]
    mass: 63.546000
  - symbol: Cu # 4
    coordinates: [  0.798406000000000,  0.964421000000000,  0.621014000000000 ]
    mass: 63.546000
  - symbol: Sn # 5
    coordinates: [  0.446048000000000,  0.262133000000000,  0.601046000000000 ]
    mass: 118.710000
  - symbol: Sn # 6
    coordinates: [  0.262133000000000,  0.446048000000000,  0.101046000000000 ]
    mass: 118.710000
  - symbol: S  # 7
    coordinates: [  0.061335000000000,  0.891656000000000,  0.486563000000000 ]
    mass: 32.065000
  - symbol: S  # 8
    coordinates: [  0.588241000000000,  0.415409000000000,  0.994692000000000 ]
    mass: 32.065000
  - symbol: S  # 9
    coordinates: [  0.756455000000000,  0.243291000000000,  0.485599000000000 ]
    mass: 32.065000
  - symbol: S  # 10
    coordinates: [  0.415409000000000,  0.588241000000000,  0.494692000000000 ]
    mass: 32.065000
  - symbol: S  # 11
    coordinates: [  0.891656000000000,  0.061335000000000,  0.986563000000000 ]
    mass: 32.065000
  - symbol: S  # 12
    coordinates: [  0.243291000000000,  0.756455000000000,  0.985599000000000 ]
    mass: 32.065000
  reciprocal_lattice: # without 2pi
  - [     0.149934658406275,    -0.086733593776969,     0.052909971710078 ] # a*
  - [     0.149934658406275,     0.086733593776969,     0.052909971710078 ] # b*
  - [    -0.000256308565187,     0.000000000000000,     0.158575639926480 ] # c*

unit_cell:
  lattice:
  - [     3.332885000000000,    -5.764779000000000,     0.005387000000000 ] # a
  - [     3.332885000000000,     5.764779000000000,     0.005387000000000 ] # b
  - [    -2.224085000000000,     0.000000000000000,     6.302544000000000 ] # c
  points:
  - symbol: Cu # 1
    coordinates: [  0.618558000000000,  0.116066000000000,  0.121074000000000 ]
    mass: 63.546000
    reduced_to: 1
  - symbol: Cu # 2
    coordinates: [  0.116066000000000,  0.618558000000000,  0.621074000000000 ]
    mass: 63.546000
    reduced_to: 2
  - symbol: Cu # 3
    coordinates: [  0.964421000000000,  0.798406000000000,  0.121014000000000 ]
    mass: 63.546000
    reduced_to: 3
  - symbol: Cu # 4
    coordinates: [  0.798406000000000,  0.964421000000000,  0.621014000000000 ]
    mass: 63.546000
    reduced_to: 4
  - symbol: Sn # 5
    coordinates: [  0.446048000000000,  0.262133000000000,  0.601046000000000 ]
    mass: 118.710000
    reduced_to: 5
  - symbol: Sn # 6
    coordinates: [  0.262133000000000,  0.446048000000000,  0.101046000000000 ]
    mass: 118.710000
    reduced_to: 6
  - symbol: S  # 7
    coordinates: [  0.061335000000000,  0.891656000000000,  0.486563000000000 ]
    mass: 32.065000
    reduced_to: 7
  - symbol: S  # 8
    coordinates: [  0.588241000000000,  0.415409000000000,  0.994692000000000 ]
    mass: 32.065000
    reduced_to: 8
  - symbol: S  # 9
    coordinates: [  0.756455000000000,  0.243291000000000,  0.485599000000000 ]
    mass: 32.065000
    reduced_to: 9
  - symbol: S  # 10
    coordinates: [  0.415409000000000,  0.588241000000000,  0.494692000000000 ]
    mass: 32.065000
    reduced_to: 10
  - symbol: S  # 11
    coordinates: [  0.891656000000000,  0.061335000000000,  0.986563000000000 ]
    mass: 32.065000
    reduced_to: 11
  - symbol: S  # 12
    coordinates: [  0.243291000000000,  0.756455000000000,  0.985599000000000 ]
    mass: 32.065000
    reduced_to: 12

supercell:
  lattice:
  - [     3.332885000000000,    -5.764779000000000,     0.005387000000000 ] # a
  - [     3.332885000000000,     5.764779000000000,     0.005387000000000 ] # b
  - [    -2.224085000000000,     0.000000000000000,     6.302544000000000 ] # c
  points:
  - symbol: Cu # 1
    coordinates: [  0.618558000000000,  0.116066000000000,  0.121074000000000 ]
    mass: 63.546000
    reduced_to: 1
  - symbol: Cu # 2
    coordinates: [  0.116066000000000,  0.618558000000000,  0.621074000000000 ]
    mass: 63.546000
    reduced_to: 2
  - symbol: Cu # 3
    coordinates: [  0.964421000000000,  0.798406000000000,  0.121014000000000 ]
    mass: 63.546000
    reduced_to: 3
  - symbol: Cu # 4
    coordinates: [  0.798406000000000,  0.964421000000000,  0.621014000000000 ]
    mass: 63.546000
    reduced_to: 4
  - symbol: Sn # 5
    coordinates: [  0.446048000000000,  0.262133000000000,  0.601046000000000 ]
    mass: 118.710000
    reduced_to: 5
  - symbol: Sn # 6
    coordinates: [  0.262133000000000,  0.446048000000000,  0.101046000000000 ]
    mass: 118.710000
    reduced_to: 6
  - symbol: S  # 7
    coordinates: [  0.061335000000000,  0.891656000000000,  0.486563000000000 ]
    mass: 32.065000
    reduced_to: 7
  - symbol: S  # 8
    coordinates: [  0.588241000000000,  0.415409000000000,  0.994692000000000 ]
    mass: 32.065000
    reduced_to: 8
  - symbol: S  # 9
    coordinates: [  0.756455000000000,  0.243291000000000,  0.485599000000000 ]
    mass: 32.065000
    reduced_to: 9
  - symbol: S  # 10
    coordinates: [  0.415409000000000,  0.588241000000000,  0.494692000000000 ]
    mass: 32.065000
    reduced_to: 10
  - symbol: S  # 11
    coordinates: [  0.891656000000000,  0.061335000000000,  0.986563000000000 ]
    mass: 32.065000
    reduced_to: 11
  - symbol: S  # 12
    coordinates: [  0.243291000000000,  0.756455000000000,  0.985599000000000 ]
    mass: 32.065000
    reduced_to: 12
