<?xml version="1.0" encoding="ISO-8859-1"?>
<modeling>
 <generator>
  <i name="program" type="string">vasp </i>
  <i name="version" type="string">5.3.3  </i>
  <i name="subversion" type="string">18Dez12 (build Nov 13 2015 09:58:40) complex                          parallel </i>
  <i name="platform" type="string">LinuxIFC </i>
  <i name="date" type="string">2017 10 18 </i>
  <i name="time" type="string">13:06:26 </i>
 </generator>
 <incar>
  <i type="string" name="SYSTEM"> CGS</i>
  <i type="string" name="PREC">normal</i>
  <i type="string" name="ALGO"> D</i>
  <i type="logical" name="LDIAG"> T  </i>
  <i name="EDIFF">      0.00001000</i>
  <i name="ENCUT">    400.00000000</i>
  <i name="TIME">      0.40000000</i>
  <i type="int" name="ISMEAR">     1</i>
  <i name="SIGMA">      0.10000000</i>
  <i type="logical" name="LHFCALC"> T  </i>
  <i type="string" name="GGA"> PE</i>
  <i name="HFSCREEN">      0.20000000</i>
  <i name="AEXX">      0.25000000</i>
  <i type="string" name="PRECFOCK">fast</i>
 </incar>
 <kpoints>
  <generation param="Gamma">
   <v type="int" name="divisions">       4        4        5 </v>
   <v name="usershift">      0.00000000       0.00000000       0.00000000 </v>
   <v name="genvec1">      0.25000000       0.00000000       0.00000000 </v>
   <v name="genvec2">      0.00000000       0.25000000       0.00000000 </v>
   <v name="genvec3">      0.00000000       0.00000000       0.20000000 </v>
   <v name="shift">      0.00000000       0.00000000       0.00000000 </v>
  </generation>
  <varray name="kpointlist" >
   <v>       0.00000000       0.00000000       0.00000000 </v>
   <v>       0.25000000       0.00000000       0.00000000 </v>
   <v>       0.50000000       0.00000000       0.00000000 </v>
   <v>       0.00000000       0.25000000       0.00000000 </v>
   <v>       0.25000000       0.25000000       0.00000000 </v>
   <v>       0.50000000       0.25000000      -0.00000000 </v>
   <v>      -0.25000000       0.25000000       0.00000000 </v>
   <v>       0.00000000       0.50000000       0.00000000 </v>
   <v>       0.25000000       0.50000000      -0.00000000 </v>
   <v>       0.50000000       0.50000000       0.00000000 </v>
   <v>      -0.00000000      -0.00000000       0.20000000 </v>
   <v>       0.25000000       0.00000000       0.20000000 </v>
   <v>       0.50000000       0.00000000       0.20000000 </v>
   <v>      -0.25000000      -0.00000000       0.20000000 </v>
   <v>       0.00000000       0.25000000       0.20000000 </v>
   <v>       0.25000000       0.25000000       0.20000000 </v>
   <v>       0.50000000       0.25000000       0.20000000 </v>
   <v>      -0.25000000       0.25000000       0.20000000 </v>
   <v>       0.00000000       0.50000000       0.20000000 </v>
   <v>       0.25000000       0.50000000       0.20000000 </v>
   <v>       0.50000000       0.50000000       0.20000000 </v>
   <v>      -0.25000000       0.50000000       0.20000000 </v>
   <v>      -0.00000000      -0.25000000       0.20000000 </v>
   <v>       0.25000000      -0.25000000       0.20000000 </v>
   <v>       0.50000000      -0.25000000       0.20000000 </v>
   <v>      -0.25000000      -0.25000000       0.20000000 </v>
   <v>      -0.00000000      -0.00000000       0.40000000 </v>
   <v>       0.25000000       0.00000000       0.40000000 </v>
   <v>       0.50000000       0.00000000       0.40000000 </v>
   <v>      -0.25000000       0.00000000       0.40000000 </v>
   <v>       0.00000000       0.25000000       0.40000000 </v>
   <v>       0.25000000       0.25000000       0.40000000 </v>
   <v>       0.50000000       0.25000000       0.40000000 </v>
   <v>      -0.25000000       0.25000000       0.40000000 </v>
   <v>       0.00000000       0.50000000       0.40000000 </v>
   <v>       0.25000000       0.50000000       0.40000000 </v>
   <v>       0.50000000       0.50000000       0.40000000 </v>
   <v>      -0.25000000       0.50000000       0.40000000 </v>
   <v>       0.00000000      -0.25000000       0.40000000 </v>
   <v>       0.25000000      -0.25000000       0.40000000 </v>
   <v>       0.50000000      -0.25000000       0.40000000 </v>
   <v>      -0.25000000      -0.25000000       0.40000000 </v>
  </varray>
  <varray name="weights" >
   <v>       0.01250000 </v>
   <v>       0.02500000 </v>
   <v>       0.01250000 </v>
   <v>       0.02500000 </v>
   <v>       0.02500000 </v>
   <v>       0.02500000 </v>
   <v>       0.02500000 </v>
   <v>       0.01250000 </v>
   <v>       0.02500000 </v>
   <v>       0.01250000 </v>
   <v>       0.02500000 </v>
   <v>       0.02500000 </v>
   <v>       0.02500000 </v>
   <v>       0.02500000 </v>
   <v>       0.02500000 </v>
   <v>       0.02500000 </v>
   <v>       0.02500000 </v>
   <v>       0.02500000 </v>
   <v>       0.02500000 </v>
   <v>       0.02500000 </v>
   <v>       0.02500000 </v>
   <v>       0.02500000 </v>
   <v>       0.02500000 </v>
   <v>       0.02500000 </v>
   <v>       0.02500000 </v>
   <v>       0.02500000 </v>
   <v>       0.02500000 </v>
   <v>       0.02500000 </v>
   <v>       0.02500000 </v>
   <v>       0.02500000 </v>
   <v>       0.02500000 </v>
   <v>       0.02500000 </v>
   <v>       0.02500000 </v>
   <v>       0.02500000 </v>
   <v>       0.02500000 </v>
   <v>       0.02500000 </v>
   <v>       0.02500000 </v>
   <v>       0.02500000 </v>
   <v>       0.02500000 </v>
   <v>       0.02500000 </v>
   <v>       0.02500000 </v>
   <v>       0.02500000 </v>
  </varray>
 </kpoints>
 <parameters>
  <separator name="general" >
   <i type="string" name="SYSTEM">CGS</i>
   <i type="logical" name="LCOMPAT"> F  </i>
  </separator>
  <separator name="electronic" >
   <i type="string" name="PREC">normal</i>
   <i name="ENMAX">    400.00000000</i>
   <i name="ENAUG">    758.23300000</i>
   <i name="EDIFF">      0.00001000</i>
   <i type="int" name="IALGO">    53</i>
   <i type="int" name="IWAVPR">    10</i>
   <i type="int" name="NBANDS">    80</i>
   <i name="NELECT">    112.00000000</i>
   <i type="int" name="TURBO">     0</i>
   <i type="int" name="IRESTART">     0</i>
   <i type="int" name="NREBOOT">     0</i>
   <i type="int" name="NMIN">     0</i>
   <i name="EREF">      0.00000000</i>
   <separator name="electronic smearing" >
    <i type="int" name="ISMEAR">     1</i>
    <i name="SIGMA">      0.10000000</i>
    <i name="KSPACING">      0.50000000</i>
    <i type="logical" name="KGAMMA"> T  </i>
   </separator>
   <separator name="electronic projectors" >
    <i type="logical" name="LREAL"> F  </i>
    <v name="ROPT">      0.00000000      0.00000000      0.00000000</v>
    <i type="int" name="LMAXPAW">  -100</i>
    <i type="int" name="LMAXMIX">     2</i>
    <i type="logical" name="NLSPLINE"> F  </i>
   </separator>
   <separator name="electronic startup" >
    <i type="int" name="ISTART">     1</i>
    <i type="int" name="ICHARG">     0</i>
    <i type="int" name="INIWAV">     1</i>
   </separator>
   <separator name="electronic spin" >
    <i type="int" name="ISPIN">     1</i>
    <i type="logical" name="LNONCOLLINEAR"> F  </i>
    <v name="MAGMOM">      1.00000000      1.00000000      1.00000000      1.00000000      1.00000000      1.00000000      1.00000000      1.00000000      1.00000000      1.00000000      1.00000000      1.00000000</v>
    <i name="NUPDOWN">     -1.00000000</i>
    <i type="logical" name="LSORBIT"> F  </i>
    <v name="SAXIS">      0.00000000      0.00000000      1.00000000</v>
    <i type="logical" name="LSPIRAL"> F  </i>
    <v name="QSPIRAL">      0.00000000      0.00000000      0.00000000</v>
    <i type="logical" name="LZEROZ"> F  </i>
   </separator>
   <separator name="electronic exchange-correlation" >
    <i type="logical" name="LASPH"> F  </i>
    <i type="logical" name="LMETAGGA"> F  </i>
   </separator>
   <separator name="electronic convergence" >
    <i type="int" name="NELM">    60</i>
    <i type="int" name="NELMDL">     0</i>
    <i type="int" name="NELMIN">     2</i>
    <i name="ENINI">    400.00000000</i>
    <separator name="electronic convergence detail" >
     <i type="logical" name="LDIAG"> T  </i>
     <i type="logical" name="LSUBROT"> T  </i>
     <i name="WEIMIN">      0.00000000</i>
     <i name="EBREAK">      0.00000003</i>
     <i name="DEPER">      0.30000000</i>
     <i type="int" name="NRMM">     4</i>
     <i name="TIME">      0.40000000</i>
    </separator>
   </separator>
   <separator name="electronic mixer" >
    <i name="AMIX">      0.40000000</i>
    <i name="BMIX">      1.00000000</i>
    <i name="AMIN">      0.10000000</i>
    <i name="AMIX_MAG">      1.60000000</i>
    <i name="BMIX_MAG">      1.00000000</i>
    <separator name="electronic mixer details" >
     <i type="int" name="IMIX">     4</i>
     <i type="int" name="MAXMIX">   -45</i>
     <i name="WC">    100.00000000</i>
     <i type="int" name="INIMIX">     1</i>
     <i type="int" name="MIXPRE">     1</i>
     <i type="int" name="MREMOVE">     5</i>
    </separator>
   </separator>
   <separator name="electronic dipolcorrection" >
    <i type="logical" name="LDIPOL"> F  </i>
    <i type="logical" name="LMONO"> F  </i>
    <i type="int" name="IDIPOL">     0</i>
    <i name="EPSILON">      1.00000000</i>
    <v name="DIPOL">   -100.00000000   -100.00000000   -100.00000000</v>
    <i name="EFIELD">      0.00000000</i>
   </separator>
  </separator>
  <separator name="grids" >
   <i type="int" name="NGX">    32</i>
   <i type="int" name="NGY">    32</i>
   <i type="int" name="NGZ">    32</i>
   <i type="int" name="NGXF">    64</i>
   <i type="int" name="NGYF">    64</i>
   <i type="int" name="NGZF">    64</i>
   <i type="logical" name="ADDGRID"> F  </i>
  </separator>
  <separator name="ionic" >
   <i type="int" name="NSW">     0</i>
   <i type="int" name="IBRION">    -1</i>
   <i type="int" name="ISIF">     0</i>
   <i name="PSTRESS">      0.00000000</i>
   <i name="EDIFFG">      0.00010000</i>
   <i type="int" name="NFREE">     0</i>
   <i name="POTIM">      0.50000000</i>
   <i name="SMASS">     -3.00000000</i>
   <i name="SCALEE">      1.00000000</i>
  </separator>
  <separator name="ionic md" >
   <i name="TEBEG">      0.00010000</i>
   <i name="TEEND">      0.00010000</i>
   <i type="int" name="NBLOCK">     1</i>
   <i type="int" name="KBLOCK">     1</i>
   <i type="int" name="NPACO">   256</i>
   <i name="APACO">     16.00000000</i>
  </separator>
  <separator name="symmetry" >
   <i type="int" name="ISYM">     3</i>
   <i name="SYMPREC">      0.00001000</i>
  </separator>
  <separator name="dos" >
   <i type="logical" name="LORBIT"> F  </i>
   <v name="RWIGS">     -1.00000000     -1.00000000     -1.00000000</v>
   <i type="int" name="NEDOS">   301</i>
   <i name="EMIN">     10.00000000</i>
   <i name="EMAX">    -10.00000000</i>
   <i name="EFERMI">      0.00000000</i>
  </separator>
  <separator name="writing" >
   <i type="int" name="NWRITE">     2</i>
   <i type="logical" name="LWAVE"> T  </i>
   <i type="logical" name="LCHARG"> T  </i>
   <i type="logical" name="LPARD"> F  </i>
   <i type="logical" name="LVTOT"> F  </i>
   <i type="logical" name="LVHAR"> F  </i>
   <i type="logical" name="LELF"> F  </i>
   <i type="logical" name="LOPTICS"> F  </i>
   <v name="STM">      0.00000000      0.00000000      0.00000000      0.00000000      0.00000000      0.00000000      0.00000000</v>
  </separator>
  <separator name="performance" >
   <i type="int" name="NPAR">    16</i>
   <i type="int" name="NSIM">     4</i>
   <i type="int" name="NBLK">    -1</i>
   <i type="logical" name="LPLANE"> T  </i>
   <i type="logical" name="LSCALAPACK"> T  </i>
   <i type="logical" name="LSCAAWARE"> F  </i>
   <i type="logical" name="LSCALU"> F  </i>
   <i type="logical" name="LASYNC"> F  </i>
   <i type="logical" name="LORBITALREAL"> F  </i>
  </separator>
  <separator name="miscellaneous" >
   <i type="int" name="IDIOT">     3</i>
   <i type="logical" name="LMUSIC"> F  </i>
   <v name="POMASS">     63.54600000     72.61000000     32.06600000</v>
   <v name="DARWINR">      0.00000000      0.00000000      0.00000000</v>
   <v name="DARWINV">      1.00000000      1.00000000      1.00000000</v>
   <i type="logical" name="LCORR"> T  </i>
  </separator>
  <i type="logical" name="GGA_COMPAT"> T  </i>
  <i type="logical" name="LBERRY"> F  </i>
  <i type="int" name="ICORELEVEL">     0</i>
  <i type="logical" name="LDAU"> F  </i>
  <i type="int" name="I_CONSTRAINED_M">     0</i>
  <separator name="electronic exchange-correlation" >
   <i type="string" name="GGA">PE</i>
   <i type="int" name="VOSKOWN">     0</i>
   <i type="logical" name="LHFCALC"> T  </i>
   <i type="string" name="PRECFOCK">fast</i>
   <i type="logical" name="LSYMGRAD"> F  </i>
   <i type="logical" name="LHFONE"> F  </i>
   <i type="logical" name="LRHFCALC"> F  </i>
   <i type="logical" name="LTHOMAS"> F  </i>
   <i type="logical" name="LMODELHF"> F  </i>
   <i name="ENCUT4O">     -1.00000000</i>
   <i type="int" name="EXXOEP">     0</i>
   <i type="int" name="FOURORBIT">     0</i>
   <i name="AEXX">      0.25000000</i>
   <i name="HFALPHA">     -1.00000000</i>
   <i name="MCALPHA">      0.00000000</i>
   <i name="ALDAX">      0.75000000</i>
   <i name="AGGAX">      0.75000000</i>
   <i name="ALDAC">      1.00000000</i>
   <i name="AGGAC">      1.00000000</i>
   <i type="int" name="NKREDX">     1</i>
   <i type="int" name="NKREDY">     1</i>
   <i type="int" name="NKREDZ">     1</i>
   <i type="logical" name="SHIFTRED"> F  </i>
   <i type="logical" name="ODDONLY"> F  </i>
   <i type="logical" name="EVENONLY"> F  </i>
   <i type="int" name="LMAXFOCK">     4</i>
   <i type="int" name="NMAXFOCKAE">     1</i>
   <i type="logical" name="LFOCKAEDFT"> F  </i>
   <i name="HFSCREEN">      0.20000000</i>
   <i name="HFSCREENC">      0.20000000</i>
   <i type="int" name="NBANDSGWLOW">     1</i>
  </separator>
  <separator name="vdW DFT" >
   <i type="logical" name="LUSE_VDW"> F  </i>
   <i name="Zab_VDW">     -0.84910000</i>
   <i name="PARAM1">      0.12340000</i>
   <i name="PARAM2">      1.00000000</i>
   <i name="PARAM3">      0.00000000</i>
  </separator>
  <separator name="model GW" >
   <i type="int" name="MODEL_GW">     0</i>
   <i name="MODEL_EPS0">     11.09505304</i>
   <i name="MODEL_ALPHA">      1.00000000</i>
  </separator>
  <separator name="linear response parameters" >
   <i type="logical" name="LEPSILON"> F  </i>
   <i type="logical" name="LRPA"> F  </i>
   <i type="logical" name="LNABLA"> F  </i>
   <i type="logical" name="LVEL"> F  </i>
   <i type="int" name="KINTER">     0</i>
   <i name="CSHIFT">      0.10000000</i>
   <i name="OMEGAMAX">     -1.00000000</i>
   <i name="DEG_THRESHOLD">      0.00200000</i>
  </separator>
  <separator name="orbital magnetization" >
   <i type="logical" name="NUCIND"> F  </i>
   <v name="MAGPOS">      0.00000000      0.00000000      0.00000000</v>
   <i type="logical" name="LNICSALL"> T  </i>
   <i type="logical" name="ORBITALMAG"> F  </i>
   <i type="logical" name="LMAGBLOCH"> F  </i>
   <i type="logical" name="LCHIMAG"> F  </i>
   <i type="logical" name="LGAUGE"> T  </i>
   <i type="int" name="MAGATOM">     0</i>
   <v name="MAGDIPOL">      0.00000000      0.00000000      0.00000000</v>
   <v name="AVECCONST">      0.00000000      0.00000000      0.00000000</v>
  </separator>
  <separator name="response functions" >
   <i type="logical" name="LADDER"> F  </i>
   <i type="logical" name="LFXC"> F  </i>
   <i type="logical" name="LHARTREE"> T  </i>
   <i type="int" name="IBSE">     0</i>
   <i type="logical" name="LTCTE"> F  </i>
   <i type="logical" name="LTETE"> F  </i>
   <i type="logical" name="LTRIPLET"> F  </i>
   <i type="logical" name="LFXCEPS"> F  </i>
   <i type="logical" name="L2ORDER"> F  </i>
   <i type="logical" name="LUSEW"> F  </i>
   <i name="ENCUTGW">     -2.00000000</i>
   <i name="ENCUTGWSOFT">     -2.00000000</i>
   <i name="ENCUTLF">     -1.00000000</i>
   <i type="int" name="LMAXMP2">    -1</i>
   <i name="SCISSOR">      0.00000000</i>
   <i type="int" name="NOMEGA">     0</i>
   <i type="int" name="NOMEGAR">     0</i>
   <i type="int" name="NBANDSGW">    -1</i>
   <i type="int" name="NBANDSO">    -1</i>
   <i type="int" name="NBANDSV">    -1</i>
   <i type="int" name="NELM">     1</i>
   <i type="int" name="DIM">     3</i>
   <i type="int" name="ANTIRES">     0</i>
   <i name="OMEGAMAX">    -30.00000000</i>
   <i name="OMEGATL">   -200.00000000</i>
   <i type="int" name="OMEGAGRID">     0</i>
   <i name="CSHIFT">     -0.10000000</i>
   <i type="logical" name="SELFENERGY"> F  </i>
   <i type="logical" name="LSPECTRAL"> F  </i>
   <i type="logical" name="ODDONLYGW"> F  </i>
   <i type="logical" name="EVENONLYGW"> F  </i>
   <i type="int" name="NKREDLFX">     1</i>
   <i type="int" name="NKREDLFY">     1</i>
   <i type="int" name="NKREDLFZ">     1</i>
   <i type="int" name="MAXMEM">  1800</i>
   <i type="int" name="TELESCOPE">     0</i>
  </separator>
 </parameters>
 <atominfo>
  <atoms>      12 </atoms>
  <types>       3 </types>
  <array name="atoms" >
   <dimension dim="1">ion</dimension>
   <field type="string">element</field>
   <field type="int">atomtype</field>
   <set>
    <rc><c>Cu</c><c>   1</c></rc>
    <rc><c>Cu</c><c>   1</c></rc>
    <rc><c>Cu</c><c>   1</c></rc>
    <rc><c>Cu</c><c>   1</c></rc>
    <rc><c>Ge</c><c>   2</c></rc>
    <rc><c>Ge</c><c>   2</c></rc>
    <rc><c>S </c><c>   3</c></rc>
    <rc><c>S </c><c>   3</c></rc>
    <rc><c>S </c><c>   3</c></rc>
    <rc><c>S </c><c>   3</c></rc>
    <rc><c>S </c><c>   3</c></rc>
    <rc><c>S </c><c>   3</c></rc>
   </set>
  </array>
  <array name="atomtypes" >
   <dimension dim="1">type</dimension>
   <field type="int">atomspertype</field>
   <field type="string">element</field>
   <field>mass</field>
   <field>valence</field>
   <field type="string">pseudopotential</field>
   <set>
    <rc><c>   4</c><c>Cu</c><c>     63.54600000</c><c>     17.00000000</c><c>  PAW_PBE Cu_pv 06Sep2000               </c></rc>
    <rc><c>   2</c><c>Ge</c><c>     72.61000000</c><c>      4.00000000</c><c>  PAW_PBE Ge 05Jan2001                  </c></rc>
    <rc><c>   6</c><c>S </c><c>     32.06600000</c><c>      6.00000000</c><c>  PAW_PBE S 17Jan2003                   </c></rc>
   </set>
  </array>
 </atominfo>
 <structure name="initialpos" >
  <crystal>
   <varray name="basis" >
    <v>       3.22479600      -5.64383000       0.03157200 </v>
    <v>       3.22479600       5.64383000       0.03157200 </v>
    <v>      -2.10194600       0.00000000       6.07553700 </v>
   </varray>
   <i name="volume">    221.90106089 </i>
   <varray name="rec_basis" >
    <v>       0.15452516      -0.08859232       0.05346088 </v>
    <v>       0.15452516       0.08859232       0.05346088 </v>
    <v>      -0.00160600       0.00000000       0.16403888 </v>
   </varray>
  </crystal>
  <varray name="positions" >
   <v>       0.61844300       0.12117100       0.11953300 </v>
   <v>       0.12117100       0.61844300       0.61953300 </v>
   <v>       0.96295700       0.79032200       0.11881300 </v>
   <v>       0.79032200       0.96295700       0.61881300 </v>
   <v>       0.43973200       0.26728100       0.59749152 </v>
   <v>       0.26728100       0.43973200       0.09904700 </v>
   <v>       0.07949800       0.91167500       0.49736300 </v>
   <v>       0.57140300       0.41236400       0.98018400 </v>
   <v>       0.73711100       0.25006200       0.49504900 </v>
   <v>       0.41236400       0.57140300       0.48018400 </v>
   <v>       0.91167500       0.07949800       0.99736300 </v>
   <v>       0.25006200       0.73711100       0.99504900 </v>
  </varray>
 </structure>
 <calculation>
  <scstep>
   <time name="total">  248.53  248.35</time>
   <energy>
    <i name="alphaZ">    339.31929130 </i>
    <i name="ewald">  -9064.58287962 </i>
    <i name="hartreedc">  -8067.44662320 </i>
    <i name="XCdc">    369.90379478 </i>
    <i name="pawpsdc">  16900.10389433 </i>
    <i name="pawaedc"> -17392.91918278 </i>
    <i name="eentropy">     -0.00147192 </i>
    <i name="bandstr">  -1657.29096261 </i>
    <i name="atom">  18320.98302006 </i>
    <i name="e_fr_energy">     75.52070362 </i>
    <i name="e_wo_entrp">     75.52217554 </i>
    <i name="e_0_energy">     75.52119426 </i>
   </energy>
  </scstep>
  <scstep>
   <time name="total">  266.56  266.37</time>
   <energy>
    <i name="e_fr_energy">     -8.38345408 </i>
    <i name="e_wo_entrp">     -8.38265517 </i>
    <i name="e_0_energy">     -8.38318778 </i>
   </energy>
  </scstep>
  <scstep>
   <time name="total">  279.25  279.07</time>
   <energy>
    <i name="e_fr_energy">    -15.21243120 </i>
    <i name="e_wo_entrp">    -15.21266084 </i>
    <i name="e_0_energy">    -15.21250775 </i>
   </energy>
  </scstep>
  <scstep>
   <time name="total">  273.50  273.27</time>
   <energy>
    <i name="e_fr_energy">    -22.69806279 </i>
    <i name="e_wo_entrp">    -22.69841681 </i>
    <i name="e_0_energy">    -22.69818079 </i>
   </energy>
  </scstep>
  <scstep>
   <time name="total">  269.75  269.54</time>
   <energy>
    <i name="e_fr_energy">    -60.80925432 </i>
    <i name="e_wo_entrp">    -60.80986949 </i>
    <i name="e_0_energy">    -60.80945937 </i>
   </energy>
  </scstep>
  <scstep>
   <time name="total">  265.52  265.31</time>
   <energy>
    <i name="e_fr_energy">    -65.94735713 </i>
    <i name="e_wo_entrp">    -65.94801454 </i>
    <i name="e_0_energy">    -65.94757627 </i>
   </energy>
  </scstep>
  <scstep>
   <time name="total">  272.05  271.88</time>
   <energy>
    <i name="e_fr_energy">    -67.48088079 </i>
    <i name="e_wo_entrp">    -67.48131624 </i>
    <i name="e_0_energy">    -67.48102594 </i>
   </energy>
  </scstep>
  <scstep>
   <time name="total">  268.35  268.14</time>
   <energy>
    <i name="e_fr_energy">    -69.08475851 </i>
    <i name="e_wo_entrp">    -69.08549021 </i>
    <i name="e_0_energy">    -69.08500241 </i>
   </energy>
  </scstep>
  <scstep>
   <time name="total">  265.23  265.03</time>
   <energy>
    <i name="e_fr_energy">    -69.39577390 </i>
    <i name="e_wo_entrp">    -69.39663851 </i>
    <i name="e_0_energy">    -69.39606211 </i>
   </energy>
  </scstep>
  <scstep>
   <time name="total">  268.36  268.16</time>
   <energy>
    <i name="e_fr_energy">    -69.49890113 </i>
    <i name="e_wo_entrp">    -69.49961407 </i>
    <i name="e_0_energy">    -69.49913878 </i>
   </energy>
  </scstep>
  <scstep>
   <time name="total">  271.98  271.76</time>
   <energy>
    <i name="e_fr_energy">    -69.56832117 </i>
    <i name="e_wo_entrp">    -69.56892355 </i>
    <i name="e_0_energy">    -69.56852196 </i>
   </energy>
  </scstep>
  <scstep>
   <time name="total">  268.54  268.32</time>
   <energy>
    <i name="e_fr_energy">    -69.58068683 </i>
    <i name="e_wo_entrp">    -69.58123844 </i>
    <i name="e_0_energy">    -69.58087070 </i>
   </energy>
  </scstep>
  <scstep>
   <time name="total">  264.15  263.96</time>
   <energy>
    <i name="e_fr_energy">    -69.59030069 </i>
    <i name="e_wo_entrp">    -69.59084060 </i>
    <i name="e_0_energy">    -69.59048066 </i>
   </energy>
  </scstep>
  <scstep>
   <time name="total">  271.13  270.94</time>
   <energy>
    <i name="e_fr_energy">    -69.59275907 </i>
    <i name="e_wo_entrp">    -69.59331677 </i>
    <i name="e_0_energy">    -69.59294497 </i>
   </energy>
  </scstep>
  <scstep>
   <time name="total">  264.13  263.93</time>
   <energy>
    <i name="e_fr_energy">    -69.59426156 </i>
    <i name="e_wo_entrp">    -69.59483192 </i>
    <i name="e_0_energy">    -69.59445168 </i>
   </energy>
  </scstep>
  <scstep>
   <time name="total">  267.73  267.64</time>
   <energy>
    <i name="e_fr_energy">    -69.59483158 </i>
    <i name="e_wo_entrp">    -69.59540261 </i>
    <i name="e_0_energy">    -69.59502192 </i>
   </energy>
  </scstep>
  <scstep>
   <time name="total">  268.90  268.71</time>
   <energy>
    <i name="e_fr_energy">    -69.59500501 </i>
    <i name="e_wo_entrp">    -69.59557311 </i>
    <i name="e_0_energy">    -69.59519437 </i>
   </energy>
  </scstep>
  <scstep>
   <time name="total">  267.83  267.64</time>
   <energy>
    <i name="e_fr_energy">    -69.59512203 </i>
    <i name="e_wo_entrp">    -69.59568724 </i>
    <i name="e_0_energy">    -69.59531044 </i>
   </energy>
  </scstep>
  <scstep>
   <time name="total">  272.52  272.31</time>
   <energy>
    <i name="e_fr_energy">    -69.59515110 </i>
    <i name="e_wo_entrp">    -69.59571494 </i>
    <i name="e_0_energy">    -69.59533905 </i>
   </energy>
  </scstep>
  <scstep>
   <time name="total">  268.45  268.26</time>
   <energy>
    <i name="e_fr_energy">    -69.59517091 </i>
    <i name="e_wo_entrp">    -69.59573513 </i>
    <i name="e_0_energy">    -69.59535898 </i>
   </energy>
  </scstep>
  <scstep>
   <time name="total">  265.59  265.39</time>
   <energy>
    <i name="alphaZ">    339.31929130 </i>
    <i name="ewald">  -9064.58287962 </i>
    <i name="hartreedc">  -8149.48448814 </i>
    <i name="XCdc">    372.06864642 </i>
    <i name="pawpsdc">  15922.02280295 </i>
    <i name="pawaedc"> -16407.21198329 </i>
    <i name="eentropy">      0.00056482 </i>
    <i name="bandstr">  -1742.77675439 </i>
    <i name="atom">  18320.98302006 </i>
    <i name="e_fr_energy">    -69.59517835 </i>
    <i name="e_wo_entrp">    -69.59574317 </i>
    <i name="e_0_energy">    -69.59536662 </i>
   </energy>
  </scstep>
  <structure>
   <crystal>
    <varray name="basis" >
     <v>       3.22479600      -5.64383000       0.03157200 </v>
     <v>       3.22479600       5.64383000       0.03157200 </v>
     <v>      -2.10194600       0.00000000       6.07553700 </v>
    </varray>
    <i name="volume">    221.90106089 </i>
    <varray name="rec_basis" >
     <v>       0.15452516      -0.08859232       0.05346088 </v>
     <v>       0.15452516       0.08859232       0.05346088 </v>
     <v>      -0.00160600       0.00000000       0.16403888 </v>
    </varray>
   </crystal>
   <varray name="positions" >
    <v>       0.61844300       0.12117100       0.11953300 </v>
    <v>       0.12117100       0.61844300       0.61953300 </v>
    <v>       0.96295700       0.79032200       0.11881300 </v>
    <v>       0.79032200       0.96295700       0.61881300 </v>
    <v>       0.43973200       0.26728100       0.59749152 </v>
    <v>       0.26728100       0.43973200       0.09904700 </v>
    <v>       0.07949800       0.91167500       0.49736300 </v>
    <v>       0.57140300       0.41236400       0.98018400 </v>
    <v>       0.73711100       0.25006200       0.49504900 </v>
    <v>       0.41236400       0.57140300       0.48018400 </v>
    <v>       0.91167500       0.07949800       0.99736300 </v>
    <v>       0.25006200       0.73711100       0.99504900 </v>
   </varray>
  </structure>
  <varray name="forces" >
   <v>       0.00014165       0.00151618      -0.00557173 </v>
   <v>      -0.00003940       0.00296526       0.00234047 </v>
   <v>      -0.00417546       0.00012986      -0.00076231 </v>
   <v>       0.00343705      -0.00204789       0.00326400 </v>
   <v>      -0.05181883       0.02570452       0.10836657 </v>
   <v>       0.01348307      -0.01995792      -0.02008706 </v>
   <v>       0.01001602       0.00098515      -0.01014815 </v>
   <v>      -0.00488830      -0.00057665      -0.04785025 </v>
   <v>       0.02293499      -0.03510863      -0.02076440 </v>
   <v>       0.01139716       0.02685855      -0.00980621 </v>
   <v>       0.00173425      -0.00062242       0.00043177 </v>
   <v>      -0.00222221       0.00015400       0.00058728 </v>
  </varray>
  <energy>
   <i name="e_fr_energy">    -69.59517835 </i>
   <i name="e_wo_entrp">    -69.59536662 </i>
   <i name="e_0_energy">      0.00056482 </i>
  </energy>
  <time name="totalsc"> 6184.02 6182.03</time>
  <eigenvalues>
   <array>
    <dimension dim="1">band</dimension>
    <dimension dim="2">kpoint</dimension>
    <dimension dim="3">spin</dimension>
    <field>eigene</field>
    <field>occ</field>
    <set>
     <set comment="spin 1">
      <set comment="kpoint 1">
       <r>  -68.6507    1.0000 </r>
       <r>  -68.6423    1.0000 </r>
       <r>  -68.6392    1.0000 </r>
       <r>  -68.6281    1.0000 </r>
       <r>  -68.6178    1.0000 </r>
       <r>  -68.6108    1.0000 </r>
       <r>  -68.6014    1.0000 </r>
       <r>  -68.5930    1.0000 </r>
       <r>  -68.5825    1.0000 </r>
       <r>  -68.5729    1.0000 </r>
       <r>  -68.5666    1.0000 </r>
       <r>  -68.5559    1.0000 </r>
       <r>  -12.7188    1.0000 </r>
       <r>  -11.1358    1.0000 </r>
       <r>  -10.9096    1.0000 </r>
       <r>  -10.6018    1.0000 </r>
       <r>  -10.2570    1.0000 </r>
       <r>  -10.2368    1.0000 </r>
       <r>   -5.9783    1.0000 </r>
       <r>   -4.9858    1.0000 </r>
       <r>   -2.7644    1.0000 </r>
       <r>   -2.2079    1.0000 </r>
       <r>   -2.0715    1.0000 </r>
       <r>   -1.9228    1.0000 </r>
       <r>   -1.5805    1.0000 </r>
       <r>   -0.9853    1.0000 </r>
       <r>   -0.9520    1.0000 </r>
       <r>   -0.6769    1.0000 </r>
       <r>   -0.3978    1.0000 </r>
       <r>   -0.2787    1.0000 </r>
       <r>   -0.2639    1.0000 </r>
       <r>   -0.2333    1.0000 </r>
       <r>   -0.1862    1.0000 </r>
       <r>   -0.1568    1.0000 </r>
       <r>   -0.0410    1.0000 </r>
       <r>    0.0317    1.0000 </r>
       <r>    1.3490    1.0000 </r>
       <r>    1.3615    1.0000 </r>
       <r>    1.4132    1.0000 </r>
       <r>    1.4559    1.0000 </r>
       <r>    1.4714    1.0000 </r>
       <r>    1.4737    1.0000 </r>
       <r>    1.5198    1.0000 </r>
       <r>    1.5320    1.0000 </r>
       <r>    1.5741    1.0000 </r>
       <r>    1.7111    1.0000 </r>
       <r>    1.8930    1.0000 </r>
       <r>    1.9269    1.0000 </r>
       <r>    2.0599    1.0000 </r>
       <r>    2.6515    1.0000 </r>
       <r>    2.7294    1.0000 </r>
       <r>    3.0893    1.0000 </r>
       <r>    3.2171    1.0000 </r>
       <r>    4.0042    1.0047 </r>
       <r>    4.0355    1.0130 </r>
       <r>    4.1709    0.8618 </r>
       <r>    5.5389   -0.0000 </r>
       <r>    6.3588   -0.0000 </r>
       <r>    7.6284    0.0000 </r>
       <r>    7.9725    0.0000 </r>
       <r>    8.6336    0.0000 </r>
       <r>    8.8047    0.0000 </r>
       <r>    9.5838    0.0000 </r>
       <r>    9.7392    0.0000 </r>
       <r>    9.8129    0.0000 </r>
       <r>   10.4121    0.0000 </r>
       <r>   10.5771    0.0000 </r>
       <r>   10.6903    0.0000 </r>
       <r>   10.7081    0.0000 </r>
       <r>   11.2796    0.0000 </r>
       <r>   11.7112    0.0000 </r>
       <r>   12.3909    0.0000 </r>
       <r>   12.4512    0.0000 </r>
       <r>   12.7263    0.0000 </r>
       <r>   13.3201    0.0000 </r>
       <r>   13.3824    0.0000 </r>
       <r>   13.8279    0.0000 </r>
       <r>   13.8877    0.0000 </r>
       <r>   14.1439    0.0000 </r>
       <r>   14.1808    0.0000 </r>
      </set>
      <set comment="kpoint 2">
       <r>  -68.6506    1.0000 </r>
       <r>  -68.6423    1.0000 </r>
       <r>  -68.6391    1.0000 </r>
       <r>  -68.6280    1.0000 </r>
       <r>  -68.6177    1.0000 </r>
       <r>  -68.6107    1.0000 </r>
       <r>  -68.6014    1.0000 </r>
       <r>  -68.5930    1.0000 </r>
       <r>  -68.5825    1.0000 </r>
       <r>  -68.5728    1.0000 </r>
       <r>  -68.5665    1.0000 </r>
       <r>  -68.5558    1.0000 </r>
       <r>  -12.5936    1.0000 </r>
       <r>  -11.1333    1.0000 </r>
       <r>  -10.9737    1.0000 </r>
       <r>  -10.6779    1.0000 </r>
       <r>  -10.3695    1.0000 </r>
       <r>  -10.2817    1.0000 </r>
       <r>   -5.9268    1.0000 </r>
       <r>   -4.7756    1.0000 </r>
       <r>   -2.6477    1.0000 </r>
       <r>   -2.2575    1.0000 </r>
       <r>   -2.0799    1.0000 </r>
       <r>   -1.6864    1.0000 </r>
       <r>   -1.3544    1.0000 </r>
       <r>   -0.9958    1.0000 </r>
       <r>   -0.7648    1.0000 </r>
       <r>   -0.6200    1.0000 </r>
       <r>   -0.5579    1.0000 </r>
       <r>   -0.4344    1.0000 </r>
       <r>   -0.3614    1.0000 </r>
       <r>   -0.2435    1.0000 </r>
       <r>   -0.1960    1.0000 </r>
       <r>   -0.1667    1.0000 </r>
       <r>   -0.0485    1.0000 </r>
       <r>    0.0418    1.0000 </r>
       <r>    1.2785    1.0000 </r>
       <r>    1.3339    1.0000 </r>
       <r>    1.3532    1.0000 </r>
       <r>    1.3932    1.0000 </r>
       <r>    1.4265    1.0000 </r>
       <r>    1.4716    1.0000 </r>
       <r>    1.4955    1.0000 </r>
       <r>    1.5323    1.0000 </r>
       <r>    1.7248    1.0000 </r>
       <r>    1.8595    1.0000 </r>
       <r>    2.0561    1.0000 </r>
       <r>    2.0935    1.0000 </r>
       <r>    2.2311    1.0000 </r>
       <r>    2.4140    1.0000 </r>
       <r>    2.5544    1.0000 </r>
       <r>    2.8250    1.0000 </r>
       <r>    2.9468    1.0000 </r>
       <r>    3.2416    1.0000 </r>
       <r>    3.6604    1.0000 </r>
       <r>    4.0385    1.0141 </r>
       <r>    6.1706   -0.0000 </r>
       <r>    6.9072   -0.0000 </r>
       <r>    8.1220    0.0000 </r>
       <r>    8.2743    0.0000 </r>
       <r>    8.5993    0.0000 </r>
       <r>    9.0179    0.0000 </r>
       <r>    9.2472    0.0000 </r>
       <r>    9.5307    0.0000 </r>
       <r>    9.8707    0.0000 </r>
       <r>   10.3751    0.0000 </r>
       <r>   10.6314    0.0000 </r>
       <r>   10.8148    0.0000 </r>
       <r>   10.9363    0.0000 </r>
       <r>   11.1904    0.0000 </r>
       <r>   11.6553    0.0000 </r>
       <r>   11.7673    0.0000 </r>
       <r>   12.1150    0.0000 </r>
       <r>   12.4434    0.0000 </r>
       <r>   12.6147    0.0000 </r>
       <r>   13.0075    0.0000 </r>
       <r>   13.5060    0.0000 </r>
       <r>   13.8760    0.0000 </r>
       <r>   14.2154    0.0000 </r>
       <r>   14.7104    0.0000 </r>
      </set>
      <set comment="kpoint 3">
       <r>  -68.6505    1.0000 </r>
       <r>  -68.6421    1.0000 </r>
       <r>  -68.6391    1.0000 </r>
       <r>  -68.6280    1.0000 </r>
       <r>  -68.6176    1.0000 </r>
       <r>  -68.6107    1.0000 </r>
       <r>  -68.6013    1.0000 </r>
       <r>  -68.5929    1.0000 </r>
       <r>  -68.5825    1.0000 </r>
       <r>  -68.5727    1.0000 </r>
       <r>  -68.5664    1.0000 </r>
       <r>  -68.5557    1.0000 </r>
       <r>  -12.4338    1.0000 </r>
       <r>  -11.2494    1.0000 </r>
       <r>  -10.9529    1.0000 </r>
       <r>  -10.7672    1.0000 </r>
       <r>  -10.4288    1.0000 </r>
       <r>  -10.3639    1.0000 </r>
       <r>   -5.8645    1.0000 </r>
       <r>   -4.5508    1.0000 </r>
       <r>   -2.4947    1.0000 </r>
       <r>   -2.2482    1.0000 </r>
       <r>   -1.9396    1.0000 </r>
       <r>   -1.4605    1.0000 </r>
       <r>   -1.2243    1.0000 </r>
       <r>   -1.1032    1.0000 </r>
       <r>   -0.9005    1.0000 </r>
       <r>   -0.8685    1.0000 </r>
       <r>   -0.5985    1.0000 </r>
       <r>   -0.5365    1.0000 </r>
       <r>   -0.2727    1.0000 </r>
       <r>   -0.2146    1.0000 </r>
       <r>   -0.2021    1.0000 </r>
       <r>   -0.1410    1.0000 </r>
       <r>   -0.0324    1.0000 </r>
       <r>    0.0844    1.0000 </r>
       <r>    1.2527    1.0000 </r>
       <r>    1.3243    1.0000 </r>
       <r>    1.3485    1.0000 </r>
       <r>    1.3977    1.0000 </r>
       <r>    1.4694    1.0000 </r>
       <r>    1.4771    1.0000 </r>
       <r>    1.4988    1.0000 </r>
       <r>    1.5554    1.0000 </r>
       <r>    1.7553    1.0000 </r>
       <r>    1.7930    1.0000 </r>
       <r>    1.9644    1.0000 </r>
       <r>    2.1474    1.0000 </r>
       <r>    2.3163    1.0000 </r>
       <r>    2.3581    1.0000 </r>
       <r>    2.5563    1.0000 </r>
       <r>    2.6695    1.0000 </r>
       <r>    2.9388    1.0000 </r>
       <r>    3.0791    1.0000 </r>
       <r>    3.2482    1.0000 </r>
       <r>    3.8604    1.0000 </r>
       <r>    6.3851   -0.0000 </r>
       <r>    7.0989    0.0000 </r>
       <r>    7.9670    0.0000 </r>
       <r>    8.2111    0.0000 </r>
       <r>    8.5195    0.0000 </r>
       <r>    8.8222    0.0000 </r>
       <r>    9.3217    0.0000 </r>
       <r>    9.8916    0.0000 </r>
       <r>   10.0092    0.0000 </r>
       <r>   10.5188    0.0000 </r>
       <r>   10.6962    0.0000 </r>
       <r>   10.7892    0.0000 </r>
       <r>   11.1547    0.0000 </r>
       <r>   11.4160    0.0000 </r>
       <r>   11.6098    0.0000 </r>
       <r>   11.7744    0.0000 </r>
       <r>   11.9393    0.0000 </r>
       <r>   12.5013    0.0000 </r>
       <r>   12.7818    0.0000 </r>
       <r>   13.0032    0.0000 </r>
       <r>   13.3951    0.0000 </r>
       <r>   13.5470    0.0000 </r>
       <r>   13.9349    0.0000 </r>
       <r>   14.2758    0.0000 </r>
      </set>
      <set comment="kpoint 4">
       <r>  -68.6506    1.0000 </r>
       <r>  -68.6423    1.0000 </r>
       <r>  -68.6391    1.0000 </r>
       <r>  -68.6280    1.0000 </r>
       <r>  -68.6177    1.0000 </r>
       <r>  -68.6107    1.0000 </r>
       <r>  -68.6014    1.0000 </r>
       <r>  -68.5930    1.0000 </r>
       <r>  -68.5824    1.0000 </r>
       <r>  -68.5728    1.0000 </r>
       <r>  -68.5665    1.0000 </r>
       <r>  -68.5558    1.0000 </r>
       <r>  -12.5933    1.0000 </r>
       <r>  -11.1311    1.0000 </r>
       <r>  -10.9812    1.0000 </r>
       <r>  -10.6707    1.0000 </r>
       <r>  -10.3738    1.0000 </r>
       <r>  -10.2795    1.0000 </r>
       <r>   -5.9264    1.0000 </r>
       <r>   -4.7760    1.0000 </r>
       <r>   -2.6476    1.0000 </r>
       <r>   -2.2464    1.0000 </r>
       <r>   -2.0948    1.0000 </r>
       <r>   -1.6884    1.0000 </r>
       <r>   -1.3451    1.0000 </r>
       <r>   -0.9964    1.0000 </r>
       <r>   -0.7681    1.0000 </r>
       <r>   -0.6221    1.0000 </r>
       <r>   -0.5490    1.0000 </r>
       <r>   -0.4420    1.0000 </r>
       <r>   -0.3598    1.0000 </r>
       <r>   -0.2437    1.0000 </r>
       <r>   -0.1931    1.0000 </r>
       <r>   -0.1710    1.0000 </r>
       <r>   -0.0462    1.0000 </r>
       <r>    0.0407    1.0000 </r>
       <r>    1.2782    1.0000 </r>
       <r>    1.3367    1.0000 </r>
       <r>    1.3547    1.0000 </r>
       <r>    1.3897    1.0000 </r>
       <r>    1.4258    1.0000 </r>
       <r>    1.4709    1.0000 </r>
       <r>    1.4998    1.0000 </r>
       <r>    1.5279    1.0000 </r>
       <r>    1.7246    1.0000 </r>
       <r>    1.8573    1.0000 </r>
       <r>    2.0575    1.0000 </r>
       <r>    2.0962    1.0000 </r>
       <r>    2.2301    1.0000 </r>
       <r>    2.4138    1.0000 </r>
       <r>    2.5553    1.0000 </r>
       <r>    2.8257    1.0000 </r>
       <r>    2.9455    1.0000 </r>
       <r>    3.2395    1.0000 </r>
       <r>    3.6609    1.0000 </r>
       <r>    4.0392    1.0143 </r>
       <r>    6.1710   -0.0000 </r>
       <r>    6.9076   -0.0000 </r>
       <r>    8.1449    0.0000 </r>
       <r>    8.2500    0.0000 </r>
       <r>    8.6021    0.0000 </r>
       <r>    9.0189    0.0000 </r>
       <r>    9.2505    0.0000 </r>
       <r>    9.5293    0.0000 </r>
       <r>    9.8654    0.0000 </r>
       <r>   10.3773    0.0000 </r>
       <r>   10.6341    0.0000 </r>
       <r>   10.8134    0.0000 </r>
       <r>   10.9361    0.0000 </r>
       <r>   11.1853    0.0000 </r>
       <r>   11.6553    0.0000 </r>
       <r>   11.7712    0.0000 </r>
       <r>   12.1158    0.0000 </r>
       <r>   12.4400    0.0000 </r>
       <r>   12.6178    0.0000 </r>
       <r>   13.0051    0.0000 </r>
       <r>   13.5164    0.0000 </r>
       <r>   13.9029    0.0000 </r>
       <r>   14.2702    0.0000 </r>
       <r>   14.8485    0.0000 </r>
      </set>
      <set comment="kpoint 5">
       <r>  -68.6506    1.0000 </r>
       <r>  -68.6423    1.0000 </r>
       <r>  -68.6390    1.0000 </r>
       <r>  -68.6279    1.0000 </r>
       <r>  -68.6178    1.0000 </r>
       <r>  -68.6108    1.0000 </r>
       <r>  -68.6013    1.0000 </r>
       <r>  -68.5929    1.0000 </r>
       <r>  -68.5826    1.0000 </r>
       <r>  -68.5729    1.0000 </r>
       <r>  -68.5666    1.0000 </r>
       <r>  -68.5559    1.0000 </r>
       <r>  -12.4372    1.0000 </r>
       <r>  -11.1926    1.0000 </r>
       <r>  -10.9418    1.0000 </r>
       <r>  -10.8765    1.0000 </r>
       <r>  -10.3933    1.0000 </r>
       <r>  -10.3555    1.0000 </r>
       <r>   -5.8692    1.0000 </r>
       <r>   -4.5246    1.0000 </r>
       <r>   -2.4187    1.0000 </r>
       <r>   -2.2448    1.0000 </r>
       <r>   -1.7935    1.0000 </r>
       <r>   -1.6807    1.0000 </r>
       <r>   -1.3526    1.0000 </r>
       <r>   -1.2983    1.0000 </r>
       <r>   -1.0786    1.0000 </r>
       <r>   -0.6825    1.0000 </r>
       <r>   -0.5259    1.0000 </r>
       <r>   -0.2973    1.0000 </r>
       <r>   -0.2820    1.0000 </r>
       <r>   -0.2272    1.0000 </r>
       <r>   -0.1891    1.0000 </r>
       <r>   -0.1290    1.0000 </r>
       <r>   -0.0932    1.0000 </r>
       <r>    0.0836    1.0000 </r>
       <r>    1.2924    1.0000 </r>
       <r>    1.3107    1.0000 </r>
       <r>    1.4140    1.0000 </r>
       <r>    1.4259    1.0000 </r>
       <r>    1.4621    1.0000 </r>
       <r>    1.4821    1.0000 </r>
       <r>    1.4941    1.0000 </r>
       <r>    1.5707    1.0000 </r>
       <r>    1.6712    1.0000 </r>
       <r>    1.8795    1.0000 </r>
       <r>    1.9401    1.0000 </r>
       <r>    2.1341    1.0000 </r>
       <r>    2.2782    1.0000 </r>
       <r>    2.3198    1.0000 </r>
       <r>    2.5600    1.0000 </r>
       <r>    2.6489    1.0000 </r>
       <r>    2.9031    1.0000 </r>
       <r>    2.9437    1.0000 </r>
       <r>    3.6969    1.0000 </r>
       <r>    3.8313    1.0000 </r>
       <r>    6.1727   -0.0000 </r>
       <r>    6.9898    0.0000 </r>
       <r>    7.9928    0.0000 </r>
       <r>    8.3368    0.0000 </r>
       <r>    8.4334    0.0000 </r>
       <r>    8.5757    0.0000 </r>
       <r>    9.1374    0.0000 </r>
       <r>    9.2445    0.0000 </r>
       <r>   10.3682    0.0000 </r>
       <r>   10.5004    0.0000 </r>
       <r>   10.9237    0.0000 </r>
       <r>   11.1898    0.0000 </r>
       <r>   11.3328    0.0000 </r>
       <r>   11.5579    0.0000 </r>
       <r>   11.8156    0.0000 </r>
       <r>   11.9622    0.0000 </r>
       <r>   12.3157    0.0000 </r>
       <r>   12.5020    0.0000 </r>
       <r>   12.7096    0.0000 </r>
       <r>   12.9162    0.0000 </r>
       <r>   13.3420    0.0000 </r>
       <r>   13.4464    0.0000 </r>
       <r>   14.2556    0.0000 </r>
       <r>   14.3669    0.0000 </r>
      </set>
      <set comment="kpoint 6">
       <r>  -68.6504    1.0000 </r>
       <r>  -68.6421    1.0000 </r>
       <r>  -68.6391    1.0000 </r>
       <r>  -68.6280    1.0000 </r>
       <r>  -68.6176    1.0000 </r>
       <r>  -68.6106    1.0000 </r>
       <r>  -68.6014    1.0000 </r>
       <r>  -68.5929    1.0000 </r>
       <r>  -68.5824    1.0000 </r>
       <r>  -68.5727    1.0000 </r>
       <r>  -68.5664    1.0000 </r>
       <r>  -68.5557    1.0000 </r>
       <r>  -12.4375    1.0000 </r>
       <r>  -11.3553    1.0000 </r>
       <r>  -10.9359    1.0000 </r>
       <r>  -10.7376    1.0000 </r>
       <r>  -10.3952    1.0000 </r>
       <r>  -10.2737    1.0000 </r>
       <r>   -5.9405    1.0000 </r>
       <r>   -4.6439    1.0000 </r>
       <r>   -2.3916    1.0000 </r>
       <r>   -2.2256    1.0000 </r>
       <r>   -2.0592    1.0000 </r>
       <r>   -1.6356    1.0000 </r>
       <r>   -1.3725    1.0000 </r>
       <r>   -1.2772    1.0000 </r>
       <r>   -1.0206    1.0000 </r>
       <r>   -0.5145    1.0000 </r>
       <r>   -0.4873    1.0000 </r>
       <r>   -0.3303    1.0000 </r>
       <r>   -0.2824    1.0000 </r>
       <r>   -0.2113    1.0000 </r>
       <r>   -0.1511    1.0000 </r>
       <r>   -0.1365    1.0000 </r>
       <r>   -0.0119    1.0000 </r>
       <r>    0.1151    1.0000 </r>
       <r>    1.2445    1.0000 </r>
       <r>    1.3161    1.0000 </r>
       <r>    1.3796    1.0000 </r>
       <r>    1.4364    1.0000 </r>
       <r>    1.4599    1.0000 </r>
       <r>    1.4914    1.0000 </r>
       <r>    1.4981    1.0000 </r>
       <r>    1.5521    1.0000 </r>
       <r>    1.7499    1.0000 </r>
       <r>    1.8276    1.0000 </r>
       <r>    1.9175    1.0000 </r>
       <r>    2.1335    1.0000 </r>
       <r>    2.2204    1.0000 </r>
       <r>    2.3844    1.0000 </r>
       <r>    2.5638    1.0000 </r>
       <r>    2.7904    1.0000 </r>
       <r>    2.9774    1.0000 </r>
       <r>    3.3112    1.0000 </r>
       <r>    3.6018    1.0000 </r>
       <r>    3.7484    1.0000 </r>
       <r>    6.0870   -0.0000 </r>
       <r>    6.9399   -0.0000 </r>
       <r>    7.6083    0.0000 </r>
       <r>    8.0638    0.0000 </r>
       <r>    8.4147    0.0000 </r>
       <r>    8.6199    0.0000 </r>
       <r>    8.9809    0.0000 </r>
       <r>    9.1510    0.0000 </r>
       <r>   10.0914    0.0000 </r>
       <r>   10.3345    0.0000 </r>
       <r>   10.7392    0.0000 </r>
       <r>   11.1117    0.0000 </r>
       <r>   11.4585    0.0000 </r>
       <r>   11.5963    0.0000 </r>
       <r>   11.8036    0.0000 </r>
       <r>   12.0840    0.0000 </r>
       <r>   12.4760    0.0000 </r>
       <r>   12.9140    0.0000 </r>
       <r>   13.0399    0.0000 </r>
       <r>   13.8376    0.0000 </r>
       <r>   14.2169    0.0000 </r>
       <r>   14.6558    0.0000 </r>
       <r>   15.4381    0.0000 </r>
       <r>   15.6389    0.0000 </r>
      </set>
      <set comment="kpoint 7">
       <r>  -68.6506    1.0000 </r>
       <r>  -68.6423    1.0000 </r>
       <r>  -68.6391    1.0000 </r>
       <r>  -68.6280    1.0000 </r>
       <r>  -68.6176    1.0000 </r>
       <r>  -68.6106    1.0000 </r>
       <r>  -68.6014    1.0000 </r>
       <r>  -68.5930    1.0000 </r>
       <r>  -68.5824    1.0000 </r>
       <r>  -68.5728    1.0000 </r>
       <r>  -68.5665    1.0000 </r>
       <r>  -68.5559    1.0000 </r>
       <r>  -12.5962    1.0000 </r>
       <r>  -11.2544    1.0000 </r>
       <r>  -10.9883    1.0000 </r>
       <r>  -10.5677    1.0000 </r>
       <r>  -10.3732    1.0000 </r>
       <r>  -10.1824    1.0000 </r>
       <r>   -6.0030    1.0000 </r>
       <r>   -4.8961    1.0000 </r>
       <r>   -2.6479    1.0000 </r>
       <r>   -2.3159    1.0000 </r>
       <r>   -1.9727    1.0000 </r>
       <r>   -1.6485    1.0000 </r>
       <r>   -1.4934    1.0000 </r>
       <r>   -1.1850    1.0000 </r>
       <r>   -0.7888    1.0000 </r>
       <r>   -0.5854    1.0000 </r>
       <r>   -0.4481    1.0000 </r>
       <r>   -0.3370    1.0000 </r>
       <r>   -0.2944    1.0000 </r>
       <r>   -0.2321    1.0000 </r>
       <r>   -0.1736    1.0000 </r>
       <r>   -0.1274    1.0000 </r>
       <r>   -0.0093    1.0000 </r>
       <r>    0.0715    1.0000 </r>
       <r>    1.2584    1.0000 </r>
       <r>    1.3203    1.0000 </r>
       <r>    1.3641    1.0000 </r>
       <r>    1.4224    1.0000 </r>
       <r>    1.4304    1.0000 </r>
       <r>    1.4754    1.0000 </r>
       <r>    1.5032    1.0000 </r>
       <r>    1.5420    1.0000 </r>
       <r>    1.7246    1.0000 </r>
       <r>    1.8124    1.0000 </r>
       <r>    1.9951    1.0000 </r>
       <r>    2.0730    1.0000 </r>
       <r>    2.4165    1.0000 </r>
       <r>    2.4610    1.0000 </r>
       <r>    2.5289    1.0000 </r>
       <r>    2.8726    1.0000 </r>
       <r>    3.1409    1.0000 </r>
       <r>    3.2287    1.0000 </r>
       <r>    3.7834    1.0000 </r>
       <r>    4.0683    1.0271 </r>
       <r>    5.9784   -0.0000 </r>
       <r>    6.6927   -0.0000 </r>
       <r>    7.5314    0.0000 </r>
       <r>    8.2153    0.0000 </r>
       <r>    8.6212    0.0000 </r>
       <r>    8.9250    0.0000 </r>
       <r>    9.3101    0.0000 </r>
       <r>    9.4332    0.0000 </r>
       <r>    9.8068    0.0000 </r>
       <r>   10.2710    0.0000 </r>
       <r>   10.5415    0.0000 </r>
       <r>   10.8257    0.0000 </r>
       <r>   10.9726    0.0000 </r>
       <r>   11.3803    0.0000 </r>
       <r>   11.4661    0.0000 </r>
       <r>   11.7313    0.0000 </r>
       <r>   12.0976    0.0000 </r>
       <r>   12.6618    0.0000 </r>
       <r>   12.9431    0.0000 </r>
       <r>   13.1008    0.0000 </r>
       <r>   13.3493    0.0000 </r>
       <r>   13.5206    0.0000 </r>
       <r>   14.4810    0.0000 </r>
       <r>   14.7549    0.0000 </r>
      </set>
      <set comment="kpoint 8">
       <r>  -68.6505    1.0000 </r>
       <r>  -68.6421    1.0000 </r>
       <r>  -68.6391    1.0000 </r>
       <r>  -68.6280    1.0000 </r>
       <r>  -68.6177    1.0000 </r>
       <r>  -68.6106    1.0000 </r>
       <r>  -68.6013    1.0000 </r>
       <r>  -68.5929    1.0000 </r>
       <r>  -68.5824    1.0000 </r>
       <r>  -68.5728    1.0000 </r>
       <r>  -68.5664    1.0000 </r>
       <r>  -68.5557    1.0000 </r>
       <r>  -12.4329    1.0000 </r>
       <r>  -11.2529    1.0000 </r>
       <r>  -10.9573    1.0000 </r>
       <r>  -10.7573    1.0000 </r>
       <r>  -10.4375    1.0000 </r>
       <r>  -10.3580    1.0000 </r>
       <r>   -5.8638    1.0000 </r>
       <r>   -4.5519    1.0000 </r>
       <r>   -2.4945    1.0000 </r>
       <r>   -2.2388    1.0000 </r>
       <r>   -1.9523    1.0000 </r>
       <r>   -1.4576    1.0000 </r>
       <r>   -1.2277    1.0000 </r>
       <r>   -1.1014    1.0000 </r>
       <r>   -0.9037    1.0000 </r>
       <r>   -0.8578    1.0000 </r>
       <r>   -0.6028    1.0000 </r>
       <r>   -0.5370    1.0000 </r>
       <r>   -0.2757    1.0000 </r>
       <r>   -0.2066    1.0000 </r>
       <r>   -0.1988    1.0000 </r>
       <r>   -0.1511    1.0000 </r>
       <r>   -0.0305    1.0000 </r>
       <r>    0.0834    1.0000 </r>
       <r>    1.2539    1.0000 </r>
       <r>    1.3292    1.0000 </r>
       <r>    1.3441    1.0000 </r>
       <r>    1.3958    1.0000 </r>
       <r>    1.4712    1.0000 </r>
       <r>    1.4798    1.0000 </r>
       <r>    1.4998    1.0000 </r>
       <r>    1.5501    1.0000 </r>
       <r>    1.7498    1.0000 </r>
       <r>    1.7896    1.0000 </r>
       <r>    1.9717    1.0000 </r>
       <r>    2.1433    1.0000 </r>
       <r>    2.3233    1.0000 </r>
       <r>    2.3655    1.0000 </r>
       <r>    2.5492    1.0000 </r>
       <r>    2.6683    1.0000 </r>
       <r>    2.9330    1.0000 </r>
       <r>    3.0795    1.0000 </r>
       <r>    3.2513    1.0000 </r>
       <r>    3.8609    1.0000 </r>
       <r>    6.3853   -0.0000 </r>
       <r>    7.0977    0.0000 </r>
       <r>    7.9823    0.0000 </r>
       <r>    8.2023    0.0000 </r>
       <r>    8.5270    0.0000 </r>
       <r>    8.8115    0.0000 </r>
       <r>    9.3284    0.0000 </r>
       <r>    9.8896    0.0000 </r>
       <r>   10.0060    0.0000 </r>
       <r>   10.5165    0.0000 </r>
       <r>   10.6970    0.0000 </r>
       <r>   10.7982    0.0000 </r>
       <r>   11.1389    0.0000 </r>
       <r>   11.4048    0.0000 </r>
       <r>   11.6125    0.0000 </r>
       <r>   11.7767    0.0000 </r>
       <r>   11.9467    0.0000 </r>
       <r>   12.5027    0.0000 </r>
       <r>   12.8379    0.0000 </r>
       <r>   13.0339    0.0000 </r>
       <r>   13.5507    0.0000 </r>
       <r>   13.6866    0.0000 </r>
       <r>   14.5512    0.0000 </r>
       <r>   15.2460    0.0000 </r>
      </set>
      <set comment="kpoint 9">
       <r>  -68.6504    1.0000 </r>
       <r>  -68.6421    1.0000 </r>
       <r>  -68.6391    1.0000 </r>
       <r>  -68.6280    1.0000 </r>
       <r>  -68.6176    1.0000 </r>
       <r>  -68.6106    1.0000 </r>
       <r>  -68.6014    1.0000 </r>
       <r>  -68.5930    1.0000 </r>
       <r>  -68.5824    1.0000 </r>
       <r>  -68.5727    1.0000 </r>
       <r>  -68.5664    1.0000 </r>
       <r>  -68.5557    1.0000 </r>
       <r>  -12.4371    1.0000 </r>
       <r>  -11.3567    1.0000 </r>
       <r>  -10.9365    1.0000 </r>
       <r>  -10.7363    1.0000 </r>
       <r>  -10.3950    1.0000 </r>
       <r>  -10.2737    1.0000 </r>
       <r>   -5.9402    1.0000 </r>
       <r>   -4.6442    1.0000 </r>
       <r>   -2.3916    1.0000 </r>
       <r>   -2.2272    1.0000 </r>
       <r>   -2.0560    1.0000 </r>
       <r>   -1.6403    1.0000 </r>
       <r>   -1.3568    1.0000 </r>
       <r>   -1.2914    1.0000 </r>
       <r>   -1.0200    1.0000 </r>
       <r>   -0.5152    1.0000 </r>
       <r>   -0.4812    1.0000 </r>
       <r>   -0.3287    1.0000 </r>
       <r>   -0.2816    1.0000 </r>
       <r>   -0.2177    1.0000 </r>
       <r>   -0.1535    1.0000 </r>
       <r>   -0.1376    1.0000 </r>
       <r>   -0.0087    1.0000 </r>
       <r>    0.1146    1.0000 </r>
       <r>    1.2463    1.0000 </r>
       <r>    1.3134    1.0000 </r>
       <r>    1.3838    1.0000 </r>
       <r>    1.4364    1.0000 </r>
       <r>    1.4616    1.0000 </r>
       <r>    1.4897    1.0000 </r>
       <r>    1.4965    1.0000 </r>
       <r>    1.5475    1.0000 </r>
       <r>    1.7455    1.0000 </r>
       <r>    1.8284    1.0000 </r>
       <r>    1.9242    1.0000 </r>
       <r>    2.1320    1.0000 </r>
       <r>    2.2231    1.0000 </r>
       <r>    2.3873    1.0000 </r>
       <r>    2.5583    1.0000 </r>
       <r>    2.7895    1.0000 </r>
       <r>    2.9783    1.0000 </r>
       <r>    3.3113    1.0000 </r>
       <r>    3.6020    1.0000 </r>
       <r>    3.7486    1.0000 </r>
       <r>    6.0871   -0.0000 </r>
       <r>    6.9407   -0.0000 </r>
       <r>    7.6136    0.0000 </r>
       <r>    8.0547    0.0000 </r>
       <r>    8.4193    0.0000 </r>
       <r>    8.6216    0.0000 </r>
       <r>    8.9766    0.0000 </r>
       <r>    9.1535    0.0000 </r>
       <r>   10.0905    0.0000 </r>
       <r>   10.3428    0.0000 </r>
       <r>   10.7320    0.0000 </r>
       <r>   11.1145    0.0000 </r>
       <r>   11.4571    0.0000 </r>
       <r>   11.5757    0.0000 </r>
       <r>   11.7784    0.0000 </r>
       <r>   12.0351    0.0000 </r>
       <r>   12.5269    0.0000 </r>
       <r>   12.6821    0.0000 </r>
       <r>   12.9162    0.0000 </r>
       <r>   13.2109    0.0000 </r>
       <r>   14.2303    0.0000 </r>
       <r>   14.7775    0.0000 </r>
       <r>   15.2466    0.0000 </r>
       <r>   15.9044    0.0000 </r>
      </set>
      <set comment="kpoint 10">
       <r>  -68.6503    1.0000 </r>
       <r>  -68.6419    1.0000 </r>
       <r>  -68.6390    1.0000 </r>
       <r>  -68.6278    1.0000 </r>
       <r>  -68.6175    1.0000 </r>
       <r>  -68.6105    1.0000 </r>
       <r>  -68.6012    1.0000 </r>
       <r>  -68.5928    1.0000 </r>
       <r>  -68.5823    1.0000 </r>
       <r>  -68.5726    1.0000 </r>
       <r>  -68.5662    1.0000 </r>
       <r>  -68.5555    1.0000 </r>
       <r>  -12.4288    1.0000 </r>
       <r>  -11.5036    1.0000 </r>
       <r>  -10.9113    1.0000 </r>
       <r>  -10.6164    1.0000 </r>
       <r>  -10.4050    1.0000 </r>
       <r>  -10.2011    1.0000 </r>
       <r>   -6.0184    1.0000 </r>
       <r>   -4.8111    1.0000 </r>
       <r>   -2.3100    1.0000 </r>
       <r>   -2.2673    1.0000 </r>
       <r>   -2.0891    1.0000 </r>
       <r>   -1.7075    1.0000 </r>
       <r>   -1.2535    1.0000 </r>
       <r>   -1.1059    1.0000 </r>
       <r>   -0.8417    1.0000 </r>
       <r>   -0.7863    1.0000 </r>
       <r>   -0.7273    1.0000 </r>
       <r>   -0.2441    1.0000 </r>
       <r>   -0.2003    1.0000 </r>
       <r>   -0.1830    1.0000 </r>
       <r>   -0.1503    1.0000 </r>
       <r>   -0.0365    1.0000 </r>
       <r>   -0.0027    1.0000 </r>
       <r>    0.1850    1.0000 </r>
       <r>    1.2658    1.0000 </r>
       <r>    1.3170    1.0000 </r>
       <r>    1.3739    1.0000 </r>
       <r>    1.4126    1.0000 </r>
       <r>    1.4333    1.0000 </r>
       <r>    1.4914    1.0000 </r>
       <r>    1.5070    1.0000 </r>
       <r>    1.5490    1.0000 </r>
       <r>    1.7864    1.0000 </r>
       <r>    1.8486    1.0000 </r>
       <r>    1.9945    1.0000 </r>
       <r>    2.1495    1.0000 </r>
       <r>    2.2520    1.0000 </r>
       <r>    2.3366    1.0000 </r>
       <r>    2.5598    1.0000 </r>
       <r>    2.7630    1.0000 </r>
       <r>    2.7770    1.0000 </r>
       <r>    3.3678    1.0000 </r>
       <r>    3.7654    1.0000 </r>
       <r>    4.0049    1.0049 </r>
       <r>    5.8529   -0.0000 </r>
       <r>    6.7707   -0.0000 </r>
       <r>    7.0804    0.0000 </r>
       <r>    8.4136    0.0000 </r>
       <r>    8.5481    0.0000 </r>
       <r>    8.7686    0.0000 </r>
       <r>    9.1500    0.0000 </r>
       <r>    9.2508    0.0000 </r>
       <r>    9.9579    0.0000 </r>
       <r>   10.2861    0.0000 </r>
       <r>   10.7255    0.0000 </r>
       <r>   10.8284    0.0000 </r>
       <r>   10.8776    0.0000 </r>
       <r>   11.2752    0.0000 </r>
       <r>   11.7566    0.0000 </r>
       <r>   11.9144    0.0000 </r>
       <r>   11.9721    0.0000 </r>
       <r>   12.3633    0.0000 </r>
       <r>   12.5389    0.0000 </r>
       <r>   13.4572    0.0000 </r>
       <r>   14.2771    0.0000 </r>
       <r>   14.6717    0.0000 </r>
       <r>   16.7462    0.0000 </r>
       <r>   16.7583    0.0000 </r>
      </set>
      <set comment="kpoint 11">
       <r>  -68.6507    1.0000 </r>
       <r>  -68.6423    1.0000 </r>
       <r>  -68.6391    1.0000 </r>
       <r>  -68.6280    1.0000 </r>
       <r>  -68.6177    1.0000 </r>
       <r>  -68.6107    1.0000 </r>
       <r>  -68.6014    1.0000 </r>
       <r>  -68.5930    1.0000 </r>
       <r>  -68.5825    1.0000 </r>
       <r>  -68.5728    1.0000 </r>
       <r>  -68.5666    1.0000 </r>
       <r>  -68.5559    1.0000 </r>
       <r>  -12.6157    1.0000 </r>
       <r>  -11.4260    1.0000 </r>
       <r>  -10.7766    1.0000 </r>
       <r>  -10.6066    1.0000 </r>
       <r>  -10.2561    1.0000 </r>
       <r>  -10.2385    1.0000 </r>
       <r>   -5.8261    1.0000 </r>
       <r>   -5.0490    1.0000 </r>
       <r>   -2.6024    1.0000 </r>
       <r>   -2.3695    1.0000 </r>
       <r>   -1.9630    1.0000 </r>
       <r>   -1.7782    1.0000 </r>
       <r>   -1.4490    1.0000 </r>
       <r>   -1.1262    1.0000 </r>
       <r>   -1.0627    1.0000 </r>
       <r>   -0.7670    1.0000 </r>
       <r>   -0.4663    1.0000 </r>
       <r>   -0.2918    1.0000 </r>
       <r>   -0.2423    1.0000 </r>
       <r>   -0.2333    1.0000 </r>
       <r>   -0.1923    1.0000 </r>
       <r>   -0.1465    1.0000 </r>
       <r>   -0.0184    1.0000 </r>
       <r>    0.0244    1.0000 </r>
       <r>    1.3323    1.0000 </r>
       <r>    1.3804    1.0000 </r>
       <r>    1.4153    1.0000 </r>
       <r>    1.4386    1.0000 </r>
       <r>    1.4620    1.0000 </r>
       <r>    1.4684    1.0000 </r>
       <r>    1.5136    1.0000 </r>
       <r>    1.5456    1.0000 </r>
       <r>    1.6319    1.0000 </r>
       <r>    1.7583    1.0000 </r>
       <r>    1.7866    1.0000 </r>
       <r>    1.9507    1.0000 </r>
       <r>    2.0892    1.0000 </r>
       <r>    2.6602    1.0000 </r>
       <r>    2.7192    1.0000 </r>
       <r>    3.1941    1.0000 </r>
       <r>    3.2521    1.0000 </r>
       <r>    3.5177    1.0000 </r>
       <r>    3.8932    1.0000 </r>
       <r>    3.9749    1.0015 </r>
       <r>    6.0469   -0.0000 </r>
       <r>    6.4170   -0.0000 </r>
       <r>    7.8104    0.0000 </r>
       <r>    7.9079    0.0000 </r>
       <r>    8.3799    0.0000 </r>
       <r>    8.8310    0.0000 </r>
       <r>    9.7796    0.0000 </r>
       <r>    9.7946    0.0000 </r>
       <r>   10.0641    0.0000 </r>
       <r>   10.5774    0.0000 </r>
       <r>   10.6400    0.0000 </r>
       <r>   10.8105    0.0000 </r>
       <r>   10.8530    0.0000 </r>
       <r>   11.4898    0.0000 </r>
       <r>   11.5571    0.0000 </r>
       <r>   12.0273    0.0000 </r>
       <r>   12.5791    0.0000 </r>
       <r>   12.7752    0.0000 </r>
       <r>   12.9096    0.0000 </r>
       <r>   13.2073    0.0000 </r>
       <r>   13.5330    0.0000 </r>
       <r>   13.8218    0.0000 </r>
       <r>   14.1961    0.0000 </r>
       <r>   14.7054    0.0000 </r>
      </set>
      <set comment="kpoint 12">
       <r>  -68.6506    1.0000 </r>
       <r>  -68.6422    1.0000 </r>
       <r>  -68.6391    1.0000 </r>
       <r>  -68.6280    1.0000 </r>
       <r>  -68.6177    1.0000 </r>
       <r>  -68.6107    1.0000 </r>
       <r>  -68.6014    1.0000 </r>
       <r>  -68.5930    1.0000 </r>
       <r>  -68.5825    1.0000 </r>
       <r>  -68.5729    1.0000 </r>
       <r>  -68.5665    1.0000 </r>
       <r>  -68.5558    1.0000 </r>
       <r>  -12.4563    1.0000 </r>
       <r>  -11.4672    1.0000 </r>
       <r>  -10.8565    1.0000 </r>
       <r>  -10.6959    1.0000 </r>
       <r>  -10.3750    1.0000 </r>
       <r>  -10.2494    1.0000 </r>
       <r>   -5.7622    1.0000 </r>
       <r>   -4.8062    1.0000 </r>
       <r>   -2.4438    1.0000 </r>
       <r>   -2.2321    1.0000 </r>
       <r>   -1.8518    1.0000 </r>
       <r>   -1.7114    1.0000 </r>
       <r>   -1.4404    1.0000 </r>
       <r>   -1.1847    1.0000 </r>
       <r>   -0.8844    1.0000 </r>
       <r>   -0.7476    1.0000 </r>
       <r>   -0.6026    1.0000 </r>
       <r>   -0.5272    1.0000 </r>
       <r>   -0.3108    1.0000 </r>
       <r>   -0.2417    1.0000 </r>
       <r>   -0.1762    1.0000 </r>
       <r>   -0.1233    1.0000 </r>
       <r>   -0.0551    1.0000 </r>
       <r>    0.0634    1.0000 </r>
       <r>    1.3005    1.0000 </r>
       <r>    1.3366    1.0000 </r>
       <r>    1.3689    1.0000 </r>
       <r>    1.4280    1.0000 </r>
       <r>    1.4463    1.0000 </r>
       <r>    1.4772    1.0000 </r>
       <r>    1.5228    1.0000 </r>
       <r>    1.5456    1.0000 </r>
       <r>    1.6448    1.0000 </r>
       <r>    1.8743    1.0000 </r>
       <r>    1.9736    1.0000 </r>
       <r>    2.0499    1.0000 </r>
       <r>    2.1946    1.0000 </r>
       <r>    2.4746    1.0000 </r>
       <r>    2.5932    1.0000 </r>
       <r>    2.8375    1.0000 </r>
       <r>    2.9650    1.0000 </r>
       <r>    3.1296    1.0000 </r>
       <r>    3.5657    1.0000 </r>
       <r>    3.7222    1.0000 </r>
       <r>    6.4429   -0.0000 </r>
       <r>    6.9595    0.0000 </r>
       <r>    8.1567    0.0000 </r>
       <r>    8.2544    0.0000 </r>
       <r>    8.8330    0.0000 </r>
       <r>    9.1356    0.0000 </r>
       <r>    9.4603    0.0000 </r>
       <r>    9.7977    0.0000 </r>
       <r>   10.0872    0.0000 </r>
       <r>   10.3037    0.0000 </r>
       <r>   10.7413    0.0000 </r>
       <r>   11.0731    0.0000 </r>
       <r>   11.2903    0.0000 </r>
       <r>   11.4276    0.0000 </r>
       <r>   11.6287    0.0000 </r>
       <r>   11.7233    0.0000 </r>
       <r>   12.0877    0.0000 </r>
       <r>   12.2686    0.0000 </r>
       <r>   12.5427    0.0000 </r>
       <r>   12.6563    0.0000 </r>
       <r>   12.9545    0.0000 </r>
       <r>   13.0604    0.0000 </r>
       <r>   13.6409    0.0000 </r>
       <r>   14.6936    0.0000 </r>
      </set>
      <set comment="kpoint 13">
       <r>  -68.6504    1.0000 </r>
       <r>  -68.6421    1.0000 </r>
       <r>  -68.6390    1.0000 </r>
       <r>  -68.6279    1.0000 </r>
       <r>  -68.6176    1.0000 </r>
       <r>  -68.6106    1.0000 </r>
       <r>  -68.6013    1.0000 </r>
       <r>  -68.5929    1.0000 </r>
       <r>  -68.5824    1.0000 </r>
       <r>  -68.5727    1.0000 </r>
       <r>  -68.5665    1.0000 </r>
       <r>  -68.5558    1.0000 </r>
       <r>  -12.3540    1.0000 </r>
       <r>  -11.4095    1.0000 </r>
       <r>  -10.9535    1.0000 </r>
       <r>  -10.6889    1.0000 </r>
       <r>  -10.4796    1.0000 </r>
       <r>  -10.3380    1.0000 </r>
       <r>   -5.7464    1.0000 </r>
       <r>   -4.7232    1.0000 </r>
       <r>   -2.5233    1.0000 </r>
       <r>   -2.1878    1.0000 </r>
       <r>   -1.9456    1.0000 </r>
       <r>   -1.5350    1.0000 </r>
       <r>   -1.2988    1.0000 </r>
       <r>   -1.0996    1.0000 </r>
       <r>   -0.8761    1.0000 </r>
       <r>   -0.7509    1.0000 </r>
       <r>   -0.5506    1.0000 </r>
       <r>   -0.4439    1.0000 </r>
       <r>   -0.2936    1.0000 </r>
       <r>   -0.1806    1.0000 </r>
       <r>   -0.1479    1.0000 </r>
       <r>   -0.1044    1.0000 </r>
       <r>   -0.0478    1.0000 </r>
       <r>    0.0262    1.0000 </r>
       <r>    1.2699    1.0000 </r>
       <r>    1.2974    1.0000 </r>
       <r>    1.3519    1.0000 </r>
       <r>    1.4282    1.0000 </r>
       <r>    1.4532    1.0000 </r>
       <r>    1.4783    1.0000 </r>
       <r>    1.5002    1.0000 </r>
       <r>    1.5889    1.0000 </r>
       <r>    1.7195    1.0000 </r>
       <r>    1.9336    1.0000 </r>
       <r>    2.0748    1.0000 </r>
       <r>    2.1465    1.0000 </r>
       <r>    2.2643    1.0000 </r>
       <r>    2.4000    1.0000 </r>
       <r>    2.5661    1.0000 </r>
       <r>    2.5975    1.0000 </r>
       <r>    2.9022    1.0000 </r>
       <r>    3.0069    1.0000 </r>
       <r>    3.3571    1.0000 </r>
       <r>    3.8985    1.0000 </r>
       <r>    6.3649   -0.0000 </r>
       <r>    6.9015   -0.0000 </r>
       <r>    7.5727    0.0000 </r>
       <r>    8.0773    0.0000 </r>
       <r>    8.5528    0.0000 </r>
       <r>    8.7987    0.0000 </r>
       <r>    9.2775    0.0000 </r>
       <r>    9.6341    0.0000 </r>
       <r>    9.9296    0.0000 </r>
       <r>   10.2739    0.0000 </r>
       <r>   10.6583    0.0000 </r>
       <r>   10.9293    0.0000 </r>
       <r>   10.9699    0.0000 </r>
       <r>   11.2853    0.0000 </r>
       <r>   11.5259    0.0000 </r>
       <r>   11.7840    0.0000 </r>
       <r>   12.2472    0.0000 </r>
       <r>   12.5385    0.0000 </r>
       <r>   13.0527    0.0000 </r>
       <r>   13.5140    0.0000 </r>
       <r>   14.3038    0.0000 </r>
       <r>   14.5730    0.0000 </r>
       <r>   15.1280    0.0000 </r>
       <r>   16.2740    0.0000 </r>
      </set>
      <set comment="kpoint 14">
       <r>  -68.6507    1.0000 </r>
       <r>  -68.6423    1.0000 </r>
       <r>  -68.6391    1.0000 </r>
       <r>  -68.6280    1.0000 </r>
       <r>  -68.6177    1.0000 </r>
       <r>  -68.6107    1.0000 </r>
       <r>  -68.6014    1.0000 </r>
       <r>  -68.5930    1.0000 </r>
       <r>  -68.5825    1.0000 </r>
       <r>  -68.5729    1.0000 </r>
       <r>  -68.5666    1.0000 </r>
       <r>  -68.5559    1.0000 </r>
       <r>  -12.5394    1.0000 </r>
       <r>  -11.3344    1.0000 </r>
       <r>  -10.8753    1.0000 </r>
       <r>  -10.6050    1.0000 </r>
       <r>  -10.4039    1.0000 </r>
       <r>  -10.2852    1.0000 </r>
       <r>   -5.8187    1.0000 </r>
       <r>   -4.9759    1.0000 </r>
       <r>   -2.6674    1.0000 </r>
       <r>   -2.4521    1.0000 </r>
       <r>   -2.0384    1.0000 </r>
       <r>   -1.5769    1.0000 </r>
       <r>   -1.1779    1.0000 </r>
       <r>   -0.9801    1.0000 </r>
       <r>   -0.7901    1.0000 </r>
       <r>   -0.6554    1.0000 </r>
       <r>   -0.5147    1.0000 </r>
       <r>   -0.3952    1.0000 </r>
       <r>   -0.2649    1.0000 </r>
       <r>   -0.2560    1.0000 </r>
       <r>   -0.1902    1.0000 </r>
       <r>   -0.1456    1.0000 </r>
       <r>   -0.0479    1.0000 </r>
       <r>    0.0153    1.0000 </r>
       <r>    1.2881    1.0000 </r>
       <r>    1.3119    1.0000 </r>
       <r>    1.3856    1.0000 </r>
       <r>    1.4098    1.0000 </r>
       <r>    1.4337    1.0000 </r>
       <r>    1.4564    1.0000 </r>
       <r>    1.4907    1.0000 </r>
       <r>    1.5641    1.0000 </r>
       <r>    1.6872    1.0000 </r>
       <r>    1.9146    1.0000 </r>
       <r>    1.9855    1.0000 </r>
       <r>    2.1452    1.0000 </r>
       <r>    2.3351    1.0000 </r>
       <r>    2.5657    1.0000 </r>
       <r>    2.6150    1.0000 </r>
       <r>    2.8276    1.0000 </r>
       <r>    2.9737    1.0000 </r>
       <r>    3.2486    1.0000 </r>
       <r>    3.6800    1.0000 </r>
       <r>    3.9427    1.0003 </r>
       <r>    6.1787   -0.0000 </r>
       <r>    6.6416   -0.0000 </r>
       <r>    7.7545    0.0000 </r>
       <r>    7.9800    0.0000 </r>
       <r>    8.2188    0.0000 </r>
       <r>    8.5723    0.0000 </r>
       <r>    9.3798    0.0000 </r>
       <r>    9.5805    0.0000 </r>
       <r>    9.9025    0.0000 </r>
       <r>   10.2501    0.0000 </r>
       <r>   10.5401    0.0000 </r>
       <r>   10.7867    0.0000 </r>
       <r>   10.8421    0.0000 </r>
       <r>   11.0688    0.0000 </r>
       <r>   11.5592    0.0000 </r>
       <r>   12.0208    0.0000 </r>
       <r>   12.5337    0.0000 </r>
       <r>   12.7525    0.0000 </r>
       <r>   12.9477    0.0000 </r>
       <r>   13.3102    0.0000 </r>
       <r>   13.4095    0.0000 </r>
       <r>   13.7445    0.0000 </r>
       <r>   13.8461    0.0000 </r>
       <r>   14.7261    0.0000 </r>
      </set>
      <set comment="kpoint 15">
       <r>  -68.6506    1.0000 </r>
       <r>  -68.6422    1.0000 </r>
       <r>  -68.6391    1.0000 </r>
       <r>  -68.6280    1.0000 </r>
       <r>  -68.6177    1.0000 </r>
       <r>  -68.6107    1.0000 </r>
       <r>  -68.6014    1.0000 </r>
       <r>  -68.5930    1.0000 </r>
       <r>  -68.5825    1.0000 </r>
       <r>  -68.5729    1.0000 </r>
       <r>  -68.5665    1.0000 </r>
       <r>  -68.5558    1.0000 </r>
       <r>  -12.4561    1.0000 </r>
       <r>  -11.4658    1.0000 </r>
       <r>  -10.8715    1.0000 </r>
       <r>  -10.6795    1.0000 </r>
       <r>  -10.3785    1.0000 </r>
       <r>  -10.2491    1.0000 </r>
       <r>   -5.7610    1.0000 </r>
       <r>   -4.8076    1.0000 </r>
       <r>   -2.4450    1.0000 </r>
       <r>   -2.2299    1.0000 </r>
       <r>   -1.8543    1.0000 </r>
       <r>   -1.7125    1.0000 </r>
       <r>   -1.4324    1.0000 </r>
       <r>   -1.1875    1.0000 </r>
       <r>   -0.8897    1.0000 </r>
       <r>   -0.7430    1.0000 </r>
       <r>   -0.6095    1.0000 </r>
       <r>   -0.5176    1.0000 </r>
       <r>   -0.3137    1.0000 </r>
       <r>   -0.2483    1.0000 </r>
       <r>   -0.1728    1.0000 </r>
       <r>   -0.1229    1.0000 </r>
       <r>   -0.0525    1.0000 </r>
       <r>    0.0618    1.0000 </r>
       <r>    1.3016    1.0000 </r>
       <r>    1.3339    1.0000 </r>
       <r>    1.3686    1.0000 </r>
       <r>    1.4338    1.0000 </r>
       <r>    1.4449    1.0000 </r>
       <r>    1.4799    1.0000 </r>
       <r>    1.5187    1.0000 </r>
       <r>    1.5476    1.0000 </r>
       <r>    1.6414    1.0000 </r>
       <r>    1.8670    1.0000 </r>
       <r>    1.9834    1.0000 </r>
       <r>    2.0458    1.0000 </r>
       <r>    2.1945    1.0000 </r>
       <r>    2.4755    1.0000 </r>
       <r>    2.5948    1.0000 </r>
       <r>    2.8374    1.0000 </r>
       <r>    2.9610    1.0000 </r>
       <r>    3.1322    1.0000 </r>
       <r>    3.5647    1.0000 </r>
       <r>    3.7240    1.0000 </r>
       <r>    6.4447   -0.0000 </r>
       <r>    6.9587    0.0000 </r>
       <r>    8.1834    0.0000 </r>
       <r>    8.2313    0.0000 </r>
       <r>    8.8292    0.0000 </r>
       <r>    9.1313    0.0000 </r>
       <r>    9.4695    0.0000 </r>
       <r>    9.7931    0.0000 </r>
       <r>   10.0851    0.0000 </r>
       <r>   10.3015    0.0000 </r>
       <r>   10.7362    0.0000 </r>
       <r>   11.0841    0.0000 </r>
       <r>   11.2880    0.0000 </r>
       <r>   11.4239    0.0000 </r>
       <r>   11.6324    0.0000 </r>
       <r>   11.7279    0.0000 </r>
       <r>   12.0872    0.0000 </r>
       <r>   12.2632    0.0000 </r>
       <r>   12.5382    0.0000 </r>
       <r>   12.6582    0.0000 </r>
       <r>   12.9544    0.0000 </r>
       <r>   13.0588    0.0000 </r>
       <r>   13.6600    0.0000 </r>
       <r>   14.7041    0.0000 </r>
      </set>
      <set comment="kpoint 16">
       <r>  -68.6505    1.0000 </r>
       <r>  -68.6422    1.0000 </r>
       <r>  -68.6390    1.0000 </r>
       <r>  -68.6279    1.0000 </r>
       <r>  -68.6176    1.0000 </r>
       <r>  -68.6106    1.0000 </r>
       <r>  -68.6012    1.0000 </r>
       <r>  -68.5928    1.0000 </r>
       <r>  -68.5824    1.0000 </r>
       <r>  -68.5727    1.0000 </r>
       <r>  -68.5664    1.0000 </r>
       <r>  -68.5557    1.0000 </r>
       <r>  -12.3236    1.0000 </r>
       <r>  -11.4742    1.0000 </r>
       <r>  -10.8651    1.0000 </r>
       <r>  -10.8573    1.0000 </r>
       <r>  -10.4073    1.0000 </r>
       <r>  -10.2922    1.0000 </r>
       <r>   -5.7419    1.0000 </r>
       <r>   -4.6933    1.0000 </r>
       <r>   -2.2406    1.0000 </r>
       <r>   -2.1361    1.0000 </r>
       <r>   -1.9291    1.0000 </r>
       <r>   -1.8512    1.0000 </r>
       <r>   -1.4521    1.0000 </r>
       <r>   -1.3960    1.0000 </r>
       <r>   -1.0407    1.0000 </r>
       <r>   -0.5180    1.0000 </r>
       <r>   -0.4619    1.0000 </r>
       <r>   -0.3477    1.0000 </r>
       <r>   -0.2514    1.0000 </r>
       <r>   -0.2198    1.0000 </r>
       <r>   -0.1620    1.0000 </r>
       <r>   -0.1141    1.0000 </r>
       <r>   -0.0908    1.0000 </r>
       <r>    0.0826    1.0000 </r>
       <r>    1.2607    1.0000 </r>
       <r>    1.3466    1.0000 </r>
       <r>    1.3966    1.0000 </r>
       <r>    1.4339    1.0000 </r>
       <r>    1.4528    1.0000 </r>
       <r>    1.5096    1.0000 </r>
       <r>    1.5342    1.0000 </r>
       <r>    1.5437    1.0000 </r>
       <r>    1.7524    1.0000 </r>
       <r>    1.8170    1.0000 </r>
       <r>    2.0404    1.0000 </r>
       <r>    2.1347    1.0000 </r>
       <r>    2.2849    1.0000 </r>
       <r>    2.3100    1.0000 </r>
       <r>    2.5206    1.0000 </r>
       <r>    2.7690    1.0000 </r>
       <r>    2.8958    1.0000 </r>
       <r>    3.2612    1.0000 </r>
       <r>    3.4946    1.0000 </r>
       <r>    3.7994    1.0000 </r>
       <r>    6.1856   -0.0000 </r>
       <r>    6.8428   -0.0000 </r>
       <r>    7.8286    0.0000 </r>
       <r>    8.0431    0.0000 </r>
       <r>    8.1910    0.0000 </r>
       <r>    8.7237    0.0000 </r>
       <r>    9.1517    0.0000 </r>
       <r>    9.3018    0.0000 </r>
       <r>   10.2248    0.0000 </r>
       <r>   10.4462    0.0000 </r>
       <r>   10.5953    0.0000 </r>
       <r>   11.0074    0.0000 </r>
       <r>   11.2416    0.0000 </r>
       <r>   11.4873    0.0000 </r>
       <r>   11.8163    0.0000 </r>
       <r>   12.1717    0.0000 </r>
       <r>   12.2088    0.0000 </r>
       <r>   12.5747    0.0000 </r>
       <r>   12.6910    0.0000 </r>
       <r>   13.1118    0.0000 </r>
       <r>   13.4167    0.0000 </r>
       <r>   13.8789    0.0000 </r>
       <r>   14.0052    0.0000 </r>
       <r>   14.5225    0.0000 </r>
      </set>
      <set comment="kpoint 17">
       <r>  -68.6504    1.0000 </r>
       <r>  -68.6420    1.0000 </r>
       <r>  -68.6391    1.0000 </r>
       <r>  -68.6279    1.0000 </r>
       <r>  -68.6176    1.0000 </r>
       <r>  -68.6106    1.0000 </r>
       <r>  -68.6013    1.0000 </r>
       <r>  -68.5929    1.0000 </r>
       <r>  -68.5824    1.0000 </r>
       <r>  -68.5728    1.0000 </r>
       <r>  -68.5664    1.0000 </r>
       <r>  -68.5557    1.0000 </r>
       <r>  -12.3708    1.0000 </r>
       <r>  -11.4705    1.0000 </r>
       <r>  -10.9404    1.0000 </r>
       <r>  -10.6517    1.0000 </r>
       <r>  -10.4255    1.0000 </r>
       <r>  -10.3062    1.0000 </r>
       <r>   -5.7937    1.0000 </r>
       <r>   -4.8370    1.0000 </r>
       <r>   -2.5267    1.0000 </r>
       <r>   -2.2438    1.0000 </r>
       <r>   -1.8738    1.0000 </r>
       <r>   -1.6399    1.0000 </r>
       <r>   -1.5079    1.0000 </r>
       <r>   -1.3088    1.0000 </r>
       <r>   -0.9017    1.0000 </r>
       <r>   -0.5283    1.0000 </r>
       <r>   -0.3844    1.0000 </r>
       <r>   -0.3523    1.0000 </r>
       <r>   -0.2239    1.0000 </r>
       <r>   -0.1786    1.0000 </r>
       <r>   -0.1578    1.0000 </r>
       <r>   -0.0762    1.0000 </r>
       <r>   -0.0281    1.0000 </r>
       <r>    0.0810    1.0000 </r>
       <r>    1.1893    1.0000 </r>
       <r>    1.3625    1.0000 </r>
       <r>    1.3958    1.0000 </r>
       <r>    1.4419    1.0000 </r>
       <r>    1.4630    1.0000 </r>
       <r>    1.5077    1.0000 </r>
       <r>    1.5180    1.0000 </r>
       <r>    1.5846    1.0000 </r>
       <r>    1.7400    1.0000 </r>
       <r>    1.8161    1.0000 </r>
       <r>    2.0358    1.0000 </r>
       <r>    2.2361    1.0000 </r>
       <r>    2.2658    1.0000 </r>
       <r>    2.3629    1.0000 </r>
       <r>    2.4884    1.0000 </r>
       <r>    2.6701    1.0000 </r>
       <r>    3.0523    1.0000 </r>
       <r>    3.4113    1.0000 </r>
       <r>    3.7271    1.0000 </r>
       <r>    3.8629    1.0000 </r>
       <r>    5.9323   -0.0000 </r>
       <r>    6.6169   -0.0000 </r>
       <r>    7.3498    0.0000 </r>
       <r>    7.9440    0.0000 </r>
       <r>    8.0708    0.0000 </r>
       <r>    8.7277    0.0000 </r>
       <r>    8.8999    0.0000 </r>
       <r>    9.1350    0.0000 </r>
       <r>    9.8468    0.0000 </r>
       <r>   10.3324    0.0000 </r>
       <r>   10.5595    0.0000 </r>
       <r>   10.9274    0.0000 </r>
       <r>   11.2197    0.0000 </r>
       <r>   11.4198    0.0000 </r>
       <r>   11.7496    0.0000 </r>
       <r>   12.0021    0.0000 </r>
       <r>   12.4978    0.0000 </r>
       <r>   12.8312    0.0000 </r>
       <r>   13.2071    0.0000 </r>
       <r>   14.1770    0.0000 </r>
       <r>   14.7139    0.0000 </r>
       <r>   15.0525    0.0000 </r>
       <r>   15.9237    0.0000 </r>
       <r>   16.5682    0.0000 </r>
      </set>
      <set comment="kpoint 18">
       <r>  -68.6506    1.0000 </r>
       <r>  -68.6422    1.0000 </r>
       <r>  -68.6392    1.0000 </r>
       <r>  -68.6281    1.0000 </r>
       <r>  -68.6177    1.0000 </r>
       <r>  -68.6107    1.0000 </r>
       <r>  -68.6014    1.0000 </r>
       <r>  -68.5930    1.0000 </r>
       <r>  -68.5824    1.0000 </r>
       <r>  -68.5728    1.0000 </r>
       <r>  -68.5665    1.0000 </r>
       <r>  -68.5558    1.0000 </r>
       <r>  -12.4977    1.0000 </r>
       <r>  -11.4227    1.0000 </r>
       <r>  -10.9520    1.0000 </r>
       <r>  -10.5772    1.0000 </r>
       <r>  -10.3812    1.0000 </r>
       <r>  -10.2100    1.0000 </r>
       <r>   -5.8220    1.0000 </r>
       <r>   -4.9424    1.0000 </r>
       <r>   -2.5719    1.0000 </r>
       <r>   -2.3678    1.0000 </r>
       <r>   -1.9144    1.0000 </r>
       <r>   -1.5997    1.0000 </r>
       <r>   -1.4153    1.0000 </r>
       <r>   -1.1248    1.0000 </r>
       <r>   -0.8096    1.0000 </r>
       <r>   -0.6771    1.0000 </r>
       <r>   -0.5377    1.0000 </r>
       <r>   -0.4649    1.0000 </r>
       <r>   -0.2502    1.0000 </r>
       <r>   -0.1999    1.0000 </r>
       <r>   -0.1715    1.0000 </r>
       <r>   -0.1162    1.0000 </r>
       <r>   -0.0344    1.0000 </r>
       <r>    0.0585    1.0000 </r>
       <r>    1.2800    1.0000 </r>
       <r>    1.3239    1.0000 </r>
       <r>    1.3453    1.0000 </r>
       <r>    1.4317    1.0000 </r>
       <r>    1.4515    1.0000 </r>
       <r>    1.4672    1.0000 </r>
       <r>    1.4932    1.0000 </r>
       <r>    1.5550    1.0000 </r>
       <r>    1.7258    1.0000 </r>
       <r>    1.8445    1.0000 </r>
       <r>    1.9697    1.0000 </r>
       <r>    2.0974    1.0000 </r>
       <r>    2.3382    1.0000 </r>
       <r>    2.4481    1.0000 </r>
       <r>    2.5376    1.0000 </r>
       <r>    2.8491    1.0000 </r>
       <r>    3.0550    1.0000 </r>
       <r>    3.2640    1.0000 </r>
       <r>    3.6708    1.0000 </r>
       <r>    3.7803    1.0000 </r>
       <r>    6.2625   -0.0000 </r>
       <r>    6.8022   -0.0000 </r>
       <r>    7.8112    0.0000 </r>
       <r>    8.1365    0.0000 </r>
       <r>    8.3342    0.0000 </r>
       <r>    8.9415    0.0000 </r>
       <r>    9.3357    0.0000 </r>
[...]
       <r>   11.7085    0.0000 </r>
       <r>   11.8936    0.0000 </r>
       <r>   12.2997    0.0000 </r>
       <r>   12.6574    0.0000 </r>
       <r>   13.0137    0.0000 </r>
       <r>   13.2317    0.0000 </r>
       <r>   13.6708    0.0000 </r>
       <r>   14.0707    0.0000 </r>
       <r>   14.3898    0.0000 </r>
       <r>   16.5159    0.0000 </r>
      </set>
      <set comment="kpoint 42">
       <r>  -68.6505    1.0000 </r>
       <r>  -68.6422    1.0000 </r>
       <r>  -68.6389    1.0000 </r>
       <r>  -68.6278    1.0000 </r>
       <r>  -68.6176    1.0000 </r>
       <r>  -68.6106    1.0000 </r>
       <r>  -68.6012    1.0000 </r>
       <r>  -68.5928    1.0000 </r>
       <r>  -68.5824    1.0000 </r>
       <r>  -68.5727    1.0000 </r>
       <r>  -68.5665    1.0000 </r>
       <r>  -68.5558    1.0000 </r>
       <r>  -12.1766    1.0000 </r>
       <r>  -11.7025    1.0000 </r>
       <r>  -10.7199    1.0000 </r>
       <r>  -10.6934    1.0000 </r>
       <r>  -10.5882    1.0000 </r>
       <r>  -10.3960    1.0000 </r>
       <r>   -5.4420    1.0000 </r>
       <r>   -5.0702    1.0000 </r>
       <r>   -2.5081    1.0000 </r>
       <r>   -2.3779    1.0000 </r>
       <r>   -1.9664    1.0000 </r>
       <r>   -1.3655    1.0000 </r>
       <r>   -1.3277    1.0000 </r>
       <r>   -1.0558    1.0000 </r>
       <r>   -0.8296    1.0000 </r>
       <r>   -0.7696    1.0000 </r>
       <r>   -0.4246    1.0000 </r>
       <r>   -0.3413    1.0000 </r>
       <r>   -0.2704    1.0000 </r>
       <r>   -0.2095    1.0000 </r>
       <r>   -0.1421    1.0000 </r>
       <r>   -0.1414    1.0000 </r>
       <r>   -0.0124    1.0000 </r>
       <r>    0.0271    1.0000 </r>
       <r>    1.1728    1.0000 </r>
       <r>    1.3705    1.0000 </r>
       <r>    1.3965    1.0000 </r>
       <r>    1.4517    1.0000 </r>
       <r>    1.4537    1.0000 </r>
       <r>    1.4982    1.0000 </r>
       <r>    1.5168    1.0000 </r>
       <r>    1.5487    1.0000 </r>
       <r>    1.7429    1.0000 </r>
       <r>    1.8205    1.0000 </r>
       <r>    1.9735    1.0000 </r>
       <r>    2.2256    1.0000 </r>
       <r>    2.3967    1.0000 </r>
       <r>    2.6128    1.0000 </r>
       <r>    2.6540    1.0000 </r>
       <r>    2.9137    1.0000 </r>
       <r>    3.0688    1.0000 </r>
       <r>    3.1177    1.0000 </r>
       <r>    3.2849    1.0000 </r>
       <r>    3.5803    1.0000 </r>
       <r>    6.2947   -0.0000 </r>
       <r>    6.3800   -0.0000 </r>
       <r>    7.3525    0.0000 </r>
       <r>    7.5302    0.0000 </r>
       <r>    8.3136    0.0000 </r>
       <r>    8.3366    0.0000 </r>
       <r>    9.1038    0.0000 </r>
       <r>    9.3571    0.0000 </r>
       <r>    9.7169    0.0000 </r>
       <r>    9.9452    0.0000 </r>
       <r>   10.5233    0.0000 </r>
       <r>   10.9894    0.0000 </r>
       <r>   11.4252    0.0000 </r>
       <r>   11.5681    0.0000 </r>
       <r>   12.0195    0.0000 </r>
       <r>   12.2847    0.0000 </r>
       <r>   12.4353    0.0000 </r>
       <r>   12.4763    0.0000 </r>
       <r>   13.0322    0.0000 </r>
       <r>   13.1490    0.0000 </r>
       <r>   14.1400    0.0000 </r>
       <r>   14.4312    0.0000 </r>
       <r>   15.1659    0.0000 </r>
       <r>   15.8673    0.0000 </r>
      </set>
     </set>
    </set>
   </array>
  </eigenvalues>
  <separator name="orbital magnetization" >
   <v name="MAGDIPOLOUT">      0.00000000      0.00000000      0.00000000</v>
  </separator>
  <dos>
   <i name="efermi">      4.21937814 </i>
   <total>
    <array>
     <dimension dim="1">gridpoints</dimension>
     <dimension dim="2">spin</dimension>
     <field>energy</field>
     <field>total</field>
     <field>integrated</field>
     <set>
      <set comment="spin 1">
       <r>   -72.8301     0.0000     0.0000 </r>
       <r>   -72.5238     0.0000     0.0000 </r>
       <r>   -72.2174     0.0000     0.0000 </r>
       <r>   -71.9110     0.0000     0.0000 </r>
       <r>   -71.6046     0.0000     0.0000 </r>
       <r>   -71.2982     0.0000     0.0000 </r>
       <r>   -70.9918     0.0000     0.0000 </r>
       <r>   -70.6855     0.0000     0.0000 </r>
       <r>   -70.3791     0.0000     0.0000 </r>
       <r>   -70.0727     0.0000     0.0000 </r>
       <r>   -69.7663     0.0000     0.0000 </r>
       <r>   -69.4599    -0.0000    -0.0000 </r>
       <r>   -69.1536    -0.0000    -0.0000 </r>
       <r>   -68.8472    -0.2244    -0.0687 </r>
       <r>   -68.5408    70.3553    21.4868 </r>
       <r>   -68.2344     8.2033    24.0001 </r>
       <r>   -67.9280    -0.0004    24.0000 </r>
       <r>   -67.6217     0.0000    24.0000 </r>
       <r>   -67.3153     0.0000    24.0000 </r>
       <r>   -67.0089     0.0000    24.0000 </r>
       <r>   -66.7025     0.0000    24.0000 </r>
       <r>   -66.3961     0.0000    24.0000 </r>
       <r>   -66.0898     0.0000    24.0000 </r>
       <r>   -65.7834     0.0000    24.0000 </r>
       <r>   -65.4770     0.0000    24.0000 </r>
       <r>   -65.1706     0.0000    24.0000 </r>
       <r>   -64.8642     0.0000    24.0000 </r>
       <r>   -64.5578     0.0000    24.0000 </r>
       <r>   -64.2515     0.0000    24.0000 </r>
       <r>   -63.9451     0.0000    24.0000 </r>
       <r>   -63.6387     0.0000    24.0000 </r>
       <r>   -63.3323     0.0000    24.0000 </r>
       <r>   -63.0259     0.0000    24.0000 </r>
       <r>   -62.7196     0.0000    24.0000 </r>
       <r>   -62.4132     0.0000    24.0000 </r>
       <r>   -62.1068     0.0000    24.0000 </r>
       <r>   -61.8004     0.0000    24.0000 </r>
       <r>   -61.4940     0.0000    24.0000 </r>
       <r>   -61.1877     0.0000    24.0000 </r>
       <r>   -60.8813     0.0000    24.0000 </r>
       <r>   -60.5749     0.0000    24.0000 </r>
       <r>   -60.2685     0.0000    24.0000 </r>
       <r>   -59.9621     0.0000    24.0000 </r>
       <r>   -59.6557     0.0000    24.0000 </r>
       <r>   -59.3494     0.0000    24.0000 </r>
       <r>   -59.0430     0.0000    24.0000 </r>
       <r>   -58.7366     0.0000    24.0000 </r>
       <r>   -58.4302     0.0000    24.0000 </r>
       <r>   -58.1238     0.0000    24.0000 </r>
       <r>   -57.8175     0.0000    24.0000 </r>
       <r>   -57.5111     0.0000    24.0000 </r>
       <r>   -57.2047     0.0000    24.0000 </r>
       <r>   -56.8983     0.0000    24.0000 </r>
       <r>   -56.5919     0.0000    24.0000 </r>
       <r>   -56.2856     0.0000    24.0000 </r>
       <r>   -55.9792     0.0000    24.0000 </r>
       <r>   -55.6728     0.0000    24.0000 </r>
       <r>   -55.3664     0.0000    24.0000 </r>
       <r>   -55.0600     0.0000    24.0000 </r>
       <r>   -54.7537     0.0000    24.0000 </r>
       <r>   -54.4473     0.0000    24.0000 </r>
       <r>   -54.1409     0.0000    24.0000 </r>
       <r>   -53.8345     0.0000    24.0000 </r>
       <r>   -53.5281     0.0000    24.0000 </r>
       <r>   -53.2217     0.0000    24.0000 </r>
       <r>   -52.9154     0.0000    24.0000 </r>
       <r>   -52.6090     0.0000    24.0000 </r>
       <r>   -52.3026     0.0000    24.0000 </r>
       <r>   -51.9962     0.0000    24.0000 </r>
       <r>   -51.6898     0.0000    24.0000 </r>
       <r>   -51.3835     0.0000    24.0000 </r>
       <r>   -51.0771     0.0000    24.0000 </r>
       <r>   -50.7707     0.0000    24.0000 </r>
       <r>   -50.4643     0.0000    24.0000 </r>
       <r>   -50.1579     0.0000    24.0000 </r>
       <r>   -49.8516     0.0000    24.0000 </r>
       <r>   -49.5452     0.0000    24.0000 </r>
       <r>   -49.2388     0.0000    24.0000 </r>
       <r>   -48.9324     0.0000    24.0000 </r>
       <r>   -48.6260     0.0000    24.0000 </r>
       <r>   -48.3197     0.0000    24.0000 </r>
       <r>   -48.0133     0.0000    24.0000 </r>
       <r>   -47.7069     0.0000    24.0000 </r>
       <r>   -47.4005     0.0000    24.0000 </r>
       <r>   -47.0941     0.0000    24.0000 </r>
       <r>   -46.7877     0.0000    24.0000 </r>
       <r>   -46.4814     0.0000    24.0000 </r>
       <r>   -46.1750     0.0000    24.0000 </r>
       <r>   -45.8686     0.0000    24.0000 </r>
       <r>   -45.5622     0.0000    24.0000 </r>
       <r>   -45.2558     0.0000    24.0000 </r>
       <r>   -44.9495     0.0000    24.0000 </r>
       <r>   -44.6431     0.0000    24.0000 </r>
       <r>   -44.3367     0.0000    24.0000 </r>
       <r>   -44.0303     0.0000    24.0000 </r>
       <r>   -43.7239     0.0000    24.0000 </r>
       <r>   -43.4176     0.0000    24.0000 </r>
       <r>   -43.1112     0.0000    24.0000 </r>
       <r>   -42.8048     0.0000    24.0000 </r>
       <r>   -42.4984     0.0000    24.0000 </r>
       <r>   -42.1920     0.0000    24.0000 </r>
       <r>   -41.8856     0.0000    24.0000 </r>
       <r>   -41.5793     0.0000    24.0000 </r>
       <r>   -41.2729     0.0000    24.0000 </r>
       <r>   -40.9665     0.0000    24.0000 </r>
       <r>   -40.6601     0.0000    24.0000 </r>
       <r>   -40.3537     0.0000    24.0000 </r>
       <r>   -40.0474     0.0000    24.0000 </r>
       <r>   -39.7410     0.0000    24.0000 </r>
       <r>   -39.4346     0.0000    24.0000 </r>
       <r>   -39.1282     0.0000    24.0000 </r>
       <r>   -38.8218     0.0000    24.0000 </r>
       <r>   -38.5155     0.0000    24.0000 </r>
       <r>   -38.2091     0.0000    24.0000 </r>
       <r>   -37.9027     0.0000    24.0000 </r>
       <r>   -37.5963     0.0000    24.0000 </r>
       <r>   -37.2899     0.0000    24.0000 </r>
       <r>   -36.9836     0.0000    24.0000 </r>
       <r>   -36.6772     0.0000    24.0000 </r>
       <r>   -36.3708     0.0000    24.0000 </r>
       <r>   -36.0644     0.0000    24.0000 </r>
       <r>   -35.7580     0.0000    24.0000 </r>
       <r>   -35.4516     0.0000    24.0000 </r>
       <r>   -35.1453     0.0000    24.0000 </r>
       <r>   -34.8389     0.0000    24.0000 </r>
       <r>   -34.5325     0.0000    24.0000 </r>
       <r>   -34.2261     0.0000    24.0000 </r>
       <r>   -33.9197     0.0000    24.0000 </r>
       <r>   -33.6134     0.0000    24.0000 </r>
       <r>   -33.3070     0.0000    24.0000 </r>
       <r>   -33.0006     0.0000    24.0000 </r>
       <r>   -32.6942     0.0000    24.0000 </r>
       <r>   -32.3878     0.0000    24.0000 </r>
       <r>   -32.0815     0.0000    24.0000 </r>
       <r>   -31.7751     0.0000    24.0000 </r>
       <r>   -31.4687     0.0000    24.0000 </r>
       <r>   -31.1623     0.0000    24.0000 </r>
       <r>   -30.8559     0.0000    24.0000 </r>
       <r>   -30.5496     0.0000    24.0000 </r>
       <r>   -30.2432     0.0000    24.0000 </r>
       <r>   -29.9368     0.0000    24.0000 </r>
       <r>   -29.6304     0.0000    24.0000 </r>
       <r>   -29.3240     0.0000    24.0000 </r>
       <r>   -29.0176     0.0000    24.0000 </r>
       <r>   -28.7113     0.0000    24.0000 </r>
       <r>   -28.4049     0.0000    24.0000 </r>
       <r>   -28.0985     0.0000    24.0000 </r>
       <r>   -27.7921     0.0000    24.0000 </r>
       <r>   -27.4857     0.0000    24.0000 </r>
       <r>   -27.1794     0.0000    24.0000 </r>
       <r>   -26.8730     0.0000    24.0000 </r>
       <r>   -26.5666     0.0000    24.0000 </r>
       <r>   -26.2602     0.0000    24.0000 </r>
       <r>   -25.9538     0.0000    24.0000 </r>
       <r>   -25.6475     0.0000    24.0000 </r>
       <r>   -25.3411     0.0000    24.0000 </r>
       <r>   -25.0347     0.0000    24.0000 </r>
       <r>   -24.7283     0.0000    24.0000 </r>
       <r>   -24.4219     0.0000    24.0000 </r>
       <r>   -24.1155     0.0000    24.0000 </r>
       <r>   -23.8092     0.0000    24.0000 </r>
       <r>   -23.5028     0.0000    24.0000 </r>
       <r>   -23.1964     0.0000    24.0000 </r>
       <r>   -22.8900     0.0000    24.0000 </r>
       <r>   -22.5836     0.0000    24.0000 </r>
       <r>   -22.2773     0.0000    24.0000 </r>
       <r>   -21.9709     0.0000    24.0000 </r>
       <r>   -21.6645     0.0000    24.0000 </r>
       <r>   -21.3581     0.0000    24.0000 </r>
       <r>   -21.0517     0.0000    24.0000 </r>
       <r>   -20.7454     0.0000    24.0000 </r>
       <r>   -20.4390     0.0000    24.0000 </r>
       <r>   -20.1326     0.0000    24.0000 </r>
       <r>   -19.8262     0.0000    24.0000 </r>
       <r>   -19.5198     0.0000    24.0000 </r>
       <r>   -19.2135     0.0000    24.0000 </r>
       <r>   -18.9071     0.0000    24.0000 </r>
       <r>   -18.6007     0.0000    24.0000 </r>
       <r>   -18.2943     0.0000    24.0000 </r>
       <r>   -17.9879     0.0000    24.0000 </r>
       <r>   -17.6815     0.0000    24.0000 </r>
       <r>   -17.3752     0.0000    24.0000 </r>
       <r>   -17.0688     0.0000    24.0000 </r>
       <r>   -16.7624     0.0000    24.0000 </r>
       <r>   -16.4560     0.0000    24.0000 </r>
       <r>   -16.1496     0.0000    24.0000 </r>
       <r>   -15.8433     0.0000    24.0000 </r>
       <r>   -15.5369     0.0000    24.0000 </r>
       <r>   -15.2305     0.0000    24.0000 </r>
       <r>   -14.9241     0.0000    24.0000 </r>
       <r>   -14.6177     0.0000    24.0000 </r>
       <r>   -14.3114     0.0000    24.0000 </r>
       <r>   -14.0050     0.0000    24.0000 </r>
       <r>   -13.6986    -0.0000    24.0000 </r>
       <r>   -13.3922    -0.0000    24.0000 </r>
       <r>   -13.0858    -0.0000    24.0000 </r>
       <r>   -12.7795    -0.0040    23.9988 </r>
       <r>   -12.4731     1.5144    24.4628 </r>
       <r>   -12.1667     3.5816    25.5601 </r>
       <r>   -11.8603     1.9097    26.1452 </r>
       <r>   -11.5539     2.1703    26.8101 </r>
       <r>   -11.2475     3.1971    27.7897 </r>
       <r>   -10.9412     2.5018    28.5561 </r>
       <r>   -10.6348     9.3137    31.4097 </r>
       <r>   -10.3284     9.5946    34.3493 </r>
       <r>   -10.0220     5.4042    36.0050 </r>
       <r>    -9.7156    -0.0164    36.0000 </r>
       <r>    -9.4093    -0.0000    36.0000 </r>
       <r>    -9.1029     0.0000    36.0000 </r>
       <r>    -8.7965     0.0000    36.0000 </r>
       <r>    -8.4901     0.0000    36.0000 </r>
       <r>    -8.1837     0.0000    36.0000 </r>
       <r>    -7.8774     0.0000    36.0000 </r>
       <r>    -7.5710     0.0000    36.0000 </r>
       <r>    -7.2646     0.0000    36.0000 </r>
       <r>    -6.9582    -0.0000    36.0000 </r>
       <r>    -6.6518    -0.0000    36.0000 </r>
       <r>    -6.3454    -0.0000    36.0000 </r>
       <r>    -6.0391     0.0390    36.0119 </r>
       <r>    -5.7327     3.4376    37.0652 </r>
       <r>    -5.4263     2.0712    37.6997 </r>
       <r>    -5.1199     1.9192    38.2878 </r>
       <r>    -4.8135     3.3260    39.3068 </r>
       <r>    -4.5072     2.2034    39.9819 </r>
       <r>    -4.2008     0.0592    40.0000 </r>
       <r>    -3.8944    -0.0000    40.0000 </r>
       <r>    -3.5880    -0.0000    40.0000 </r>
       <r>    -3.2816    -0.0000    40.0000 </r>
       <r>    -2.9753    -0.0005    39.9999 </r>
       <r>    -2.6689     0.3807    40.1165 </r>
       <r>    -2.3625     6.1254    41.9932 </r>
       <r>    -2.0561     6.7046    44.0473 </r>
       <r>    -1.7497     7.3705    46.3055 </r>
       <r>    -1.4434     6.4082    48.2689 </r>
       <r>    -1.1370     8.7643    50.9541 </r>
       <r>    -0.8306     9.0605    53.7301 </r>
       <r>    -0.5242    11.3521    57.2081 </r>
       <r>    -0.2178    18.2323    62.7942 </r>
       <r>     0.0886    28.8627    71.6372 </r>
       <r>     0.3949     1.1850    72.0002 </r>
       <r>     0.7013    -0.0007    72.0000 </r>
       <r>     1.0077    -0.0205    71.9937 </r>
       <r>     1.3141     7.5028    74.2924 </r>
       <r>     1.6205    44.7578    88.0054 </r>
       <r>     1.9268    13.8174    92.2388 </r>
       <r>     2.2332    13.1696    96.2737 </r>
       <r>     2.5396    12.8598   100.2137 </r>
       <r>     2.8460    11.1616   103.6334 </r>
       <r>     3.1524     9.0675   106.4115 </r>
       <r>     3.4587     7.9233   108.8391 </r>
       <r>     3.7651     6.9330   110.9632 </r>
       <r>     4.0715     3.1454   111.9269 </r>
       <r>     4.3779     0.2391   112.0002 </r>
       <r>     4.6843    -0.0005   112.0000 </r>
       <r>     4.9907    -0.0000   112.0000 </r>
       <r>     5.2970    -0.0001   112.0000 </r>
       <r>     5.6034     0.0767   112.0234 </r>
       <r>     5.9098     0.1709   112.0758 </r>
       <r>     6.2162     2.6243   112.8799 </r>
       <r>     6.5226     4.3239   114.2046 </r>
       <r>     6.8289     3.4737   115.2689 </r>
       <r>     7.1353     2.4542   116.0208 </r>
       <r>     7.4417     1.4725   116.4719 </r>
       <r>     7.7481     3.1705   117.4433 </r>
       <r>     8.0545     5.5723   119.1506 </r>
       <r>     8.3608     5.4484   120.8199 </r>
       <r>     8.6672     4.6015   122.2297 </r>
       <r>     8.9736     4.5010   123.6087 </r>
       <r>     9.2800     5.6288   125.3333 </r>
       <r>     9.5864     5.6814   127.0739 </r>
       <r>     9.8927     4.7876   128.5407 </r>
       <r>    10.1991     4.4401   129.9011 </r>
       <r>    10.5055     6.5361   131.9036 </r>
       <r>    10.8119     8.2647   134.4358 </r>
       <r>    11.1183     8.2391   136.9601 </r>
       <r>    11.4247     7.9889   139.4077 </r>
       <r>    11.7310     7.9134   141.8322 </r>
       <r>    12.0374     6.5750   143.8467 </r>
       <r>    12.3438     5.8560   145.6409 </r>
       <r>    12.6502     6.6647   147.6828 </r>
       <r>    12.9566     5.7846   149.4551 </r>
       <r>    13.2629     6.1780   151.3479 </r>
       <r>    13.5693     5.3473   152.9862 </r>
       <r>    13.8757     4.0114   154.2152 </r>
       <r>    14.1821     3.2283   155.2043 </r>
       <r>    14.4885     4.6131   156.6177 </r>
       <r>    14.7948     3.4499   157.6747 </r>
       <r>    15.1012     1.5564   158.1515 </r>
       <r>    15.4076     1.4682   158.6014 </r>
       <r>    15.7140     1.2113   158.9725 </r>
       <r>    16.0204     1.6899   159.4902 </r>
       <r>    16.3267     0.3300   159.5913 </r>
       <r>    16.6331     0.6882   159.8022 </r>
       <r>    16.9395     0.5259   159.9633 </r>
       <r>    17.2459     0.1198   160.0000 </r>
       <r>    17.5523    -0.0000   160.0000 </r>
       <r>    17.8587     0.0000   160.0000 </r>
       <r>    18.1650     0.0000   160.0000 </r>
       <r>    18.4714     0.0000   160.0000 </r>
       <r>    18.7778     0.0000   160.0000 </r>
       <r>    19.0842     0.0000   160.0000 </r>
      </set>
     </set>
    </array>
   </total>
  </dos>
 </calculation>
 <structure name="finalpos" >
  <crystal>
   <varray name="basis" >
    <v>       3.22479600      -5.64383000       0.03157200 </v>
    <v>       3.22479600       5.64383000       0.03157200 </v>
    <v>      -2.10194600       0.00000000       6.07553700 </v>
   </varray>
   <i name="volume">    221.90106089 </i>
   <varray name="rec_basis" >
    <v>       0.15452516      -0.08859232       0.05346088 </v>
    <v>       0.15452516       0.08859232       0.05346088 </v>
    <v>      -0.00160600       0.00000000       0.16403888 </v>
   </varray>
  </crystal>
  <varray name="positions" >
   <v>       0.61844300       0.12117100       0.11953300 </v>
   <v>       0.12117100       0.61844300       0.61953300 </v>
   <v>       0.96295700       0.79032200       0.11881300 </v>
   <v>       0.79032200       0.96295700       0.61881300 </v>
   <v>       0.43973200       0.26728100       0.59749152 </v>
   <v>       0.26728100       0.43973200       0.09904700 </v>
   <v>       0.07949800       0.91167500       0.49736300 </v>
   <v>       0.57140300       0.41236400       0.98018400 </v>
   <v>       0.73711100       0.25006200       0.49504900 </v>
   <v>       0.41236400       0.57140300       0.48018400 </v>
   <v>       0.91167500       0.07949800       0.99736300 </v>
   <v>       0.25006200       0.73711100       0.99504900 </v>
  </varray>
 </structure>
</modeling>
