   12   12    1    1
  0.1849176E+02  0.6500240E-09  0.6500240E-09  0.6428867E-09  0.5000000E-15
  1.000000000000000E-004
  CAR 
 CGS                                     
  112   42   80
 
  0.0000000E+00  0.0000000E+00  0.0000000E+00  0.1250000E-01
   1      -68.650666
   2      -68.642307
   3      -68.639172
   4      -68.628072
   5      -68.617780
   6      -68.610778
   7      -68.601387
   8      -68.592989
   9      -68.582515
  10      -68.572872
  11      -68.566572
  12      -68.555883
  13      -12.718777
  14      -11.135825
  15      -10.909573
  16      -10.601806
  17      -10.257024
  18      -10.236825
  19       -5.978311
  20       -4.985847
  21       -2.764431
  22       -2.207852
  23       -2.071493
  24       -1.922846
  25       -1.580510
  26       -0.985268
  27       -0.952036
  28       -0.676863
  29       -0.397843
  30       -0.278732
  31       -0.263942
  32       -0.233321
  33       -0.186241
  34       -0.156754
  35       -0.040982
  36        0.031732
  37        1.349045
  38        1.361500
  39        1.413210
  40        1.455857
  41        1.471416
  42        1.473671
  43        1.519787
  44        1.531999
  45        1.574130
  46        1.711086
  47        1.893038
  48        1.926858
  49        2.059928
  50        2.651520
  51        2.729351
  52        3.089332
  53        3.217064
  54        4.004223
  55        4.035537
  56        4.170891
  57        5.538904
  58        6.358834
  59        7.628410
  60        7.972517
  61        8.633647
  62        8.804737
  63        9.583782
  64        9.739212
  65        9.812875
  66       10.412073
  67       10.577110
  68       10.690327
  69       10.708110
  70       11.279597
  71       11.711158
  72       12.390875
  73       12.451241
  74       12.726288
  75       13.320072
  76       13.382439
  77       13.827946
  78       13.887673
  79       14.143885
  80       14.180826
 
  0.2500000E+00  0.7372575E-17  0.1387779E-16  0.2500000E-01
   1      -68.650620
   2      -68.642283
   3      -68.639131
   4      -68.628047
   5      -68.617668
   6      -68.610676
   7      -68.601416
   8      -68.592987
   9      -68.582462
  10      -68.572804
  11      -68.566537
  12      -68.555850
  13      -12.593556
  14      -11.133251
  15      -10.973657
  16      -10.677946
  17      -10.369490
  18      -10.281685
  19       -5.926754
  20       -4.775559
  21       -2.647720
  22       -2.257504
  23       -2.079905
  24       -1.686429
  25       -1.354395
  26       -0.995795
  27       -0.764836
  28       -0.619970
  29       -0.557865
  30       -0.434399
  31       -0.361431
  32       -0.243462
  33       -0.195991
  34       -0.166707
  35       -0.048478
  36        0.041785
  37        1.278523
  38        1.333874
  39        1.353216
  40        1.393214
  41        1.426541
  42        1.471561
  43        1.495455
  44        1.532294
  45        1.724815
  46        1.859508
  47        2.056071
  48        2.093511
  49        2.231101
  50        2.414001
  51        2.554352
  52        2.825026
  53        2.946806
  54        3.241618
  55        3.660401
  56        4.038536
  57        6.170613
  58        6.907197
  59        8.121983
  60        8.274333
  61        8.599338
  62        9.017877
  63        9.247205
  64        9.530671
  65        9.870685
  66       10.375119
  67       10.631362
  68       10.814783
  69       10.936260
  70       11.190438
  71       11.655255
  72       11.767312
  73       12.115004
  74       12.443442
  75       12.614672
  76       13.007467
  77       13.506031
  78       13.875996
  79       14.215405
  80       14.710425
 
  0.5000000E+00  0.1474515E-16  0.2775558E-16  0.1250000E-01
   1      -68.650505
   2      -68.642115
   3      -68.639058
   4      -68.627962
   5      -68.617615
   6      -68.610662
   7      -68.601330
   8      -68.592922
   9      -68.582451
  10      -68.572746
  11      -68.566368
  12      -68.555735
  13      -12.433792
  14      -11.249401
  15      -10.952857
  16      -10.767193
  17      -10.428787
  18      -10.363948
  19       -5.864537
  20       -4.550821
  21       -2.494671
  22       -2.248210
  23       -1.939587
  24       -1.460491
  25       -1.224344
  26       -1.103225
  27       -0.900547
  28       -0.868451
  29       -0.598514
  30       -0.536547
  31       -0.272692
  32       -0.214595
  33       -0.202132
  34       -0.140974
  35       -0.032353
  36        0.084389
  37        1.252727
  38        1.324314
  39        1.348472
  40        1.397743
  41        1.469398
  42        1.477080
  43        1.498778
  44        1.555392
  45        1.755280
  46        1.793025
  47        1.964408
  48        2.147420
  49        2.316259
  50        2.358070
  51        2.556294
  52        2.669497
  53        2.938808
  54        3.079135
  55        3.248222
  56        3.860421
  57        6.385069
  58        7.098939
  59        7.967026
  60        8.211079
  61        8.519481
  62        8.822195
  63        9.321715
  64        9.891621
  65       10.009167
  66       10.518830
  67       10.696180
  68       10.789235
  69       11.154699
  70       11.415976
  71       11.609833
  72       11.774375
  73       11.939336
  74       12.501299
  75       12.781832
  76       13.003163
  77       13.395144
  78       13.547043
  79       13.934882
  80       14.275809
 
  0.7372575E-17  0.2500000E+00  0.1387779E-16  0.2500000E-01
   1      -68.650642
   2      -68.642260
   3      -68.639147
   4      -68.628033
   5      -68.617672
   6      -68.610672
   7      -68.601389
   8      -68.593015
   9      -68.582447
  10      -68.572819
  11      -68.566537
  12      -68.555848
  13      -12.593275
  14      -11.131073
  15      -10.981213
  16      -10.670724
  17      -10.373801
  18      -10.279467
  19       -5.926410
  20       -4.775965
  21       -2.647572
  22       -2.246399
  23       -2.094796
  24       -1.688425
  25       -1.345094
  26       -0.996395
  27       -0.768100
  28       -0.622122
  29       -0.549014
  30       -0.441980
  31       -0.359780
  32       -0.243704
  33       -0.193125
  34       -0.171045
  35       -0.046180
  36        0.040672
  37        1.278207
  38        1.336698
  39        1.354709
  40        1.389721
  41        1.425843
  42        1.470922
  43        1.499779
  44        1.527939
  45        1.724586
  46        1.857257
  47        2.057467
  48        2.096217
  49        2.230067
  50        2.413792
  51        2.555265
  52        2.825666
  53        2.945491
  54        3.239525
  55        3.660926
  56        4.039195
  57        6.171047
  58        6.907621
  59        8.144928
  60        8.249988
  61        8.602089
  62        9.018924
  63        9.250509
  64        9.529275
  65        9.865443
  66       10.377301
  67       10.634071
  68       10.813372
  69       10.936117
  70       11.185343
  71       11.655259
  72       11.771169
  73       12.115843
  74       12.440023
  75       12.617840
  76       13.005115
  77       13.516398
  78       13.902884
  79       14.270234
  80       14.848542
 
  0.2500000E+00  0.2500000E+00  0.0000000E+00  0.2500000E-01
   1      -68.650643
   2      -68.642283
   3      -68.639033
   4      -68.627932
   5      -68.617804
   6      -68.610809
   7      -68.601292
   8      -68.592889
   9      -68.582578
  10      -68.572935
  11      -68.566555
  12      -68.555866
  13      -12.437231
  14      -11.192624
  15      -10.941840
  16      -10.876528
  17      -10.393272
  18      -10.355481
  19       -5.869193
  20       -4.524569
  21       -2.418733
  22       -2.244794
  23       -1.793459
  24       -1.680672
  25       -1.352626
  26       -1.298348
  27       -1.078643
  28       -0.682485
  29       -0.525928
  30       -0.297344
  31       -0.282007
  32       -0.227198
  33       -0.189147
  34       -0.129005
  35       -0.093172
  36        0.083637
  37        1.292409
  38        1.310673
  39        1.414028
  40        1.425858
  41        1.462103
  42        1.482091
  43        1.494081
  44        1.570662
  45        1.671222
  46        1.879512
  47        1.940100
  48        2.134133
  49        2.278186
  50        2.319824
  51        2.559950
  52        2.648851
  53        2.903128
  54        2.943732
  55        3.696939
  56        3.831328
  57        6.172655
  58        6.989812
  59        7.992790
  60        8.336798
  61        8.433365
  62        8.575656
  63        9.137449
  64        9.244548
  65       10.368229
  66       10.500367
  67       10.923697
  68       11.189751
  69       11.332754
  70       11.557892
  71       11.815634
  72       11.962233
  73       12.315675
  74       12.501995
  75       12.709552
  76       12.916227
  77       13.342016
  78       13.446359
  79       14.255588
  80       14.366896
 
  0.5000000E+00  0.2500000E+00 -0.2775558E-16  0.2500000E-01
   1      -68.650425
   2      -68.642057
   3      -68.639120
   4      -68.627979
   5      -68.617595
   6      -68.610570
   7      -68.601356
   8      -68.592943
   9      -68.582392
  10      -68.572704
  11      -68.566408
  12      -68.555733
  13      -12.437538
  14      -11.355316
  15      -10.935878
  16      -10.737634
  17      -10.395191
  18      -10.273713
  19       -5.940516
  20       -4.643930
  21       -2.391632
  22       -2.225628
  23       -2.059224
  24       -1.635628
  25       -1.372538
  26       -1.277184
  27       -1.020650
  28       -0.514485
  29       -0.487282
  30       -0.330343
  31       -0.282419
  32       -0.211313
  33       -0.151104
  34       -0.136523
  35       -0.011930
  36        0.115083
  37        1.244495
  38        1.316145
  39        1.379574
  40        1.436361
  41        1.459927
  42        1.491364
  43        1.498100
  44        1.552093
  45        1.749885
  46        1.827634
  47        1.917500
  48        2.133534
  49        2.220447
  50        2.384416
  51        2.563793
  52        2.790360
  53        2.977435
  54        3.311211
  55        3.601791
  56        3.748381
  57        6.087037
  58        6.939852
  59        7.608328
  60        8.063770
  61        8.414727
  62        8.619883
  63        8.980910
  64        9.150956
  65       10.091386
  66       10.334458
  67       10.739182
  68       11.111655
  69       11.458520
  70       11.596288
  71       11.803644
  72       12.084007
  73       12.476035
  74       12.914041
  75       13.039854
  76       13.837577
  77       14.216929
  78       14.655792
  79       15.438058
  80       15.638937
 
 -0.2500000E+00  0.2500000E+00  0.0000000E+00  0.2500000E-01
   1      -68.650633
   2      -68.642273
   3      -68.639112
   4      -68.628012
   5      -68.617603
   6      -68.610607
   7      -68.601387
   8      -68.592985
   9      -68.582403
  10      -68.572760
  11      -68.566539
  12      -68.555850
  13      -12.596180
  14      -11.254408
  15      -10.988332
  16      -10.567687
  17      -10.373215
  18      -10.182419
  19       -6.002955
  20       -4.896114
  21       -2.647876
  22       -2.315859
  23       -1.972671
  24       -1.648506
  25       -1.493410
  26       -1.185046
  27       -0.788800
  28       -0.585425
  29       -0.448127
  30       -0.337049
  31       -0.294432
  32       -0.232115
  33       -0.173581
  34       -0.127419
  35       -0.009335
  36        0.071479
  37        1.258367
  38        1.320314
  39        1.364085
  40        1.422443
  41        1.430351
  42        1.475406
  43        1.503239
  44        1.541978
  45        1.724635
  46        1.812402
  47        1.995069
  48        2.072951
  49        2.416453
  50        2.460955
  51        2.528860
  52        2.872553
  53        3.140860
  54        3.228694
  55        3.783354
  56        4.068271
  57        5.978440
  58        6.692688
  59        7.531423
  60        8.215276
  61        8.621180
  62        8.924973
  63        9.310085
  64        9.433181
  65        9.806766
  66       10.271037
  67       10.541474
  68       10.825683
  69       10.972580
  70       11.380291
  71       11.466108
  72       11.731329
  73       12.097576
  74       12.661841
  75       12.943101
  76       13.100776
  77       13.349337
  78       13.520649
  79       14.480968
  80       14.754866
 
  0.1474515E-16  0.5000000E+00  0.2775558E-16  0.1250000E-01
   1      -68.650470
   2      -68.642136
   3      -68.639067
   4      -68.627956
   5      -68.617660
   6      -68.610622
   7      -68.601324
   8      -68.592929
   9      -68.582393
  10      -68.572808
  11      -68.566425
  12      -68.555680
  13      -12.432910
  14      -11.252916
  15      -10.957266
  16      -10.757268
  17      -10.437546
  18      -10.358029
  19       -5.863777
  20       -4.551896
  21       -2.494471
  22       -2.238769
  23       -1.952255
  24       -1.457564
  25       -1.227702
  26       -1.101362
  27       -0.903708
  28       -0.857842
  29       -0.602774
  30       -0.536975
  31       -0.275709
  32       -0.206638
  33       -0.198759
  34       -0.151143
  35       -0.030509
  36        0.083354
  37        1.253882
  38        1.329221
  39        1.344080
  40        1.395786
  41        1.471230
  42        1.479803
  43        1.499754
  44        1.550145
  45        1.749775
  46        1.789607
  47        1.971734
  48        2.143267
  49        2.323313
  50        2.365549
  51        2.549156
  52        2.668280
  53        2.932983
  54        3.079460
  55        3.251301
  56        3.860894
  57        6.385308
  58        7.097717
  59        7.982341
  60        8.202292
  61        8.527024
  62        8.811497
  63        9.328436
  64        9.889643
  65       10.005989
  66       10.516500
  67       10.697029
  68       10.798228
  69       11.138933
  70       11.404751
  71       11.612505
  72       11.776734
  73       11.946689
  74       12.502743
  75       12.837878
  76       13.033935
  77       13.550694
  78       13.686563
  79       14.551195
  80       15.245973
 
  0.2500000E+00  0.5000000E+00 -0.2775558E-16  0.2500000E-01
   1      -68.650422
   2      -68.642057
   3      -68.639100
   4      -68.627966
   5      -68.617618
   6      -68.610572
   7      -68.601366
   8      -68.592950
   9      -68.582355
  10      -68.572744
  11      -68.566440
  12      -68.555695
  13      -12.437096
  14      -11.356686
  15      -10.936536
  16      -10.736270
  17      -10.394986
  18      -10.273664
  19       -5.940244
  20       -4.644205
  21       -2.391603
  22       -2.227192
  23       -2.056043
  24       -1.640267
  25       -1.356797
  26       -1.291382
  27       -1.019970
  28       -0.515241
  29       -0.481214
  30       -0.328705
  31       -0.281571
  32       -0.217650
  33       -0.153489
  34       -0.137638
  35       -0.008661
  36        0.114596
  37        1.246275
  38        1.313355
  39        1.383772
  40        1.436367
  41        1.461639
  42        1.489707
  43        1.496507
  44        1.547470
  45        1.745512
  46        1.828389
  47        1.924243
  48        2.131998
  49        2.223060
  50        2.387281
  51        2.558302
  52        2.789457
  53        2.978265
  54        3.311305
  55        3.602032
  56        3.748621
  57        6.087141
  58        6.940748
  59        7.613617
  60        8.054654
  61        8.419308
  62        8.621577
  63        8.976567
  64        9.153500
  65       10.090542
  66       10.342774
  67       10.731959
  68       11.114521
  69       11.457140
  70       11.575739
  71       11.778429
  72       12.035094
  73       12.526875
  74       12.682139
  75       12.916167
  76       13.210926
  77       14.230282
  78       14.777505
  79       15.246631
  80       15.904420
 
  0.5000000E+00  0.5000000E+00  0.0000000E+00  0.1250000E-01
   1      -68.650257
   2      -68.641851
   3      -68.638957
   4      -68.627805
   5      -68.617461
   6      -68.610495
   7      -68.601156
   8      -68.592751
   9      -68.582287
  10      -68.572636
  11      -68.566210
  12      -68.555516
  13      -12.428837
  14      -11.503610
  15      -10.911275
  16      -10.616352
  17      -10.405004
  18      -10.201117
  19       -6.018440
  20       -4.811054
  21       -2.310006
  22       -2.267323
  23       -2.089130
  24       -1.707491
  25       -1.253548
  26       -1.105901
  27       -0.841712
  28       -0.786311
  29       -0.727264
  30       -0.244052
  31       -0.200254
  32       -0.183049
  33       -0.150260
  34       -0.036499
  35       -0.002662
  36        0.185019
  37        1.265753
  38        1.317019
  39        1.373894
  40        1.412606
  41        1.433314
  42        1.491410
  43        1.507040
  44        1.549036
  45        1.786440
  46        1.848611
  47        1.994459
  48        2.149542
  49        2.252014
  50        2.336577
  51        2.559841
  52        2.763026
  53        2.777013
  54        3.367814
  55        3.765435
  56        4.004947
  57        5.852856
  58        6.770658
  59        7.080372
  60        8.413570
  61        8.548140
  62        8.768621
  63        9.149972
  64        9.250817
  65        9.957877
  66       10.286148
  67       10.725544
  68       10.828375
  69       10.877589
  70       11.275193
  71       11.756630
  72       11.914396
  73       11.972126
  74       12.363269
  75       12.538921
  76       13.457236
  77       14.277059
  78       14.671671
  79       16.746228
  80       16.758306
 
 -0.2168404E-18 -0.2168404E-18  0.2000000E+00  0.2500000E-01
   1      -68.650669
   2      -68.642307
   3      -68.639140
   4      -68.628041
   5      -68.617698
   6      -68.610702
   7      -68.601411
   8      -68.593009
   9      -68.582489
  10      -68.572845
  11      -68.566574
  12      -68.555885
  13      -12.615736
  14      -11.425996
  15      -10.776552
  16      -10.606563
  17      -10.256111
  18      -10.238511
  19       -5.826101
  20       -5.048964
  21       -2.602379
  22       -2.369475
  23       -1.963012
  24       -1.778189
  25       -1.448993
  26       -1.126171
  27       -1.062685
  28       -0.767012
  29       -0.466298
  30       -0.291764
  31       -0.242329
  32       -0.233263
  33       -0.192282
  34       -0.146528
  35       -0.018357
  36        0.024351
  37        1.332334
  38        1.380424
  39        1.415336
  40        1.438635
  41        1.462001
  42        1.468436
  43        1.513640
  44        1.545573
  45        1.631871
  46        1.758345
  47        1.786641
  48        1.950666
  49        2.089158
  50        2.660191
  51        2.719176
  52        3.194065
  53        3.252124
  54        3.517653
  55        3.893207
  56        3.974929
  57        6.046902
  58        6.417030
  59        7.810445
  60        7.907924
  61        8.379854
  62        8.830983
  63        9.779555
  64        9.794574
  65       10.064127
  66       10.577368
  67       10.640020
  68       10.810542
  69       10.853023
  70       11.489791
  71       11.557079
  72       12.027252
  73       12.579068
  74       12.775225
  75       12.909563
  76       13.207338
  77       13.533017
  78       13.821799
  79       14.196088
  80       14.705371
 
  0.2500000E+00  0.1517883E-17  0.2000000E+00  0.2500000E-01
   1      -68.650604
   2      -68.642246
   3      -68.639126
   4      -68.628027
   5      -68.617744
   6      -68.610741
   7      -68.601364
   8      -68.592969
   9      -68.582493
  10      -68.572861
  11      -68.566517
  12      -68.555816
  13      -12.456337
  14      -11.467240
  15      -10.856549
  16      -10.695871
  17      -10.375030
  18      -10.249441
  19       -5.762247
  20       -4.806175
  21       -2.443826
  22       -2.232062
  23       -1.851807
  24       -1.711357
  25       -1.440409
  26       -1.184743
  27       -0.884386
  28       -0.747592
  29       -0.602603
  30       -0.527244
  31       -0.310825
  32       -0.241736
  33       -0.176175
  34       -0.123273
  35       -0.055138
  36        0.063385
  37        1.300530
  38        1.336646
  39        1.368944
  40        1.427965
  41        1.446325
  42        1.477189
  43        1.522846
  44        1.545574
  45        1.644789
  46        1.874251
  47        1.973567
  48        2.049891
  49        2.194575
  50        2.474553
  51        2.593248
  52        2.837496
  53        2.964995
  54        3.129639
  55        3.565746
  56        3.722232
  57        6.442882
  58        6.959492
  59        8.156651
  60        8.254354
  61        8.833020
  62        9.135561
  63        9.460258
  64        9.797705
  65       10.087219
  66       10.303688
  67       10.741324
  68       11.073113
  69       11.290345
  70       11.427560
  71       11.628704
  72       11.723261
  73       12.087659
  74       12.268593
  75       12.542673
  76       12.656259
  77       12.954486
  78       13.060440
  79       13.640947
  80       14.693565
 
  0.5000000E+00  0.9107298E-17  0.2000000E+00  0.2500000E-01
   1      -68.650448
   2      -68.642058
   3      -68.639049
   4      -68.627931
   5      -68.617600
   6      -68.610607
   7      -68.601275
   8      -68.592891
   9      -68.582408
  10      -68.572731
  11      -68.566451
  12      -68.555756
  13      -12.354018
  14      -11.409479
  15      -10.953512
  16      -10.688911
  17      -10.479575
  18      -10.337968
  19       -5.746375
  20       -4.723179
  21       -2.523254
  22       -2.187760
  23       -1.945590
  24       -1.535041
  25       -1.298826
  26       -1.099643
  27       -0.876082
  28       -0.750885
  29       -0.550584
  30       -0.443886
  31       -0.293636
  32       -0.180591
  33       -0.147913
  34       -0.104402
  35       -0.047800
  36        0.026202
  37        1.269944
  38        1.297434
  39        1.351870
  40        1.428184
  41        1.453160
  42        1.478278
  43        1.500153
  44        1.588898
  45        1.719494
  46        1.933609
  47        2.074789
  48        2.146455
  49        2.264313
  50        2.400038
  51        2.566073
  52        2.597536
  53        2.902182
  54        3.006860
  55        3.357098
  56        3.898485
  57        6.364928
  58        6.901459
  59        7.572688
  60        8.077342
  61        8.552783
  62        8.798675
  63        9.277502
  64        9.634054
  65        9.929565
  66       10.273933
  67       10.658263
  68       10.929270
  69       10.969883
  70       11.285261
  71       11.525931
  72       11.783996
  73       12.247187
  74       12.538523
  75       13.052651
  76       13.514025
  77       14.303761
  78       14.573049
  79       15.128011
  80       16.273974
 
 -0.2500000E+00 -0.4098284E-16  0.2000000E+00  0.2500000E-01
   1      -68.650664
   2      -68.642298
   3      -68.639116
   4      -68.628017
   5      -68.617700
   6      -68.610713
   7      -68.601398
   8      -68.592994
   9      -68.582512
  10      -68.572856
  11      -68.566562
  12      -68.555884
  13      -12.539372
  14      -11.334417
  15      -10.875291
  16      -10.605008
  17      -10.403882
  18      -10.285193
  19       -5.818663
  20       -4.975895
  21       -2.667447
  22       -2.452131
  23       -2.038443
  24       -1.576941
  25       -1.177896
  26       -0.980141
  27       -0.790093
  28       -0.655448
  29       -0.514717
  30       -0.395230
  31       -0.264910
  32       -0.255984
  33       -0.190215
  34       -0.145646
  35       -0.047911
  36        0.015325
  37        1.288081
  38        1.311901
  39        1.385593
  40        1.409818
  41        1.433743
  42        1.456400
  43        1.490696
  44        1.564086
  45        1.687177
  46        1.914560
  47        1.985549
  48        2.145169
  49        2.335087
  50        2.565664
  51        2.615044
  52        2.827633
  53        2.973717
  54        3.248612
  55        3.680004
  56        3.942732
  57        6.178712
  58        6.641623
  59        7.754509
  60        7.979962
  61        8.218801
  62        8.572271
  63        9.379764
  64        9.580545
  65        9.902481
  66       10.250061
  67       10.540068
  68       10.786707
  69       10.842150
  70       11.068841
  71       11.559237
  72       12.020753
  73       12.533694
  74       12.752471
  75       12.947667
  76       13.310154
  77       13.409483
  78       13.744457
  79       13.846095
  80       14.726108
 
  0.1517883E-17  0.2500000E+00  0.2000000E+00  0.2500000E-01
   1      -68.650606
   2      -68.642244
   3      -68.639126
   4      -68.628027
   5      -68.617738
   6      -68.610747
   7      -68.601371
   8      -68.592962
   9      -68.582504
  10      -68.572850
  11      -68.566505
  12      -68.555828
  13      -12.456142
  14      -11.465758
  15      -10.871503
  16      -10.679492
  17      -10.378534
  18      -10.249087
  19       -5.760989
  20       -4.807562
  21       -2.444958
  22       -2.229898
  23       -1.854324
  24       -1.712535
  25       -1.432375
  26       -1.187470
  27       -0.889688
  28       -0.743009
  29       -0.609491
  30       -0.517561
  31       -0.313700
  32       -0.248273
  33       -0.172845
  34       -0.122938
  35       -0.052495
  36        0.061762
  37        1.301619
  38        1.333892
  39        1.368564
  40        1.433783
  41        1.444910
  42        1.479889
  43        1.518672
  44        1.547615
  45        1.641360
  46        1.866957
  47        1.983385
  48        2.045826
  49        2.194491
  50        2.475470
  51        2.594815
  52        2.837399
  53        2.961033
  54        3.132220
  55        3.564745
  56        3.724010
  57        6.444691
  58        6.958714
  59        8.183426
  60        8.231301
  61        8.829176
  62        9.131338
  63        9.469480
  64        9.793055
  65       10.085068
  66       10.301544
  67       10.736151
  68       11.084057
  69       11.287959
  70       11.423899
  71       11.632386
  72       11.727927
  73       12.087226
  74       12.263208
  75       12.538194
  76       12.658175
  77       12.954359
  78       13.058848
  79       13.660001
  80       14.704056
 
  0.2500000E+00  0.2500000E+00  0.2000000E+00  0.2500000E-01
   1      -68.650514
   2      -68.642156
   3      -68.638975
   4      -68.627875
   5      -68.617579
   6      -68.610585
   7      -68.601246
   8      -68.592843
   9      -68.582370
  10      -68.572724
  11      -68.566423
  12      -68.555732
  13      -12.323633
  14      -11.474150
  15      -10.865057
  16      -10.857312
  17      -10.407254
  18      -10.292245
  19       -5.741882
  20       -4.693343
  21       -2.240634
  22       -2.136105
  23       -1.929072
  24       -1.851203
  25       -1.452080
  26       -1.396036
  27       -1.040671
  28       -0.517973
  29       -0.461908
  30       -0.347715
  31       -0.251449
  32       -0.219807
  33       -0.161993
  34       -0.114124
  35       -0.090848
  36        0.082627
  37        1.260689
  38        1.346640
  39        1.396650
  40        1.433880
  41        1.452839
  42        1.509565
  43        1.534201
  44        1.543675
  45        1.752390
  46        1.817015
  47        2.040399
  48        2.134650
  49        2.284861
  50        2.309999
  51        2.520605
  52        2.769019
  53        2.895848
  54        3.261193
  55        3.494584
  56        3.799406
  57        6.185566
  58        6.842826
  59        7.828597
  60        8.043060
  61        8.191003
  62        8.723739
  63        9.151676
  64        9.301814
  65       10.224815
  66       10.446201
  67       10.595317
  68       11.007369
  69       11.241621
  70       11.487333
  71       11.816273
  72       12.171668
  73       12.208767
  74       12.574738
  75       12.691008
  76       13.111761
  77       13.416675
  78       13.878944
  79       14.005217
  80       14.522490
 
  0.5000000E+00  0.2500000E+00  0.2000000E+00  0.2500000E-01
   1      -68.650382
   2      -68.642018
   3      -68.639111
   4      -68.627950
   5      -68.617611
   6      -68.610601
   7      -68.601329
   8      -68.592914
   9      -68.582382
  10      -68.572754
  11      -68.566400
  12      -68.555701
  13      -12.370828
  14      -11.470488
  15      -10.940427
  16      -10.651675
  17      -10.425497
  18      -10.306204
  19       -5.793698
  20       -4.837024
  21       -2.526671
  22       -2.243788
  23       -1.873834
  24       -1.639860
  25       -1.507936
  26       -1.308786
  27       -0.901662
  28       -0.528268
  29       -0.384358
  30       -0.352268
  31       -0.223911
  32       -0.178645
  33       -0.157847
  34       -0.076250
  35       -0.028089
  36        0.080980
  37        1.189253
  38        1.362529
  39        1.395796
  40        1.441921
  41        1.463013
  42        1.507726
  43        1.517965
  44        1.584606
  45        1.740000
  46        1.816053
  47        2.035770
  48        2.236089
  49        2.265834
  50        2.362941
  51        2.488385
  52        2.670122
  53        3.052338
  54        3.411334
  55        3.727062
  56        3.862851
  57        5.932323
  58        6.616881
  59        7.349821
  60        7.943994
  61        8.070840
  62        8.727656
  63        8.899902
  64        9.135036
  65        9.846773
  66       10.332400
  67       10.559522
  68       10.927416
  69       11.219661
  70       11.419768
  71       11.749591
  72       12.002149
  73       12.497836
  74       12.831250
  75       13.207129
  76       14.177025
  77       14.713861
  78       15.052524
  79       15.923724
  80       16.568194
 
 -0.2500000E+00  0.2500000E+00  0.2000000E+00  0.2500000E-01
   1      -68.650569
   2      -68.642248
   3      -68.639165
   4      -68.628075
   5      -68.617676