       N       E                     dE             d eps       ncg     rms          ort
SDA:   1     0.755207036216E+02    0.75521E+02   -0.21318E+03  3360   0.533E+03 0.000E+00
DMP:   2    -0.838345408127E+01   -0.83904E+02   -0.14689E+03  3360   0.395E+03-0.737E+02
DMP:   3    -0.152124312006E+02   -0.68290E+01   -0.20364E+03  3360   0.693E+03-0.482E+03
DMP:   4    -0.226980627865E+02   -0.74856E+01   -0.10731E+03  3360   0.390E+03-0.319E+03
DMP:   5    -0.608092543162E+02   -0.38111E+02   -0.15084E+02  3360   0.707E+02-0.864E+02
DMP:   6    -0.659473571276E+02   -0.51381E+01   -0.81225E+01  3360   0.245E+02-0.110E+02
DMP:   7    -0.674808807872E+02   -0.15335E+01   -0.41199E+01  3360   0.146E+02-0.113E+02
DMP:   8    -0.690847585081E+02   -0.16039E+01   -0.77158E+00  3360   0.284E+01-0.237E+01
DMP:   9    -0.693957739042E+02   -0.31102E+00   -0.38387E+00  3360   0.110E+01-0.364E+00
DMP:  10    -0.694989011298E+02   -0.10313E+00   -0.15201E+00  3360   0.546E+00-0.434E+00
DMP:  11    -0.695683211655E+02   -0.69420E-01   -0.36783E-01  3360   0.105E+00-0.341E-01
DMP:  12    -0.695806868264E+02   -0.12366E-01   -0.22746E-01  3360   0.686E-01-0.306E-01
DMP:  13    -0.695903006944E+02   -0.96139E-02   -0.51157E-02  3360   0.161E-01-0.874E-02
DMP:  14    -0.695927590697E+02   -0.24584E-02   -0.37635E-02  3360   0.960E-02-0.489E-03
DMP:  15    -0.695942615574E+02   -0.15025E-02   -0.10355E-02  3360   0.332E-02-0.190E-02
DMP:  16    -0.695948315757E+02   -0.57002E-03   -0.40866E-03  3360   0.915E-03 0.280E-03
DMP:  17    -0.695950050062E+02   -0.17343E-03   -0.20829E-03  3360   0.577E-03-0.148E-03
DMP:  18    -0.695951220320E+02   -0.11703E-03   -0.56364E-04  3360   0.119E-03 0.563E-04
DMP:  19    -0.695951511047E+02   -0.29073E-04   -0.35249E-04  3360   0.880E-04 0.245E-06
DMP:  20    -0.695951709110E+02   -0.19806E-04   -0.11632E-04  3360   0.242E-04 0.128E-04
DMP:  21    -0.695951783522E+02   -0.74412E-05   -0.70492E-05  3360   0.141E-04 0.927E-05
   1 F= -.69595178E+02 E0= -.69595367E+02  d E =0.564815E-03
