 vasp.5.3.3 18Dez12 (build Nov 13 2015 09:58:40) complex                        
  
 executed on             LinuxIFC date 2017.10.18  13:06:26
 running on   48 total cores
 distrk:  each k-point on   16 cores,    3 groups
 distr:  one band on NCORES_PER_BAND=   1 cores,   16 groups


--------------------------------------------------------------------------------------------------------


 INCAR:
 POTCAR:    PAW_PBE Cu_pv 06Sep2000               
 POTCAR:    PAW_PBE Ge 05Jan2001                  
 POTCAR:    PAW_PBE S 17Jan2003                   

 ----------------------------------------------------------------------------- 
|                                                                             |
|           W    W    AA    RRRRR   N    N  II  N    N   GGGG   !!!           |
|           W    W   A  A   R    R  NN   N  II  NN   N  G    G  !!!           |
|           W    W  A    A  R    R  N N  N  II  N N  N  G       !!!           |
|           W WW W  AAAAAA  RRRRR   N  N N  II  N  N N  G  GGG   !            |
|           WW  WW  A    A  R   R   N   NN  II  N   NN  G    G                |
|           W    W  A    A  R    R  N    N  II  N    N   GGGG   !!!           |
|                                                                             |
|      For optimal performance we recommend that you set                      |
|        NPAR = 4 - approx SQRT( number of cores)                             |
|      (number of cores/NPAR must be integer)                                 |
|      This setting will greatly improve the performance of VASP for DFT.     |
|      The default NPAR=number of cores might be grossly inefficient          |
|      on modern multi-core architectures or massively parallel machines.     |
|      Do your own testing.                                                   |
|      Unfortunately you need to use the default for hybrid, GW and RPA       |
|      calculations.                                                          |
|                                                                             |
 ----------------------------------------------------------------------------- 


 ----------------------------------------------------------------------------- 
|                                                                             |
|           W    W    AA    RRRRR   N    N  II  N    N   GGGG   !!!           |
|           W    W   A  A   R    R  NN   N  II  NN   N  G    G  !!!           |
|           W    W  A    A  R    R  N N  N  II  N N  N  G       !!!           |
|           W WW W  AAAAAA  RRRRR   N  N N  II  N  N N  G  GGG   !            |
|           WW  WW  A    A  R   R   N   NN  II  N   NN  G    G                |
|           W    W  A    A  R    R  N    N  II  N    N   GGGG   !!!           |
|                                                                             |
|      You have enabled k-point parallelism (KPAR>1).                         |
|      This developmental code was originally  written by Paul Kent at ORNL,  |
|      and carefully double checked in Vienna.                                |
|      GW as well as linear response parallelism added by Martijn Marsman     |
|      and Georg Kresse.                                                      |
|      Carefully verify results versus KPAR=1.                                |
|      Report problems to Paul Kent and Vienna.                               |
|                                                                             |
 ----------------------------------------------------------------------------- 

 POTCAR:    PAW_PBE Cu_pv 06Sep2000               
   VRHFIN =Cu: d10 p1                                                           
   LEXCH  = PE                                                                  
   EATOM  =  4120.1201 eV,  302.8203 Ry                                         
                                                                                
   TITEL  = PAW_PBE Cu_pv 06Sep2000                                             
   LULTRA =        F    use ultrasoft PP ?                                      
   IUNSCR =        1    unscreen: 0-lin 1-nonlin 2-no                           
   RPACOR =    1.500    partial core radius                                     
   POMASS =   63.546; ZVAL   =   17.000    mass and valenz                      
   RCORE  =    2.000    outmost cutoff radius                                   
   RWIGS  =    2.000; RWIGS  =    1.058    wigner-seitz radius (au A)           
   ENMAX  =  368.648; ENMIN  =  276.486 eV                                      
   RCLOC  =    1.304    cutoff for local pot                                    
   LCOR   =        T    correct aug charges                                     
   LPAW   =        T    paw PP                                                  
   EAUG   =  758.233                                                            
   DEXC   =    0.000                                                            
   RMAX   =    2.046    core radius for proj-oper                               
   RAUG   =    1.300    factor for augmentation sphere                          
   RDEP   =    2.025    radius for radial grids                                 
   RDEPT  =    1.558    core radius for aug-charge                              
                                                                                
   Atomic configuration                                                         
    8 entries                                                                   
     n  l   j            E        occ.                                          
     1  0  0.50     -8850.2467   2.0000                                         
     2  0  0.50     -1062.3498   2.0000                                         
     2  1  1.50      -916.8226   6.0000                                         
     3  0  0.50      -114.6929   2.0000                                         
     3  1  1.50       -72.1325   6.0000                                         
     3  2  2.50        -5.0394  10.0000                                         
     4  0  0.50        -4.6097   1.0000                                         
     4  3  2.50        -1.3606   0.0000                                         
   Description                                                                  
     l       E           TYP  RCUT    TYP  RCUT                                 
     1    -72.1324777     23  1.700                                             
     1     -1.3605826     23  1.700                                             
     2     -5.0393776     23  2.000                                             
     2     -6.3999602     23  2.000                                             
     0     -4.6097062     23  1.800                                             
     0     14.1620818     23  1.800                                             
  local pseudopotential read in
  partial core-charges read in
  partial kinetic energy density read in
  atomic valenz-charges read in
  non local Contribution for L=           1  read in
    real space projection operators read in
  non local Contribution for L=           1  read in
    real space projection operators read in
  non local Contribution for L=           2  read in
    real space projection operators read in
  non local Contribution for L=           2  read in
    real space projection operators read in
  non local Contribution for L=           0  read in
    real space projection operators read in
  non local Contribution for L=           0  read in
    real space projection operators read in
    PAW grid and wavefunctions read in
 
   number of l-projection  operators is LMAX  =           6
   number of lm-projection operators is LMMAX =          18
 
 POTCAR:    PAW_PBE Ge 05Jan2001                  
   VRHFIN =Ge: s2p2                                                             
   LEXCH  = PE                                                                  
   EATOM  =   104.9960 eV,    7.7170 Ry                                         
                                                                                
   TITEL  = PAW_PBE Ge 05Jan2001                                                
   LULTRA =        F    use ultrasoft PP ?                                      
   IUNSCR =        1    unscreen: 0-lin 1-nonlin 2-no                           
   RPACOR =    2.170    partial core radius                                     
   POMASS =   72.610; ZVAL   =    4.000    mass and valenz                      
   RCORE  =    2.300    outmost cutoff radius                                   
   RWIGS  =    2.300; RWIGS  =    1.217    wigner-seitz radius (au A)           
   ENMAX  =  173.807; ENMIN  =  130.355 eV                                      
   ICORE  =        3    local potential                                         
   LCOR   =        T    correct aug charges                                     
   LPAW   =        T    paw PP                                                  
   EAUG   =  385.843                                                            
   DEXC   =    0.000                                                            
   RMAX   =    2.342    core radius for proj-oper                               
   RAUG   =    1.300    factor for augmentation sphere                          
   RDEP   =    2.318    radius for radial grids                                 
   RDEPT  =    2.103    core radius for aug-charge                              
                                                                                
   Atomic configuration                                                         
   10 entries                                                                   
     n  l   j            E        occ.                                          
     1  0  0.50    -10959.8463   2.0000                                         
     2  0  0.50     -1371.6056   2.0000                                         
     2  1  1.50     -1198.4791   6.0000                                         
     3  0  0.50      -168.4733   2.0000                                         
     3  1  1.50      -115.6019   6.0000                                         
     3  2  2.50       -29.3106  10.0000                                         
     4  0  0.50       -11.7309   2.0000                                         
     4  1  0.50        -3.8952   2.0000                                         
     4  2  1.50        -4.0817   0.0000                                         
     4  3  2.50        -4.0817   0.0000                                         
   Description                                                                  
     l       E           TYP  RCUT    TYP  RCUT                                 
     0    -11.7309493     23  2.300                                             
     0     -7.4578696     23  2.300                                             
     1     -3.8952261     23  2.300                                             
     1      6.1178114     23  2.300                                             
     2     -4.0817478     23  2.300                                             
     3     -1.3605826      7  2.300                                             
  local pseudopotential read in
  partial core-charges read in
  partial kinetic energy density read in
  atomic valenz-charges read in
  non local Contribution for L=           0  read in
    real space projection operators read in
  non local Contribution for L=           0  read in
    real space projection operators read in
  non local Contribution for L=           1  read in
    real space projection operators read in
  non local Contribution for L=           1  read in
    real space projection operators read in
  non local Contribution for L=           2  read in
    real space projection operators read in
    PAW grid and wavefunctions read in
 
   number of l-projection  operators is LMAX  =           5
   number of lm-projection operators is LMMAX =          13
 
 POTCAR:    PAW_PBE S 17Jan2003                   
   VRHFIN =S : s2p4                                                             
   LEXCH  = PE                                                                  
   EATOM  =   276.8230 eV,   20.3459 Ry                                         
                                                                                
   TITEL  = PAW_PBE S 17Jan2003                                                 
   LULTRA =        F    use ultrasoft PP ?                                      
   IUNSCR =        1    unscreen: 0-lin 1-nonlin 2-no                           
   RPACOR =    1.500    partial core radius                                     
   POMASS =   32.066; ZVAL   =    6.000    mass and valenz                      
   RCORE  =    1.900    outmost cutoff radius                                   
   RWIGS  =    2.200; RWIGS  =    1.164    wigner-seitz radius (au A)           
   ENMAX  =  280.000; ENMIN  =  194.016 eV                                      
   ICORE  =        2    local potential                                         
   LCOR   =        T    correct aug charges                                     
   LPAW   =        T    paw PP                                                  
   EAUG   =  335.092                                                            
   DEXC   =     .000                                                            
   RMAX   =    2.867    core radius for proj-oper                               
   RAUG   =    1.300    factor for augmentation sphere                          
   RDEP   =    1.954    radius for radial grids                                 
   QCUT   =   -4.360; QGAM   =    8.721    optimization parameters              
                                                                                
   Description                                                                  
     l     E      TYP  RCUT    TYP  RCUT                                        
     0   .000     23  1.900                                                     
     0   .000     23  1.900                                                     
     1   .000     23  1.900                                                     
     1   .000     23  1.900                                                     
     2   .000     23  1.900                                                     
  local pseudopotential read in
  partial core-charges read in
  atomic valenz-charges read in
  non local Contribution for L=           0  read in
    real space projection operators read in
  non local Contribution for L=           0  read in
    real space projection operators read in
  non local Contribution for L=           1  read in
    real space projection operators read in
  non local Contribution for L=           1  read in
    real space projection operators read in
    PAW grid and wavefunctions read in
 
   number of l-projection  operators is LMAX  =           4
   number of lm-projection operators is LMMAX =           8
 
  PAW_PBE Cu_pv 06Sep2000               :
 energy of atom  1       EATOM=-4120.1201
 kinetic energy error for atom=    0.0996 (will be added to EATOM!!)
  PAW_PBE Ge 05Jan2001                  :
 energy of atom  2       EATOM= -104.9960
 kinetic energy error for atom=    0.0003 (will be added to EATOM!!)
  PAW_PBE S 17Jan2003                   :
 energy of atom  3       EATOM= -276.8230
 kinetic energy error for atom=    0.0046 (will be added to EATOM!!)
 
 
 POSCAR: Cu Ge S                                 
  positions in direct lattice
  No initial velocities read in
 exchange correlation table for  LEXCH =        8
   RHO(1)=    0.500       N(1)  =     2000
   RHO(2)=  100.500       N(2)  =     4000
 


--------------------------------------------------------------------------------------------------------


 ion  position               nearest neighbor table
   1  0.618  0.121  0.120-   9 2.29  11 2.29  12 2.30   8 2.35
   2  0.121  0.618  0.620-  12 2.29   7 2.29   9 2.30  10 2.35
   3  0.963  0.790  0.119-  11 2.30  12 2.30   7 2.31   8 2.36
   4  0.790  0.963  0.619-   7 2.30   9 2.30  11 2.31  10 2.36
   5  0.440  0.267  0.597-   9 2.19   7 2.19  10 2.30   8 2.34
   6  0.267  0.440  0.099-  11 2.19  12 2.19   8 2.31  10 2.33
   7  0.079  0.912  0.497-   5 2.19   2 2.29   4 2.30   3 2.31
   8  0.571  0.412  0.980-   6 2.31   5 2.34   1 2.35   3 2.36
   9  0.737  0.250  0.495-   5 2.19   1 2.29   4 2.30   2 2.30
  10  0.412  0.571  0.480-   5 2.30   6 2.33   2 2.35   4 2.36
  11  0.912  0.079  0.997-   6 2.19   1 2.29   3 2.30   4 2.31
  12  0.250  0.737  0.995-   6 2.19   2 2.29   3 2.30   1 2.30
 
  Warning from LATTYP: Got some problem with cell dimensions!
  Tried to take original basis but could not verify dimensions!
  LATTYP: Found a base centered monoclinic cell.
 ALAT       =     6.4499010947
 B/A-ratio  =     1.7500516418
 C/A-ratio  =     1.9305142024
 COS(beta)  =    -0.4326083233
  
  Lattice vectors:
  
 A1 = (   3.2247960000,   5.6438300000,   0.0315720000)
 A2 = (   3.2247960000,  -5.6438300000,   0.0315720000)
 A3 = ( -10.7972380000,   0.0000000000,  -6.2018250000)


Analysis of symmetry for initial positions (statically):
=====================================================================
 Subroutine PRICEL returns:
 Original cell was already a primitive cell.
 

 Routine SETGRP: Setting up the symmetry group for a 
 base centered monoclinic supercell.


 Subroutine GETGRP returns: Found  1 space group operations
 (whereof  1 operations were pure point group operations)
 out of a pool of  4 trial point group operations.


The static configuration has the point symmetry C_1 .


Analysis of symmetry for dynamics (positions and initial velocities):
=====================================================================
 Subroutine PRICEL returns:
 Original cell was already a primitive cell.
 

 Routine SETGRP: Setting up the symmetry group for a 
 base centered monoclinic supercell.


 Subroutine GETGRP returns: Found  1 space group operations
 (whereof  1 operations were pure point group operations)
 out of a pool of  4 trial point group operations.


The dynamic configuration has the point symmetry C_1 .


 irot  :   1
 --------------------------------------------------------------------
 isymop:   1   0   0
           0   1   0
           0   0   1

 gtrans:     0.0000000     0.0000000     0.0000000

 ptrans:     0.0000000     0.0000000     0.0000000
 rotmap:
 (   1->   1)  (   2->   2)  (   3->   3)  (   4->   4)  (   5->   5) 
 (   6->   6)  (   7->   7)  (   8->   8)  (   9->   9)  (  10->  10) 
 (  11->  11)  (  12->  12) 
 
 
 KPOINTS: pymatgen 4.7.6+ generated KPOINTS with g

Automatic generation of k-mesh.
Space group operators:
 irot       det(A)        alpha          n_x          n_y          n_z        tau_x        tau_y        tau_z
    1     1.000000     0.000000     1.000000     0.000000     0.000000     0.000000     0.000000     0.000000
 
 Subroutine IBZKPT returns following result:
 ===========================================
 
 Found     42 irreducible k-points:
 
 Following reciprocal coordinates:
            Coordinates               Weight
  0.000000  0.000000  0.000000      1.000000
  0.250000  0.000000  0.000000      2.000000
  0.500000  0.000000  0.000000      1.000000
  0.000000  0.250000  0.000000      2.000000
  0.250000  0.250000  0.000000      2.000000
  0.500000  0.250000 -0.000000      2.000000
 -0.250000  0.250000  0.000000      2.000000
  0.000000  0.500000  0.000000      1.000000
  0.250000  0.500000 -0.000000      2.000000
  0.500000  0.500000  0.000000      1.000000
 -0.000000 -0.000000  0.200000      2.000000
  0.250000  0.000000  0.200000      2.000000
  0.500000  0.000000  0.200000      2.000000
 -0.250000 -0.000000  0.200000      2.000000
  0.000000  0.250000  0.200000      2.000000
  0.250000  0.250000  0.200000      2.000000
  0.500000  0.250000  0.200000      2.000000
 -0.250000  0.250000  0.200000      2.000000
  0.000000  0.500000  0.200000      2.000000
  0.250000  0.500000  0.200000      2.000000
  0.500000  0.500000  0.200000      2.000000
 -0.250000  0.500000  0.200000      2.000000
 -0.000000 -0.250000  0.200000      2.000000
  0.250000 -0.250000  0.200000      2.000000
  0.500000 -0.250000  0.200000      2.000000
 -0.250000 -0.250000  0.200000      2.000000
 -0.000000 -0.000000  0.400000      2.000000
  0.250000  0.000000  0.400000      2.000000
  0.500000  0.000000  0.400000      2.000000
 -0.250000  0.000000  0.400000      2.000000
  0.000000  0.250000  0.400000      2.000000
  0.250000  0.250000  0.400000      2.000000
  0.500000  0.250000  0.400000      2.000000
 -0.250000  0.250000  0.400000      2.000000
  0.000000  0.500000  0.400000      2.000000
  0.250000  0.500000  0.400000      2.000000
  0.500000  0.500000  0.400000      2.000000
 -0.250000  0.500000  0.400000      2.000000
  0.000000 -0.250000  0.400000      2.000000
  0.250000 -0.250000  0.400000      2.000000
  0.500000 -0.250000  0.400000      2.000000
 -0.250000 -0.250000  0.400000      2.000000
 
 Following cartesian coordinates:
            Coordinates               Weight
  0.000000  0.000000  0.000000      1.000000
  0.038631 -0.022148  0.013365      2.000000
  0.077263 -0.044296  0.026730      1.000000
  0.038631  0.022148  0.013365      2.000000
  0.077263  0.000000  0.026730      2.000000
  0.115894 -0.022148  0.040096      2.000000
  0.000000  0.044296  0.000000      2.000000
  0.077263  0.044296  0.026730      1.000000
  0.115894  0.022148  0.040096      2.000000
  0.154525  0.000000  0.053461      1.000000
 -0.000321  0.000000  0.032808      2.000000
  0.038310 -0.022148  0.046173      2.000000
  0.076941 -0.044296  0.059538      2.000000
 -0.038952  0.022148  0.019443      2.000000
  0.038310  0.022148  0.046173      2.000000
  0.076941  0.000000  0.059538      2.000000
  0.115573 -0.022148  0.072903      2.000000
 -0.000321  0.044296  0.032808      2.000000
  0.076941  0.044296  0.059538      2.000000
  0.115573  0.022148  0.072903      2.000000
  0.154204  0.000000  0.086269      2.000000
  0.038310  0.066444  0.046173      2.000000
 -0.038952 -0.022148  0.019443      2.000000
 -0.000321 -0.044296  0.032808      2.000000
  0.038310 -0.066444  0.046173      2.000000
 -0.077584  0.000000  0.006077      2.000000
 -0.000642  0.000000  0.065616      2.000000
  0.037989 -0.022148  0.078981      2.000000
  0.076620 -0.044296  0.092346      2.000000
 -0.039274  0.022148  0.052250      2.000000
  0.037989  0.022148  0.078981      2.000000
  0.076620  0.000000  0.092346      2.000000
  0.115251 -0.022148  0.105711      2.000000
 -0.000642  0.044296  0.065616      2.000000
  0.076620  0.044296  0.092346      2.000000
  0.115251  0.022148  0.105711      2.000000
  0.153883  0.000000  0.119076      2.000000
  0.037989  0.066444  0.078981      2.000000
 -0.039274 -0.022148  0.052250      2.000000
 -0.000642 -0.044296  0.065616      2.000000
  0.037989 -0.066444  0.078981      2.000000
 -0.077905  0.000000  0.038885      2.000000
 
 
 Subroutine IBZKPT_HF returns following result:
 ==============================================
 
 Found     80 k-points in 1st BZ
 the following     80 k-points will be used (e.g. in the exchange kernel)
 Following reciprocal coordinates:   # in IRBZ
  0.000000  0.000000  0.000000       1 t-inv F
  0.250000  0.000000  0.000000       2 t-inv F
  0.500000  0.000000  0.000000       3 t-inv F
  0.000000  0.250000  0.000000       4 t-inv F
  0.250000  0.250000  0.000000       5 t-inv F
  0.500000  0.250000 -0.000000       6 t-inv F
 -0.250000  0.250000  0.000000       7 t-inv F
  0.000000  0.500000  0.000000       8 t-inv F
  0.250000  0.500000 -0.000000       9 t-inv F
  0.500000  0.500000  0.000000      10 t-inv F
 -0.000000 -0.000000  0.200000      11 t-inv F
  0.250000  0.000000  0.200000      12 t-inv F
  0.500000  0.000000  0.200000      13 t-inv F
 -0.250000 -0.000000  0.200000      14 t-inv F
  0.000000  0.250000  0.200000      15 t-inv F
  0.250000  0.250000  0.200000      16 t-inv F
  0.500000  0.250000  0.200000      17 t-inv F
 -0.250000  0.250000  0.200000      18 t-inv F
  0.000000  0.500000  0.200000      19 t-inv F
  0.250000  0.500000  0.200000      20 t-inv F
  0.500000  0.500000  0.200000      21 t-inv F
 -0.250000  0.500000  0.200000      22 t-inv F
 -0.000000 -0.250000  0.200000      23 t-inv F
  0.250000 -0.250000  0.200000      24 t-inv F
  0.500000 -0.250000  0.200000      25 t-inv F
 -0.250000 -0.250000  0.200000      26 t-inv F
 -0.000000 -0.000000  0.400000      27 t-inv F
  0.250000  0.000000  0.400000      28 t-inv F
  0.500000  0.000000  0.400000      29 t-inv F
 -0.250000  0.000000  0.400000      30 t-inv F
  0.000000  0.250000  0.400000      31 t-inv F
  0.250000  0.250000  0.400000      32 t-inv F
  0.500000  0.250000  0.400000      33 t-inv F
 -0.250000  0.250000  0.400000      34 t-inv F
  0.000000  0.500000  0.400000      35 t-inv F
  0.250000  0.500000  0.400000      36 t-inv F
  0.500000  0.500000  0.400000      37 t-inv F
 -0.250000  0.500000  0.400000      38 t-inv F
  0.000000 -0.250000  0.400000      39 t-inv F
  0.250000 -0.250000  0.400000      40 t-inv F
  0.500000 -0.250000  0.400000      41 t-inv F
 -0.250000 -0.250000  0.400000      42 t-inv F
 -0.250000 -0.000000 -0.000000       2 t-inv T
 -0.000000 -0.250000 -0.000000       4 t-inv T
 -0.250000 -0.250000  0.000000       5 t-inv T
 -0.500000 -0.250000  0.000000       6 t-inv T
  0.250000 -0.250000  0.000000       7 t-inv T
 -0.250000 -0.500000  0.000000       9 t-inv T
  0.000000  0.000000 -0.200000      11 t-inv T
 -0.250000 -0.000000 -0.200000      12 t-inv T
 -0.500000 -0.000000 -0.200000      13 t-inv T
  0.250000  0.000000 -0.200000      14 t-inv T
 -0.000000 -0.250000 -0.200000      15 t-inv T
 -0.250000 -0.250000 -0.200000      16 t-inv T
 -0.500000 -0.250000 -0.200000      17 t-inv T
  0.250000 -0.250000 -0.200000      18 t-inv T
 -0.000000 -0.500000 -0.200000      19 t-inv T
 -0.250000 -0.500000 -0.200000      20 t-inv T
 -0.500000 -0.500000 -0.200000      21 t-inv T
  0.250000 -0.500000 -0.200000      22 t-inv T
  0.000000  0.250000 -0.200000      23 t-inv T
 -0.250000  0.250000 -0.200000      24 t-inv T
 -0.500000  0.250000 -0.200000      25 t-inv T
  0.250000  0.250000 -0.200000      26 t-inv T
  0.000000  0.000000 -0.400000      27 t-inv T
 -0.250000 -0.000000 -0.400000      28 t-inv T
 -0.500000 -0.000000 -0.400000      29 t-inv T
  0.250000 -0.000000 -0.400000      30 t-inv T
 -0.000000 -0.250000 -0.400000      31 t-inv T
 -0.250000 -0.250000 -0.400000      32 t-inv T
 -0.500000 -0.250000 -0.400000      33 t-inv T
  0.250000 -0.250000 -0.400000      34 t-inv T
 -0.000000 -0.500000 -0.400000      35 t-inv T
 -0.250000 -0.500000 -0.400000      36 t-inv T
 -0.500000 -0.500000 -0.400000      37 t-inv T
  0.250000 -0.500000 -0.400000      38 t-inv T
 -0.000000  0.250000 -0.400000      39 t-inv T
 -0.250000  0.250000 -0.400000      40 t-inv T
 -0.500000  0.250000 -0.400000      41 t-inv T
  0.250000  0.250000 -0.400000      42 t-inv T


--------------------------------------------------------------------------------------------------------




 Dimension of arrays:
   k-points           NKPTS =     42   k-points in BZ     NKDIM =     80   number of bands    NBANDS=     80
   number of dos      NEDOS =    301   number of ions     NIONS =     12
   non local maximal  LDIM  =      6   non local SUM 2l+1 LMDIM =     18
   total plane-waves  NPLWV =  32768
   max r-space proj   IRMAX =      1   max aug-charges    IRDMAX=   8224
   dimension x,y,z NGX =    32 NGY =   32 NGZ =   32
   dimension x,y,z NGXF=    64 NGYF=   64 NGZF=   64
   support grid    NGXF=    64 NGYF=   64 NGZF=   64
   ions per type =               4   2   6
 NGX,Y,Z   is equivalent  to a cutoff of   8.18,  8.18,  8.27 a.u.
 NGXF,Y,Z  is equivalent  to a cutoff of  16.37, 16.37, 16.55 a.u.


 I would recommend the setting:
   dimension x,y,z NGX =    32 NGY =   32 NGZ =   31
 SYSTEM =  CGS                                     
 POSCAR =  Cu Ge S                                 

 Startparameter for this run:
   NWRITE =      2    write-flag & timer
   PREC   = normal    normal or accurate (medium, high low for compatibility)
   ISTART =      1    job   : 0-new  1-cont  2-samecut
   ICHARG =      0    charge: 1-file 2-atom 10-const
   ISPIN  =      1    spin polarized calculation?
   LNONCOLLINEAR =      F non collinear calculations
   LSORBIT =      F    spin-orbit coupling
   INIWAV =      1    electr: 0-lowe 1-rand  2-diag
   LASPH  =      F    aspherical Exc in radial PAW
   METAGGA=      F    non-selfconsistent MetaGGA calc.

 Electronic Relaxation 1
   ENCUT  =  400.0 eV  29.40 Ry    5.42 a.u.  10.60 10.60 10.48*2*pi/ulx,y,z
   ENINI  =  400.0     initial cutoff
   ENAUG  =  758.2 eV  augmentation charge cutoff
   NELM   =     60;   NELMIN=  2; NELMDL=  0     # of ELM steps 
   EDIFF  = 0.1E-04   stopping-criterion for ELM
   LREAL  =      F    real-space projection
   NLSPLINE    = F    spline interpolate recip. space projectors
   LCOMPAT=      F    compatible to vasp.4.4
   GGA_COMPAT  = T    GGA compatible to vasp.4.4-vasp.4.6
   LMAXPAW     = -100 max onsite density
   LMAXMIX     =    2 max onsite mixed and CHGCAR
   VOSKOWN=      0    Vosko Wilk Nusair interpolation
   ROPT   =    0.00000   0.00000   0.00000
 Ionic relaxation
   EDIFFG = 0.1E-03   stopping-criterion for IOM
   NSW    =      0    number of steps for IOM
   NBLOCK =      1;   KBLOCK =      1    inner block; outer block 
   IBRION =     -1    ionic relax: 0-MD 1-quasi-New 2-CG
   NFREE  =      0    steps in history (QN), initial steepest desc. (CG)
   ISIF   =      0    stress and relaxation
   IWAVPR =     10    prediction:  0-non 1-charg 2-wave 3-comb
   ISYM   =      3    0-nonsym 1-usesym 2-fastsym
   LCORR  =      T    Harris-Foulkes like correction to forces

   POTIM  = 0.5000    time-step for ionic-motion
   TEIN   =    0.0    initial temperature
   TEBEG  =    0.0;   TEEND  =   0.0 temperature during run
   SMASS  =  -3.00    Nose mass-parameter (am)
   estimated Nose-frequenzy (Omega)   =  0.10E-29 period in steps =****** mass=  -0.966E-27a.u.
   SCALEE = 1.0000    scale energy and forces
   NPACO  =    256;   APACO  = 16.0  distance and # of slots for P.C.
   PSTRESS=    0.0 pullay stress

  Mass of Ions in am
   POMASS =  63.55 72.61 32.07
  Ionic Valenz
   ZVAL   =  17.00  4.00  6.00
  Atomic Wigner-Seitz radii
   RWIGS  =  -1.00 -1.00 -1.00
  virtual crystal weights 
   VCA    =   1.00  1.00  1.00
   NELECT =     112.0000    total number of electrons
   NUPDOWN=      -1.0000    fix difference up-down

 DOS related values:
   EMIN   =  10.00;   EMAX   =-10.00  energy-range for DOS
   EFERMI =   0.00
   ISMEAR =     1;   SIGMA  =   0.10  broadening in eV -4-tet -1-fermi 0-gaus

 Electronic relaxation 2 (details)
   IALGO  =     53    algorithm
   LDIAG  =      T    sub-space diagonalisation (order eigenvalues)
   LSUBROT=      T    optimize rotation matrix (better conditioning)
   TURBO    =      0    0=normal 1=particle mesh
   IRESTART =      0    0=no restart 2=restart with 2 vectors
   NREBOOT  =      0    no. of reboots
   NMIN     =      0    reboot dimension
   EREF     =   0.00    reference energy to select bands
   IMIX   =      4    mixing-type and parameters
     AMIX     =   0.40;   BMIX     =  1.00
     AMIX_MAG =   1.60;   BMIX_MAG =  1.00
     AMIN     =   0.10
     WC   =   100.;   INIMIX=   1;  MIXPRE=   1;  MAXMIX= -45

 Intra band minimization:
   WEIMIN = 0.0000     energy-eigenvalue tresh-hold
   EBREAK =  0.31E-07  absolut break condition
   DEPER  =   0.30     relativ break condition  

   TIME   =   0.40     timestep for ELM

  volume/ion in A,a.u.               =      18.49       124.79
  Fermi-wavevector in a.u.,A,eV,Ry     =   1.303450  2.463163 23.116052  1.698982
  Thomas-Fermi vector in A             =   2.434451
 
 Write flags
   LWAVE  =      T    write WAVECAR
   LCHARG =      T    write CHGCAR
   LVTOT  =      F    write LOCPOT, total local potential
   LVHAR  =      F    write LOCPOT, Hartree potential only
   LELF   =      F    write electronic localiz. function (ELF)
   LORBIT =      0    0 simple, 1 ext, 2 COOP (PROOUT)


 Dipole corrections
   LMONO  =      F    monopole corrections only (constant potential shift)
   LDIPOL =      F    correct potential (dipole corrections)
   IDIPOL =      0    1-x, 2-y, 3-z, 4-all directions 
   EPSILON=  1.0000000 bulk dielectric constant

 Exchange correlation treatment:
   GGA     =    PE    GGA type
   LEXCH   =     8    internal setting for exchange type
   VOSKOWN=      0    Vosko Wilk Nusair interpolation
   EXXOEP  =     0    0=HF, 1=EXX-LHF (local Hartree Fock) 2=EXX OEP
   LHFCALC =     T    Hartree Fock is set to
   LSYMGRAD=     F    symmetrize gradient (conserves proper symmetry)
   PRECFOCK=fast      Normal, Fast or Accurate (Low or Medium for compatibility)
   LRHFCALC=     F    long range Hartree Fock
   LRSCOR  =     F    long range correlation only (use DFT for short range part)
   LTHOMAS =     F    Thomas Fermi screening in HF
   LMODELHF=     F    short range full HF, long range fraction AEXX
   ENCUT4O =  -1.0   cutoff for four orbital integrals eV
   LMAXFOCK=     4    L truncation for augmentation on plane wave grid
   LMAXFOCKAE=  -1    L truncation for all-electron charge restoration on plane wave grid
   NMAXFOCKAE=   1    number of basis functions for all-electron charge restoration
   LFOCKAEDFT=     F  apply the AE augmentation even for DFT
   NKREDX  =     1    reduce k-point grid by
   NKREDY  =     1    reduce k-point grid by
   NKREDZ  =     1    reduce k-point grid by
   SHIFTRED=     F    shift reduced grid of Gamma
   HFKIDENT=     F    idential grid for each k-point
   ODDONLY =     F    use only odd q-grid points
   EVENONLY=     F    use only even q-grid points
   HFALPHA =   -1.0000 decay constant for conv. correction
   MCALPHA =    0.0000 extent of test-charge in conv. correction in multipole expansion
   AEXX    =    0.2500 exact exchange contribution
   HFSCREEN=    0.2000 screening length (either q_TF or 0.3 A-1)
   HFSCREENC=   0.2000 screening length for correlation (either q_TF or 0.3 A-1)
   HFRCUT  =    0.0000 spherical cutoff for potential kernel
   ALDAX   =    0.7500 LDA exchange part
   AGGAX   =    0.7500 GGA exchange part
   ALDAC   =    1.0000 LDA correlation
   AGGAC   =    1.0000 GGA correlation
   NBANDSGWLOW=     1    first orbital included in HF term
 Linear response parameters
   LEPSILON=     F    determine dielectric tensor
   LRPA    =     F    only Hartree local field effects (RPA)
   LNABLA  =     F    use nabla operator in PAW spheres
   LVEL    =     F    velocity operator in full k-point grid
   LINTERFAST=   F  fast interpolation
   KINTER  =     0    interpolate to denser k-point grid
   CSHIFT  =0.1000    complex shift for real part using Kramers Kronig
   OMEGAMAX=  -1.0    maximum frequency
   DEG_THRESHOLD= 0.2000000E-02 threshold for treating states as degnerate
   RTIME   =    0.100 relaxation time in fs

 Orbital magnetization related:
   ORBITALMAG=     F  switch on orbital magnetization
   LCHIMAG   =     F  perturbation theory with respect to B field
   DQ        =  0.001000  dq finite difference perturbation B field



--------------------------------------------------------------------------------------------------------


 Static calculation
 charge density and potential will be updated during run
 non-spin polarized calculation
 Conjugate gradient for all bands, subspace preconditioning
 perform sub-space diagonalisation
    before iterative eigenvector-optimisation
 modified Broyden-mixing scheme, WC =      100.0
 initial mixing is a Kerker type mixing with AMIX =  0.4000 and BMIX =      1.0000
 Hartree-type preconditioning will be used
 using additional bands           24
 reciprocal scheme for non local part
 use partial core corrections
 no Harris-corrections to forces 
 use gradient corrections 
 use of overlap-Matrix (Vanderbilt PP)
 Methfessel and Paxton  Order N= 1 SIGMA  =   0.10


--------------------------------------------------------------------------------------------------------


  energy-cutoff  :      400.00
  volume of cell :      221.90
      direct lattice vectors                 reciprocal lattice vectors
     3.224796000 -5.643830000  0.031572000     0.154525165 -0.088592321  0.053460880
     3.224796000  5.643830000  0.031572000     0.154525165  0.088592321  0.053460880
    -2.101946000  0.000000000  6.075537000    -0.001606004  0.000000000  0.164038877

  length of vectors
     6.500240234  6.500240234  6.428866683     0.185969598  0.185969598  0.164046738


 
 old parameters found on file WAVECAR:
  energy-cutoff  :      400.00
  volume of cell :      222.35
      direct lattice vectors                 reciprocal lattice vectors
     3.227235519 -5.642745207  0.030241751     0.154430495 -0.088609353  0.053450002
     3.227235519  5.642745207  0.030241751     0.154430495  0.088609353  0.053450002
    -2.106135241  0.000000000  6.085154262    -0.001534965  0.000000000  0.163803104

  length of vectors

 
 k-points in units of 2pi/SCALE and weight: pymatgen 4.7.6+ generated KPOINTS with g
   0.00000000  0.00000000  0.00000000       0.013
   0.03863129 -0.02214808  0.01336522       0.025
   0.07726258 -0.04429616  0.02673044       0.013
   0.03863129  0.02214808  0.01336522       0.025
   0.07726258  0.00000000  0.02673044       0.025
   0.11589387 -0.02214808  0.04009566       0.025
   0.00000000  0.04429616  0.00000000       0.025
   0.07726258  0.04429616  0.02673044       0.013
   0.11589387  0.02214808  0.04009566       0.025
   0.15452516  0.00000000  0.05346088       0.013
  -0.00032120  0.00000000  0.03280778       0.025
   0.03831009 -0.02214808  0.04617300       0.025
   0.07694138 -0.04429616  0.05953822       0.025
  -0.03895249  0.02214808  0.01944256       0.025
   0.03831009  0.02214808  0.04617300       0.025
   0.07694138  0.00000000  0.05953822       0.025
   0.11557267 -0.02214808  0.07290344       0.025
  -0.00032120  0.04429616  0.03280778       0.025
   0.07694138  0.04429616  0.05953822       0.025
   0.11557267  0.02214808  0.07290344       0.025
   0.15420396  0.00000000  0.08626865       0.025
   0.03831009  0.06644424  0.04617300       0.025
  -0.03895249 -0.02214808  0.01944256       0.025
  -0.00032120 -0.04429616  0.03280778       0.025
   0.03831009 -0.06644424  0.04617300       0.025
  -0.07758378  0.00000000  0.00607734       0.025
  -0.00064240  0.00000000  0.06561555       0.025
   0.03798889 -0.02214808  0.07898077       0.025
   0.07662018 -0.04429616  0.09234599       0.025
  -0.03927369  0.02214808  0.05225033       0.025
   0.03798889  0.02214808  0.07898077       0.025
   0.07662018  0.00000000  0.09234599       0.025
   0.11525147 -0.02214808  0.10571121       0.025
  -0.00064240  0.04429616  0.06561555       0.025
   0.07662018  0.04429616  0.09234599       0.025
   0.11525147  0.02214808  0.10571121       0.025
   0.15388276  0.00000000  0.11907643       0.025
   0.03798889  0.06644424  0.07898077       0.025
  -0.03927369 -0.02214808  0.05225033       0.025
  -0.00064240 -0.04429616  0.06561555       0.025
   0.03798889 -0.06644424  0.07898077       0.025
  -0.07790498  0.00000000  0.03888511       0.025
 
 k-points in reciprocal lattice and weights: pymatgen 4.7.6+ generated KPOINTS with g
   0.00000000  0.00000000  0.00000000       0.013
   0.25000000  0.00000000  0.00000000       0.025
   0.50000000  0.00000000  0.00000000       0.013
   0.00000000  0.25000000  0.00000000       0.025
   0.25000000  0.25000000  0.00000000       0.025
   0.50000000  0.25000000 -0.00000000       0.025
  -0.25000000  0.25000000  0.00000000       0.025
   0.00000000  0.50000000  0.00000000       0.013
   0.25000000  0.50000000 -0.00000000       0.025
   0.50000000  0.50000000  0.00000000       0.013
  -0.00000000 -0.00000000  0.20000000       0.025
   0.25000000  0.00000000  0.20000000       0.025
   0.50000000  0.00000000  0.20000000       0.025
  -0.25000000 -0.00000000  0.20000000       0.025
   0.00000000  0.25000000  0.20000000       0.025
   0.25000000  0.25000000  0.20000000       0.025
   0.50000000  0.25000000  0.20000000       0.025
  -0.25000000  0.25000000  0.20000000       0.025
   0.00000000  0.50000000  0.20000000       0.025
   0.25000000  0.50000000  0.20000000       0.025
   0.50000000  0.50000000  0.20000000       0.025
  -0.25000000  0.50000000  0.20000000       0.025
  -0.00000000 -0.25000000  0.20000000       0.025
   0.25000000 -0.25000000  0.20000000       0.025
   0.50000000 -0.25000000  0.20000000       0.025
  -0.25000000 -0.25000000  0.20000000       0.025
  -0.00000000 -0.00000000  0.40000000       0.025
   0.25000000  0.00000000  0.40000000       0.025
   0.50000000  0.00000000  0.40000000       0.025
  -0.25000000  0.00000000  0.40000000       0.025
   0.00000000  0.25000000  0.40000000       0.025
   0.25000000  0.25000000  0.40000000       0.025
   0.50000000  0.25000000  0.40000000       0.025
  -0.25000000  0.25000000  0.40000000       0.025
   0.00000000  0.50000000  0.40000000       0.025
   0.25000000  0.50000000  0.40000000       0.025
   0.50000000  0.50000000  0.40000000       0.025
  -0.25000000  0.50000000  0.40000000       0.025
   0.00000000 -0.25000000  0.40000000       0.025
   0.25000000 -0.25000000  0.40000000       0.025
   0.50000000 -0.25000000  0.40000000       0.025
  -0.25000000 -0.25000000  0.40000000       0.025
 
 position of ions in fractional coordinates (direct lattice) 
   0.61844300  0.12117100  0.11953300
   0.12117100  0.61844300  0.61953300
   0.96295700  0.79032200  0.11881300
   0.79032200  0.96295700  0.61881300
   0.43973200  0.26728100  0.59749152
   0.26728100  0.43973200  0.09904700
   0.07949800  0.91167500  0.49736300
   0.57140300  0.41236400  0.98018400
   0.73711100  0.25006200  0.49504900
   0.41236400  0.57140300  0.48018400
   0.91167500  0.07949800  0.99736300
   0.25006200  0.73711100  0.99504900
 
 position of ions in cartesian coordinates  (Angst):
   2.13385236 -2.80651863  0.74957826
   1.08287936  2.80651863  3.78734676
   5.40422860 -0.97432259  0.77720730
   4.35325560  0.97432259  3.81497580
   1.02407779 -0.97328413  3.65240363
   2.07178125  0.97328413  0.62408553
   2.15090056  4.69666552  3.05304062
   1.11215405 -0.89758908  5.98620365
   2.14286528 -2.74882176  3.03885554
   2.16312705  0.89758908  2.94843515
   1.09992756 -4.69666552  6.09080912
   1.09189228  2.74882176  6.07662404
 


--------------------------------------------------------------------------------------------------------


 k-point  1 :   0.0000 0.0000 0.0000  plane waves:    4051
 k-point  2 :   0.2500 0.0000 0.0000  plane waves:    4032
 k-point  3 :   0.5000 0.0000 0.0000  plane waves:    4030
 k-point  4 :   0.0000 0.2500 0.0000  plane waves:    4032
 k-point  5 :   0.2500 0.2500 0.0000  plane waves:    4038
 k-point  6 :   0.5000 0.2500-0.0000  plane waves:    4037
 k-point  7 :  -0.2500 0.2500 0.0000  plane waves:    4042
 k-point  8 :   0.0000 0.5000 0.0000  plane waves:    4030
 k-point  9 :   0.2500 0.5000-0.0000  plane waves:    4037
 k-point 10 :   0.5000 0.5000 0.0000  plane waves:    4026
 k-point 11 :  -0.0000-0.0000 0.2000  plane waves:    4046
 k-point 12 :   0.2500 0.0000 0.2000  plane waves:    4034
 k-point 13 :   0.5000 0.0000 0.2000  plane waves:    4025
 k-point 14 :  -0.2500-0.0000 0.2000  plane waves:    4044
 k-point 15 :   0.0000 0.2500 0.2000  plane waves:    4034
 k-point 16 :   0.2500 0.2500 0.2000  plane waves:    4017
 k-point 17 :   0.5000 0.2500 0.2000  plane waves:    4039
 k-point 18 :  -0.2500 0.2500 0.2000  plane waves:    4042
 k-point 19 :   0.0000 0.5000 0.2000  plane waves:    4025
 k-point 20 :   0.2500 0.5000 0.2000  plane waves:    4039
 k-point 21 :   0.5000 0.5000 0.2000  plane waves:    4030
 k-point 22 :  -0.2500 0.5000 0.2000  plane waves:    4030
 k-point 23 :  -0.0000-0.2500 0.2000  plane waves:    4044
 k-point 24 :   0.2500-0.2500 0.2000  plane waves:    4042
 k-point 25 :   0.5000-0.2500 0.2000  plane waves:    4030
 k-point 26 :  -0.2500-0.2500 0.2000  plane waves:    4020
 k-point 27 :  -0.0000-0.0000 0.4000  plane waves:    4027
 k-point 28 :   0.2500 0.0000 0.4000  plane waves:    4034
 k-point 29 :   0.5000 0.0000 0.4000  plane waves:    4013
 k-point 30 :  -0.2500 0.0000 0.4000  plane waves:    4042
 k-point 31 :   0.0000 0.2500 0.4000  plane waves:    4034
 k-point 32 :   0.2500 0.2500 0.4000  plane waves:    4009
 k-point 33 :   0.5000 0.2500 0.4000  plane waves:    4026
 k-point 34 :  -0.2500 0.2500 0.4000  plane waves:    4027
 k-point 35 :   0.0000 0.5000 0.4000  plane waves:    4013
 k-point 36 :   0.2500 0.5000 0.4000  plane waves:    4026
 k-point 37 :   0.5000 0.5000 0.4000  plane waves:    4037
 k-point 38 :  -0.2500 0.5000 0.4000  plane waves:    4022
 k-point 39 :   0.0000-0.2500 0.4000  plane waves:    4042
 k-point 40 :   0.2500-0.2500 0.4000  plane waves:    4027
 k-point 41 :   0.5000-0.2500 0.4000  plane waves:    4022
 k-point 42 :  -0.2500-0.2500 0.4000  plane waves:    4015

 maximum and minimum number of plane-waves per node :      4051     4009

 maximum number of plane-waves:      4051
 maximum index in each direction: 
   IXMAX=   10   IYMAX=   10   IZMAX=   10
   IXMIN=  -11   IYMIN=  -11   IZMIN=  -10

 WARNING: aliasing errors must be expected set NGX to  44 to avoid them
 WARNING: aliasing errors must be expected set NGY to  44 to avoid them
 WARNING: aliasing errors must be expected set NGZ to  42 to avoid them
 aliasing errors are usually negligible using standard VASP settings
 and one can safely disregard these warnings

 serial   3D FFT for wavefunctions
 parallel 3D FFT for charge:
    minimum data exchange during FFTs selected (reduces bandwidth)


 FFT grid for exact exchange (Hartree Fock) 
  NGX = 24; NGY = 24; NGZ = 24

 
 Radii for the augmentation spheres in the non-local exchange
 for species   1 augmentation radius   1.120 (default was   0.830)
       energy cutoff for augmentation   1600.0
 for species   2 augmentation radius   1.570 (default was   1.163)
       energy cutoff for augmentation   1600.0
 for species   3 augmentation radius   1.034 (default was   0.970)
       energy cutoff for augmentation   1600.0

 total amount of memory used by VASP on root node   151697. kBytes
========================================================================

   base      :      30000. kBytes
   nonl-proj :      74517. kBytes
   fftplans  :        702. kBytes
   grid      :       2400. kBytes
   one-center:        186. kBytes
   HF        :        194. kBytes
   nonlr-proj:       1122. kBytes
   wavefun   :      42576. kBytes
 
 Broyden mixing: mesh for mixing (old mesh)
   NGX = 21   NGY = 21   NGZ = 21
  (NGX  = 64   NGY  = 64   NGZ  = 64)
  gives a total of   9261 points

 charge density for first step will be calculated from the start-wavefunctions


--------------------------------------------------------------------------------------------------------


 Maximum index for augmentation-charges          486 (set IRDMAX)


--------------------------------------------------------------------------------------------------------


 initial charge from wavefunction
 First call to EWALD:  gamma=   0.293
 Maximum number of real-space cells 3x 3x 3
 Maximum number of reciprocal cells 3x 3x 3

 FEWALD executed in parallel
    FEWALD:  cpu time    0.00: real time    0.00


----------------------------------------- Iteration    1(   1)  ---------------------------------------


    POTLOK:  cpu time    0.06: real time    0.06
    SETDIJ:  cpu time    1.98: real time    1.98
 
    SUBROT:  cpu time    0.88: real time    0.88
    SUBROT:  cpu time    0.42: real time    0.42
    SUBROT:  cpu time    0.41: real time    0.41
    --------------------------------------------
    SUBRT+:  cpu time    1.72: real time    1.72

 Broyden mixing:
  rms(total) = 0.28788E-01    rms(broyden)= 0.28772E-01
  rms(prec ) = 0.44744E-01
  weight for this iteration     100.00

 eigenvalues of (default mixing * dielectric matrix)
  average eigenvalue GAMMA=   1.7363
  1.0251  2.4475
 
    TRIAL :  cpu time  246.38: real time  246.20
    CORREC:  cpu time    0.00: real time    0.00
    CHARGE:  cpu time    0.10: real time    0.11
    --------------------------------------------
      LOOP:  cpu time  248.53: real time  248.35

 eigenvalue-minimisations  :     0
 total energy-change (2. order) : 0.7552070E+02  (-0.2131761E+03)
 number of electron     112.0001480 magnetization 
 augmentation part       38.9112388 magnetization 

 Free energy of the ion-electron system (eV)
  ---------------------------------------------------
  alpha Z        PSCENC =       339.31929130
  Ewald energy   TEWEN  =     -9064.58287962
  -1/2 Hartree   DENC   =     -8067.44662320
  -exchange  EXHF       =       327.44968809
  -V(xc)+E(xc)   XCENC  =       369.90379478
  PAW double counting   =     16900.10389433   -17392.91918278
  entropy T*S    EENTRO =        -0.00147192
  eigenvalues    EBANDS =     -1657.29096261
  atomic energy  EATOM  =     18320.98302006
  ---------------------------------------------------
  free energy    TOTEN  =        75.52070362 eV

  energy without entropy =       75.52217554  energy(sigma->0) =       75.52119426


--------------------------------------------------------------------------------------------------------




----------------------------------------- Iteration    1(   2)  ---------------------------------------


    POTLOK:  cpu time    0.05: real time    0.05
    SETDIJ:  cpu time    2.09: real time    2.09
 
    SUBROT:  cpu time    1.22: real time    1.22
    SUBROT:  cpu time    0.60: real time    0.60
    SUBROT:  cpu time    0.60: real time    0.60
    SUBROT:  cpu time    0.55: real time    0.55
    --------------------------------------------
    SUBRT+:  cpu time    2.98: real time    3.00

 Broyden mixing:
  rms(total) = 0.27887E-01    rms(broyden)= 0.27877E-01
  rms(prec ) = 0.50973E-01
  weight for this iteration     100.00

 eigenvalues of (default mixing * dielectric matrix)
  average eigenvalue GAMMA=   1.5554
  2.5467  1.2614  0.8582
 
    TRIAL :  cpu time  264.31: real time  264.11
    CORREC:  cpu time    0.00: real time    0.00
    CHARGE:  cpu time    0.11: real time    0.11
    --------------------------------------------
      LOOP:  cpu time  266.56: real time  266.37

 eigenvalue-minimisations  :     0
 total energy-change (2. order) :-0.8390416E+02  (-0.1468890E+03)
 number of electron     112.0001385 magnetization 
 augmentation part       35.4566294 magnetization 

 Free energy of the ion-electron system (eV)
  ---------------------------------------------------
  alpha Z        PSCENC =       339.31929130
  Ewald energy   TEWEN  =     -9064.58287962
  -1/2 Hartree   DENC   =     -8370.44666283
  -exchange  EXHF       =       338.96048081
  -V(xc)+E(xc)   XCENC  =       377.32155124
  PAW double counting   =     17401.04834007   -17940.16827025
  entropy T*S    EENTRO =        -0.00079891
  eigenvalues    EBANDS =     -1410.81685294
  atomic energy  EATOM  =     18320.98302006
  ---------------------------------------------------
  free energy    TOTEN  =        -8.38345408 eV

  energy without entropy =       -8.38265517  energy(sigma->0) =       -8.38318778


--------------------------------------------------------------------------------------------------------




----------------------------------------- Iteration    1(   3)  ---------------------------------------


    POTLOK:  cpu time    0.15: real time    0.15
    SETDIJ:  cpu time    2.22: real time    2.22
 
    SUBROT:  cpu time    1.55: real time    1.55
    SUBROT:  cpu time    0.77: real time    0.77
    SUBROT:  cpu time    0.64: real time    0.64
    SUBROT:  cpu time    0.70: real time    0.70
    --------------------------------------------
    SUBRT+:  cpu time    3.67: real time    3.68

 Broyden mixing:
  rms(total) = 0.28063E-01    rms(broyden)= 0.28052E-01
  rms(prec ) = 0.52321E-01
  weight for this iteration     100.00

 eigenvalues of (default mixing * dielectric matrix)
  average eigenvalue GAMMA=   1.7754
  1.0117  2.4993  1.8151
 
    TRIAL :  cpu time  276.76: real time  276.57
    CORREC:  cpu time    0.00: real time    0.00
    CHARGE:  cpu time    0.10: real time    0.11
    --------------------------------------------
      LOOP:  cpu time  279.25: real time  279.07

 eigenvalue-minimisations  :     0
 total energy-change (2. order) :-0.6828977E+01  (-0.2036392E+03)
 number of electron     112.0001510 magnetization 
 augmentation part       39.6825349 magnetization 

 Free energy of the ion-electron system (eV)
  ---------------------------------------------------
  alpha Z        PSCENC =       339.31929130
  Ewald energy   TEWEN  =     -9064.58287962
  -1/2 Hartree   DENC   =     -7478.46870003
  -exchange  EXHF       =       325.00378054
  -V(xc)+E(xc)   XCENC  =       357.40766834
  PAW double counting   =     15151.04297147   -15580.53708618
  entropy T*S    EENTRO =         0.00022963
  eigenvalues    EBANDS =     -2385.37969817
  atomic energy  EATOM  =     18320.98302006
  ---------------------------------------------------
  free energy    TOTEN  =       -15.21243120 eV

  energy without entropy =      -15.21266084  energy(sigma->0) =      -15.21250775


--------------------------------------------------------------------------------------------------------




----------------------------------------- Iteration    1(   4)  ---------------------------------------


    POTLOK:  cpu time    0.30: real time    0.30
    SETDIJ:  cpu time    2.18: real time    2.18
 
    SUBROT:  cpu time    1.72: real time    1.72
    SUBROT:  cpu time    0.45: real time    0.45
    SUBROT:  cpu time    0.42: real time    0.42
    SUBROT:  cpu time    0.43: real time    0.43
    SUBROT:  cpu time    0.45: real time    0.45
    --------------------------------------------
    SUBRT+:  cpu time    3.48: real time    3.48

 Broyden mixing:
  rms(total) = 0.11785E+00    rms(broyden)= 0.11766E+00
  rms(prec ) = 0.20778E+00
  weight for this iteration     100.00

 eigenvalues of (default mixing * dielectric matrix)
  average eigenvalue GAMMA=   1.2383
  2.5841  1.3313  0.6565  0.3813
 
    TRIAL :  cpu time  270.94: real time  270.71
    CORREC:  cpu time    0.00: real time    0.00
    CHARGE:  cpu time    0.08: real time    0.08
    --------------------------------------------
      LOOP:  cpu time  273.50: real time  273.27

 eigenvalue-minimisations  :     0
 total energy-change (2. order) :-0.7485632E+01  (-0.1073089E+03)
 number of electron     112.0001430 magnetization 
 augmentation part       37.2412067 magnetization 

 Free energy of the ion-electron system (eV)
  ---------------------------------------------------
  alpha Z        PSCENC =       339.31929130
  Ewald energy   TEWEN  =     -9064.58287962
  -1/2 Hartree   DENC   =     -8542.77065368
  -exchange  EXHF       =       342.99111834
  -V(xc)+E(xc)   XCENC  =       381.64400798
  PAW double counting   =     17630.61252599   -18211.22367037
  entropy T*S    EENTRO =         0.00035402
  eigenvalues    EBANDS =     -1219.67105243
  atomic energy  EATOM  =     18320.98302006
  ---------------------------------------------------
  free energy    TOTEN  =       -22.69806279 eV

  energy without entropy =      -22.69841681  energy(sigma->0) =      -22.69818079


--------------------------------------------------------------------------------------------------------




----------------------------------------- Iteration    1(   5)  ---------------------------------------


    POTLOK:  cpu time    0.16: real time    0.16
    SETDIJ:  cpu time    2.11: real time    2.10
 
    SUBROT:  cpu time    0.98: real time    0.98
    SUBROT:  cpu time    0.42: real time    0.42
    SUBROT:  cpu time    0.43: real time    0.43
    SUBROT:  cpu time    0.41: real time    0.41
    --------------------------------------------
    SUBRT+:  cpu time    2.25: real time    2.26

 Broyden mixing:
  rms(total) = 0.43863E-01    rms(broyden)= 0.43853E-01
  rms(prec ) = 0.89756E-01
  weight for this iteration     100.00

 eigenvalues of (default mixing * dielectric matrix)
  average eigenvalue GAMMA=   1.6845
  2.4616  0.9357  1.6563
 
    TRIAL :  cpu time  267.41: real time  267.19
    CORREC:  cpu time    0.00: real time    0.00
    CHARGE:  cpu time    0.08: real time    0.08
    --------------------------------------------
      LOOP:  cpu time  269.75: real time  269.54

 eigenvalue-minimisations  :     0
 total energy-change (2. order) :-0.3811119E+02  (-0.1508373E+02)
 number of electron     112.0001430 magnetization 
 augmentation part       37.2495064 magnetization 

 Free energy of the ion-electron system (eV)
  ---------------------------------------------------
  alpha Z        PSCENC =       339.31929130
  Ewald energy   TEWEN  =     -9064.58287962
  -1/2 Hartree   DENC   =     -8007.51363543
  -exchange  EXHF       =       336.37173718
  -V(xc)+E(xc)   XCENC  =       368.38265118
  PAW double counting   =     15868.71002951   -16338.09447458
  entropy T*S    EENTRO =         0.00061517
  eigenvalues    EBANDS =     -1884.38534793
  atomic energy  EATOM  =     18320.98302006
  ---------------------------------------------------
  free energy    TOTEN  =       -60.80925432 eV

  energy without entropy =      -60.80986949  energy(sigma->0) =      -60.80945937


--------------------------------------------------------------------------------------------------------




----------------------------------------- Iteration    1(   6)  ---------------------------------------


    POTLOK:  cpu time    0.11: real time    0.11
    SETDIJ:  cpu time    2.08: real time    2.08
 
    SUBROT:  cpu time    1.37: real time    1.37
    SUBROT:  cpu time    0.61: real time    0.61
    SUBROT:  cpu time    0.68: real time    0.68
    SUBROT:  cpu time    0.69: real time    0.69
    --------------------------------------------
    SUBRT+:  cpu time    3.35: real time    3.36

 Broyden mixing:
  rms(total) = 0.27790E-02    rms(broyden)= 0.27783E-02
  rms(prec ) = 0.45791E-02
  weight for this iteration     100.00

 eigenvalues of (default mixing * dielectric matrix)
  average eigenvalue GAMMA=   1.8178
  1.0064  1.9193  2.5279
 
    TRIAL :  cpu time  263.24: real time  263.02
    CORREC:  cpu time    0.00: real time    0.00
    CHARGE:  cpu time    0.09: real time    0.09
    --------------------------------------------
      LOOP:  cpu time  265.52: real time  265.31

 eigenvalue-minimisations  :     0
 total energy-change (2. order) :-0.5138103E+01  (-0.8122513E+01)
 number of electron     112.0001460 magnetization 
 augmentation part       38.2260939 magnetization 

 Free energy of the ion-electron system (eV)
  ---------------------------------------------------
  alpha Z        PSCENC =       339.31929130
  Ewald energy   TEWEN  =     -9064.58287962
  -1/2 Hartree   DENC   =     -8002.33031351
  -exchange  EXHF       =       337.16116757
  -V(xc)+E(xc)   XCENC  =       368.80425171
  PAW double counting   =     15773.02444377   -16242.20099908
  entropy T*S    EENTRO =         0.00065741
  eigenvalues    EBANDS =     -1896.12595450
  atomic energy  EATOM  =     18320.98302006
  ---------------------------------------------------
  free energy    TOTEN  =       -65.94735713 eV

  energy without entropy =      -65.94801454  energy(sigma->0) =      -65.94757627


--------------------------------------------------------------------------------------------------------




----------------------------------------- Iteration    1(   7)  ---------------------------------------


    POTLOK:  cpu time    0.15: real time    0.15
    SETDIJ:  cpu time    2.05: real time    2.05
 
    SUBROT:  cpu time    0.88: real time    0.88
    SUBROT:  cpu time    0.40: real time    0.40
    SUBROT:  cpu time    0.41: real time    0.41
    SUBROT:  cpu time    0.42: real time    0.42
    --------------------------------------------
    SUBRT+:  cpu time    2.12: real time    2.18

 Broyden mixing:
  rms(total) = 0.13097E-01    rms(broyden)= 0.13093E-01
  rms(prec ) = 0.23222E-01
  weight for this iteration     100.00

 eigenvalues of (default mixing * dielectric matrix)
  average eigenvalue GAMMA=   1.6297
  2.5033  0.8935  1.4922
 
    TRIAL :  cpu time  269.73: real time  269.57
    CORREC:  cpu time    0.00: real time    0.00
    CHARGE:  cpu time    0.11: real time    0.11
    --------------------------------------------
      LOOP:  cpu time  272.05: real time  271.88

 eigenvalue-minimisations  :     0
 total energy-change (2. order) :-0.1533524E+01  (-0.4119903E+01)
 number of electron     112.0001443 magnetization 
 augmentation part       37.7051511 magnetization 

 Free energy of the ion-electron system (eV)
  ---------------------------------------------------
  alpha Z        PSCENC =       339.31929130
  Ewald energy   TEWEN  =     -9064.58287962
  -1/2 Hartree   DENC   =     -8243.13634235
  -exchange  EXHF       =       341.61444552
  -V(xc)+E(xc)   XCENC  =       374.55011772
  PAW double counting   =     16206.70791571   -16710.00423493
  entropy T*S    EENTRO =         0.00043545
  eigenvalues    EBANDS =     -1632.93287161
  atomic energy  EATOM  =     18320.98302006
  ---------------------------------------------------
  free energy    TOTEN  =       -67.48088079 eV

  energy without entropy =      -67.48131624  energy(sigma->0) =      -67.48102594


--------------------------------------------------------------------------------------------------------




----------------------------------------- Iteration    1(   8)  ---------------------------------------


    POTLOK:  cpu time    0.06: real time    0.06
    SETDIJ:  cpu time    2.06: real time    2.06
 
    SUBROT:  cpu time    1.58: real time    1.58
    SUBROT:  cpu time    0.76: real time    0.76
    SUBROT:  cpu time    0.59: real time    0.59
    SUBROT:  cpu time    0.75: real time    0.74
    --------------------------------------------
    SUBRT+:  cpu time    3.68: real time    3.69

 Broyden mixing:
  rms(total) = 0.83302E-02    rms(broyden)= 0.83277E-02
  rms(prec ) = 0.13990E-01
  weight for this iteration     100.00

 eigenvalues of (default mixing * dielectric matrix)
  average eigenvalue GAMMA=   1.6767
  2.4562  0.9472  1.6269
 
    TRIAL :  cpu time  266.15: real time  265.94
    CORREC:  cpu time    0.00: real time    0.00
    CHARGE:  cpu time    0.08: real time    0.08
    --------------------------------------------
      LOOP:  cpu time  268.35: real time  268.14

 eigenvalue-minimisations  :     0
 total energy-change (2. order) :-0.1603878E+01  (-0.7715825E+00)
 number of electron     112.0001443 magnetization 
 augmentation part       37.7253197 magnetization 

 Free energy of the ion-electron system (eV)
  ---------------------------------------------------
  alpha Z        PSCENC =       339.31929130
  Ewald energy   TEWEN  =     -9064.58287962
  -1/2 Hartree   DENC   =     -8116.73593570
  -exchange  EXHF       =       339.52074258
  -V(xc)+E(xc)   XCENC  =       371.37994860
  PAW double counting   =     15916.19744516   -16397.53390336
  entropy T*S    EENTRO =         0.00073170
  eigenvalues    EBANDS =     -1777.63292298
  atomic energy  EATOM  =     18320.98302006
  ---------------------------------------------------
  free energy    TOTEN  =       -69.08475851 eV

  energy without entropy =      -69.08549021  energy(sigma->0) =      -69.08500241


--------------------------------------------------------------------------------------------------------




----------------------------------------- Iteration    1(   9)  ---------------------------------------


    POTLOK:  cpu time    0.06: real time    0.06
    SETDIJ:  cpu time    2.07: real time    2.07
 
    SUBROT:  cpu time    0.89: real time    0.89
    SUBROT:  cpu time    0.43: real time    0.43
    SUBROT:  cpu time    0.44: real time    0.44
    SUBROT:  cpu time    0.42: real time    0.42
    --------------------------------------------
    SUBRT+:  cpu time    2.17: real time    2.19

 Broyden mixing:
  rms(total) = 0.50987E-03    rms(broyden)= 0.50926E-03
  rms(prec ) = 0.80237E-03
  weight for this iteration     100.00

 eigenvalues of (default mixing * dielectric matrix)
  average eigenvalue GAMMA=   1.6789
  2.5208  0.9997  1.5161
 
    TRIAL :  cpu time  263.02: real time  262.82
    CORREC:  cpu time    0.00: real time    0.00
    CHARGE:  cpu time    0.07: real time    0.07
    --------------------------------------------
      LOOP:  cpu time  265.23: real time  265.03

 eigenvalue-minimisations  :     0
 total energy-change (2. order) :-0.3110154E+00  (-0.3838739E+00)
 number of electron     112.0001449 magnetization 
 augmentation part       37.9054151 magnetization 

 Free energy of the ion-electron system (eV)
  ---------------------------------------------------
  alpha Z        PSCENC =       339.31929130
  Ewald energy   TEWEN  =     -9064.58287962
  -1/2 Hartree   DENC   =     -8124.65222112
  -exchange  EXHF       =       339.59990402
  -V(xc)+E(xc)   XCENC  =       371.45023260
  PAW double counting   =     15913.06126608   -16394.34112183
  entropy T*S    EENTRO =         0.00086461
  eigenvalues    EBANDS =     -1770.23399709
  atomic energy  EATOM  =     18320.98302006
  ---------------------------------------------------
  free energy    TOTEN  =       -69.39577390 eV

  energy without entropy =      -69.39663851  energy(sigma->0) =      -69.39606211


--------------------------------------------------------------------------------------------------------




----------------------------------------- Iteration    1(  10)  ---------------------------------------


    POTLOK:  cpu time    0.10: real time    0.10
    SETDIJ:  cpu time    2.12: real time    2.12
 
    SUBROT:  cpu time    0.87: real time    0.87
    SUBROT:  cpu time    0.45: real time    0.45
    SUBROT:  cpu time    0.46: real time    0.46
    SUBROT:  cpu time    0.45: real time    0.45
    --------------------------------------------
    SUBRT+:  cpu time    2.24: real time    2.25

 Broyden mixing:
  rms(total) = 0.22854E-02    rms(broyden)= 0.22849E-02
  rms(prec ) = 0.38417E-02
  weight for this iteration     100.00

 eigenvalues of (default mixing * dielectric matrix)
  average eigenvalue GAMMA=   1.6834
  2.4756  0.9886  1.5859
 
    TRIAL :  cpu time  266.05: real time  265.84
    CORREC:  cpu time    0.01: real time    0.01
    CHARGE:  cpu time    0.08: real time    0.08
    --------------------------------------------
      LOOP:  cpu time  268.36: real time  268.16

 eigenvalue-minimisations  :     0
 total energy-change (2. order) :-0.1031272E+00  (-0.1520072E+00)
 number of electron     112.0001446 magnetization 
 augmentation part       37.8183249 magnetization 

 Free energy of the ion-electron system (eV)
  ---------------------------------------------------
  alpha Z        PSCENC =       339.31929130
  Ewald energy   TEWEN  =     -9064.58287962
  -1/2 Hartree   DENC   =     -8171.73103576
  -exchange  EXHF       =       340.39833215
  -V(xc)+E(xc)   XCENC  =       372.54044372
  PAW double counting   =     15994.25136732   -16482.22154072
  entropy T*S    EENTRO =         0.00071294
  eigenvalues    EBANDS =     -1718.45676419
  atomic energy  EATOM  =     18320.98302006
  ---------------------------------------------------
  free energy    TOTEN  =       -69.49890113 eV

  energy without entropy =      -69.49961407  energy(sigma->0) =      -69.49913878


--------------------------------------------------------------------------------------------------------




----------------------------------------- Iteration    1(  11)  ---------------------------------------


    POTLOK:  cpu time    0.10: real time    0.10
    SETDIJ:  cpu time    2.12: real time    2.11
 
    SUBROT:  cpu time    1.73: real time    1.73
    SUBROT:  cpu time    0.79: real time    0.79
    SUBROT:  cpu time    0.78: real time    0.78
    SUBROT:  cpu time    0.78: real time    0.78
    --------------------------------------------
    SUBRT+:  cpu time    4.07: real time    4.08

 Broyden mixing:
  rms(total) = 0.78104E-03    rms(broyden)= 0.78079E-03
  rms(prec ) = 0.15628E-02
  weight for this iteration     100.00

 eigenvalues of (default mixing * dielectric matrix)
  average eigenvalue GAMMA=   1.6752
  2.4939  0.9846  1.5470
 
    TRIAL :  cpu time  269.63: real time  269.41
    CORREC:  cpu time    0.00: real time    0.00
    CHARGE:  cpu time    0.12: real time    0.12
    --------------------------------------------
      LOOP:  cpu time  271.98: real time  271.76

 eigenvalue-minimisations  :     0
 total energy-change (2. order) :-0.6942004E-01  (-0.3678283E-01)
 number of electron     112.0001446 magnetization 
 augmentation part       37.7858955 magnetization 

 Free energy of the ion-electron system (eV)
  ---------------------------------------------------
  alpha Z        PSCENC =       339.31929130
  Ewald energy   TEWEN  =     -9064.58287962
  -1/2 Hartree   DENC   =     -8150.37872294
  -exchange  EXHF       =       340.07007625
  -V(xc)+E(xc)   XCENC  =       372.06742829
  PAW double counting   =     15942.24084835   -16427.17396396
  entropy T*S    EENTRO =         0.00060238
  eigenvalues    EBANDS =     -1742.11413183
  atomic energy  EATOM  =     18320.98302006
  ---------------------------------------------------
  free energy    TOTEN  =       -69.56832117 eV

  energy without entropy =      -69.56892355  energy(sigma->0) =      -69.56852196


--------------------------------------------------------------------------------------------------------




----------------------------------------- Iteration    1(  12)  ---------------------------------------


    POTLOK:  cpu time    0.11: real time    0.11
    SETDIJ:  cpu time    2.13: real time    2.13
 
    SUBROT:  cpu time    1.17: real time    1.17
    SUBROT:  cpu time    0.44: real time    0.44
    SUBROT:  cpu time    0.44: real time    0.44
    SUBROT:  cpu time    0.45: real time    0.45
    --------------------------------------------
    SUBRT+:  cpu time    2.50: real time    2.52

 Broyden mixing:
  rms(total) = 0.20616E-03    rms(broyden)= 0.20607E-03
  rms(prec ) = 0.44939E-03
  weight for this iteration     100.00

 eigenvalues of (default mixing * dielectric matrix)
  average eigenvalue GAMMA=   1.6373
  2.5071  0.9990  1.4058
 
    TRIAL :  cpu time  266.21: real time  265.99
    CORREC:  cpu time    0.00: real time    0.00
    CHARGE:  cpu time    0.08: real time    0.09
    --------------------------------------------
      LOOP:  cpu time  268.54: real time  268.32

 eigenvalue-minimisations  :     0
 total energy-change (2. order) :-0.1236566E-01  (-0.2274604E-01)
 number of electron     112.0001447 magnetization 
 augmentation part       37.8260446 magnetization 

 Free energy of the ion-electron system (eV)
  ---------------------------------------------------
  alpha Z        PSCENC =       339.31929130
  Ewald energy   TEWEN  =     -9064.58287962
  -1/2 Hartree   DENC   =     -8142.09898021
  -exchange  EXHF       =       339.95560125
  -V(xc)+E(xc)   XCENC  =       371.89467382
  PAW double counting   =     15920.58364608   -16404.44513569
  entropy T*S    EENTRO =         0.00055161
  eigenvalues    EBANDS =     -1751.19052620
  atomic energy  EATOM  =     18320.98302006
  ---------------------------------------------------
  free energy    TOTEN  =       -69.58068683 eV

  energy without entropy =      -69.58123844  energy(sigma->0) =      -69.58087070


--------------------------------------------------------------------------------------------------------




----------------------------------------- Iteration    1(  13)  ---------------------------------------


    POTLOK:  cpu time    0.10: real time    0.10
    SETDIJ:  cpu time    2.08: real time    2.08
 
    SUBROT:  cpu time    1.21: real time    1.21
    SUBROT:  cpu time    0.61: real time    0.61
    SUBROT:  cpu time    0.77: real time    0.77
    SUBROT:  cpu time    0.79: real time    0.79
    --------------------------------------------
    SUBRT+:  cpu time    3.38: real time    3.40

 Broyden mixing:
  rms(total) = 0.55412E-03    rms(broyden)= 0.55400E-03
  rms(prec ) = 0.94101E-03
  weight for this iteration     100.00

 eigenvalues of (default mixing * dielectric matrix)
  average eigenvalue GAMMA=   1.6940
  2.4803  0.9963  1.6054
 
    TRIAL :  cpu time  261.86: real time  261.66
    CORREC:  cpu time    0.00: real time    0.00
    CHARGE:  cpu time    0.11: real time    0.11
    --------------------------------------------
      LOOP:  cpu time  264.15: real time  263.96

 eigenvalue-minimisations  :     0
 total energy-change (2. order) :-0.9613868E-02  (-0.5115748E-02)
 number of electron     112.0001447 magnetization 
 augmentation part       37.8298734 magnetization 

 Free energy of the ion-electron system (eV)
  ---------------------------------------------------
  alpha Z        PSCENC =       339.31929130
  Ewald energy   TEWEN  =     -9064.58287962
  -1/2 Hartree   DENC   =     -8151.95122420
  -exchange  EXHF       =       340.12734113
  -V(xc)+E(xc)   XCENC  =       372.12769892
  PAW double counting   =     15936.68682461   -16422.03538213
  entropy T*S    EENTRO =         0.00053991
  eigenvalues    EBANDS =     -1740.26554238
  atomic energy  EATOM  =     18320.98302006
  ---------------------------------------------------
  free energy    TOTEN  =       -69.59030069 eV

  energy without entropy =      -69.59084060  energy(sigma->0) =      -69.59048066


--------------------------------------------------------------------------------------------------------




----------------------------------------- Iteration    1(  14)  ---------------------------------------


    POTLOK:  cpu time    0.05: real time    0.05
    SETDIJ:  cpu time    2.07: real time    2.07
 
    SUBROT:  cpu time    1.58: real time    1.58
    SUBROT:  cpu time    0.74: real time    0.74
    SUBROT:  cpu time    0.69: real time    0.70
    SUBROT:  cpu time    0.62: real time    0.62
    --------------------------------------------
    SUBRT+:  cpu time    3.64: real time    3.65

 Broyden mixing:
  rms(total) = 0.68539E-04    rms(broyden)= 0.68525E-04
  rms(prec ) = 0.13977E-03
  weight for this iteration     100.00

 eigenvalues of (default mixing * dielectric matrix)
  average eigenvalue GAMMA=   1.6571
  2.5175  0.9901  1.4637
 
    TRIAL :  cpu time  268.91: real time  268.70
    CORREC:  cpu time    0.00: real time    0.00
    CHARGE:  cpu time    0.09: real time    0.09
    --------------------------------------------
      LOOP:  cpu time  271.13: real time  270.94

 eigenvalue-minimisations  :     0
 total energy-change (2. order) :-0.2458375E-02  (-0.3763489E-02)
 number of electron     112.0001446 magnetization 
 augmentation part       37.8124154 magnetization 

 Free energy of the ion-electron system (eV)
  ---------------------------------------------------
  alpha Z        PSCENC =       339.31929130
  Ewald energy   TEWEN  =     -9064.58287962
  -1/2 Hartree   DENC   =     -8152.46658935
  -exchange  EXHF       =       340.12520687
  -V(xc)+E(xc)   XCENC  =       372.13673972
  PAW double counting   =     15934.60582700   -16420.11510609
  entropy T*S    EENTRO =         0.00055770
  eigenvalues    EBANDS =     -1739.59880885
  atomic energy  EATOM  =     18320.98302006
  ---------------------------------------------------
  free energy    TOTEN  =       -69.59275907 eV

  energy without entropy =      -69.59331677  energy(sigma->0) =      -69.59294497


--------------------------------------------------------------------------------------------------------




----------------------------------------- Iteration    1(  15)  ---------------------------------------


    POTLOK:  cpu time    0.20: real time    0.20
    SETDIJ:  cpu time    2.07: real time    2.07
 
    SUBROT:  cpu time    1.01: real time    1.01
    SUBROT:  cpu time    0.45: real time    0.45
    SUBROT:  cpu time    0.43: real time    0.43
    SUBROT:  cpu time    0.44: real time    0.44
    --------------------------------------------
    SUBRT+:  cpu time    2.34: real time    2.35

 Broyden mixing:
  rms(total) = 0.19293E-03    rms(broyden)= 0.19287E-03
  rms(prec ) = 0.32911E-03
  weight for this iteration     100.00

 eigenvalues of (default mixing * dielectric matrix)
  average eigenvalue GAMMA=   1.6829
  2.4724  0.9891  1.5871
 
    TRIAL :  cpu time  261.75: real time  261.54
    CORREC:  cpu time    0.00: real time    0.00
    CHARGE:  cpu time    0.10: real time    0.10
    --------------------------------------------
      LOOP:  cpu time  264.13: real time  263.93

 eigenvalue-minimisations  :     0
 total energy-change (2. order) :-0.1502488E-02  (-0.1035497E-02)
 number of electron     112.0001446 magnetization 
 augmentation part       37.8167199 magnetization 

 Free energy of the ion-electron system (eV)
  ---------------------------------------------------
  alpha Z        PSCENC =       339.31929130
  Ewald energy   TEWEN  =     -9064.58287962
  -1/2 Hartree   DENC   =     -8147.77891378
  -exchange  EXHF       =       340.03651450
  -V(xc)+E(xc)   XCENC  =       372.02604901
  PAW double counting   =     15922.61183476   -16407.51322119
  entropy T*S    EENTRO =         0.00057036
  eigenvalues    EBANDS =     -1744.69651431
  atomic energy  EATOM  =     18320.98302006
  ---------------------------------------------------
  free energy    TOTEN  =       -69.59426156 eV

  energy without entropy =      -69.59483192  energy(sigma->0) =      -69.59445168


--------------------------------------------------------------------------------------------------------




----------------------------------------- Iteration    1(  16)  ---------------------------------------


    POTLOK:  cpu time    0.16: real time    0.16
    SETDIJ:  cpu time    2.07: real time    2.07
 
    SUBROT:  cpu time    0.93: real time    0.93
    SUBROT:  cpu time    0.45: real time    0.45
    SUBROT:  cpu time    0.44: real time    0.44
    SUBROT:  cpu time    0.46: real time    0.46
    --------------------------------------------
    SUBRT+:  cpu time    2.28: real time    2.31

 Broyden mixing:
  rms(total) = 0.83718E-04    rms(broyden)= 0.83700E-04
  rms(prec ) = 0.13979E-03
  weight for this iteration     100.00

 eigenvalues of (default mixing * dielectric matrix)
  average eigenvalue GAMMA=   1.6892
  2.4859  0.9898  1.5919
 
    TRIAL :  cpu time  265.40: real time  265.31
    CORREC:  cpu time    0.00: real time    0.00
    CHARGE:  cpu time    0.10: real time    0.10
    --------------------------------------------
      LOOP:  cpu time  267.73: real time  267.64

 eigenvalue-minimisations  :     0
 total energy-change (2. order) :-0.5700182E-03  (-0.4086551E-03)
 number of electron     112.0001447 magnetization 
 augmentation part       37.8215109 magnetization 

 Free energy of the ion-electron system (eV)
  ---------------------------------------------------
  alpha Z        PSCENC =       339.31929130
  Ewald energy   TEWEN  =     -9064.58287962
  -1/2 Hartree   DENC   =     -8148.89339186
  -exchange  EXHF       =       340.05502175
  -V(xc)+E(xc)   XCENC  =       372.05312548
  PAW double counting   =     15923.45907163   -16408.54803409
  entropy T*S    EENTRO =         0.00057103
  eigenvalues    EBANDS =     -1743.44062659
  atomic energy  EATOM  =     18320.98302006
  ---------------------------------------------------
  free energy    TOTEN  =       -69.59483158 eV

[...]
     22      -2.2886      2.00000
     23      -1.9531      2.00000
     24      -1.6202      2.00000
     25      -1.2195      2.00000
     26      -1.0012      2.00000
     27      -0.9758      2.00000
     28      -0.7159      2.00000
     29      -0.5528      2.00000
     30      -0.3866      2.00000
     31      -0.2899      2.00000
     32      -0.2012      2.00000
     33      -0.1784      2.00000
     34      -0.1391      2.00000
     35      -0.0179      2.00000
     36       0.0176      2.00000
     37       1.2938      2.00000
     38       1.3083      2.00000
     39       1.3695      2.00000
     40       1.4104      2.00000
     41       1.4497      2.00000
     42       1.4661      2.00000
     43       1.5044      2.00000
     44       1.5510      2.00000
     45       1.7640      2.00000
     46       1.8936      2.00000
     47       1.9815      2.00000
     48       2.1521      2.00000
     49       2.3709      2.00000
     50       2.5757      2.00000
     51       2.7058      2.00000
     52       2.9081      2.00000
     53       3.0119      2.00000
     54       3.2157      2.00000
     55       3.3988      2.00000
     56       3.6550      2.00000
     57       6.3849     -0.00000
     58       6.5185     -0.00000
     59       7.7143      0.00000
     60       7.9040      0.00000
     61       8.2948      0.00000
     62       8.5870      0.00000
     63       9.3252      0.00000
     64       9.8431      0.00000
     65      10.0216      0.00000
     66      10.3501      0.00000
     67      10.5824      0.00000
     68      10.7887      0.00000
     69      10.9733      0.00000
     70      11.2543      0.00000
     71      11.3084      0.00000
     72      11.7001      0.00000
     73      12.2502      0.00000
     74      12.4626      0.00000
     75      13.0920      0.00000
     76      13.4654      0.00000
     77      13.7932      0.00000
     78      14.6707      0.00000
     79      14.9935      0.00000
     80      15.7263      0.00000

 k-point  40 :       0.2500   -0.2500    0.4000
  band No.  band energies     occupation 
      1     -68.6505      2.00000
      2     -68.6421      2.00000
      3     -68.6391      2.00000
      4     -68.6280      2.00000
      5     -68.6176      2.00000
      6     -68.6106      2.00000
      7     -68.6013      2.00000
      8     -68.5929      2.00000
      9     -68.5824      2.00000
     10     -68.5727      2.00000
     11     -68.5664      2.00000
     12     -68.5557      2.00000
     13     -12.2175      2.00000
     14     -11.8182      2.00000
     15     -10.8193      2.00000
     16     -10.6724      2.00000
     17     -10.3541      2.00000
     18     -10.2795      2.00000
     19      -5.4452      2.00000
     20      -5.1149      2.00000
     21      -2.4248      2.00000
     22      -2.1570      2.00000
     23      -2.0144      2.00000
     24      -1.5242      2.00000
     25      -1.3595      2.00000
     26      -1.1678      2.00000
     27      -0.9324      2.00000
     28      -0.8123      2.00000
     29      -0.5898      2.00000
     30      -0.5322      2.00000
     31      -0.2789      2.00000
     32      -0.2374      2.00000
     33      -0.1373      2.00000
     34      -0.0911      2.00000
     35      -0.0246      2.00000
     36       0.0331      2.00000
     37       1.3120      2.00000
     38       1.3441      2.00000
     39       1.3622      2.00000
     40       1.3970      2.00000
     41       1.4521      2.00000
     42       1.4813      2.00000
     43       1.4985      2.00000
     44       1.5648      2.00000
     45       1.8018      2.00000
     46       1.8460      2.00000
     47       1.9611      2.00000
     48       2.1102      2.00000
     49       2.2943      2.00000
     50       2.5299      2.00000
     51       2.6415      2.00000
     52       2.7678      2.00000
     53       2.9239      2.00000
     54       3.1587      2.00000
     55       3.3019      2.00000
     56       3.5732      2.00000
     57       6.5650     -0.00000
     58       6.7229     -0.00000
     59       7.9600      0.00000
     60       7.9979      0.00000
     61       8.7306      0.00000
     62       9.0944      0.00000
     63       9.4615      0.00000
     64       9.8237      0.00000
     65      10.2999      0.00000
     66      10.3693      0.00000
     67      10.7845      0.00000
     68      10.8465      0.00000
     69      11.1133      0.00000
     70      11.2712      0.00000
     71      11.3728      0.00000
     72      11.6128      0.00000
     73      12.0478      0.00000
     74      12.2939      0.00000
     75      12.6482      0.00000
     76      13.1241      0.00000
     77      13.2834      0.00000
     78      14.2423      0.00000
     79      15.6330      0.00000
     80      15.8279      0.00000

 k-point  41 :       0.5000   -0.2500    0.4000
  band No.  band energies     occupation 
      1     -68.6504      2.00000
      2     -68.6420      2.00000
      3     -68.6389      2.00000
      4     -68.6278      2.00000
      5     -68.6176      2.00000
      6     -68.6106      2.00000
      7     -68.6012      2.00000
      8     -68.5928      2.00000
      9     -68.5824      2.00000
     10     -68.5727      2.00000
     11     -68.5663      2.00000
     12     -68.5556      2.00000
     13     -12.0790      2.00000
     14     -11.7705      2.00000
     15     -10.8412      2.00000
     16     -10.7690      2.00000
     17     -10.5351      2.00000
     18     -10.3181      2.00000
     19      -5.4166      2.00000
     20      -4.9384      2.00000
     21      -2.3986      2.00000
     22      -2.1282      2.00000
     23      -1.8665      2.00000
     24      -1.7248      2.00000
     25      -1.4350      2.00000
     26      -1.1284      2.00000
     27      -0.8843      2.00000
     28      -0.6470      2.00000
     29      -0.6019      2.00000
     30      -0.4495      2.00000
     31      -0.2649      2.00000
     32      -0.1804      2.00000
     33      -0.1214      2.00000
     34      -0.0570      2.00000
     35      -0.0201      2.00000
     36       0.0204      2.00000
     37       1.2615      2.00000
     38       1.3161      2.00000
     39       1.4098      2.00000
     40       1.4347      2.00000
     41       1.4843      2.00000
     42       1.4920      2.00000
     43       1.5152      2.00000
     44       1.5731      2.00000
     45       1.7583      2.00000
     46       1.8430      2.00000
     47       2.1146      2.00000
     48       2.1886      2.00000
     49       2.3647      2.00000
     50       2.4579      2.00000
     51       2.4934      2.00000
     52       2.6926      2.00000
     53       2.8234      2.00000
     54       3.0867      2.00000
     55       3.2889      2.00000
     56       3.5231      2.00000
     57       6.4946     -0.00000
     58       6.5927     -0.00000
     59       7.4490      0.00000
     60       7.7205      0.00000
     61       8.5863      0.00000
     62       8.7456      0.00000
     63       9.3017      0.00000
     64       9.5294      0.00000
     65       9.9516      0.00000
     66      10.1882      0.00000
     67      10.6827      0.00000
     68      11.1180      0.00000
     69      11.2533      0.00000
     70      11.5671      0.00000
     71      11.7085      0.00000
     72      11.8936      0.00000
     73      12.2997      0.00000
     74      12.6574      0.00000
     75      13.0137      0.00000
     76      13.2317      0.00000
     77      13.6708      0.00000
     78      14.0707      0.00000
     79      14.3898      0.00000
     80      16.5159      0.00000

 k-point  42 :      -0.2500   -0.2500    0.4000
  band No.  band energies     occupation 
      1     -68.6505      2.00000
      2     -68.6422      2.00000
      3     -68.6389      2.00000
      4     -68.6278      2.00000
      5     -68.6176      2.00000
      6     -68.6106      2.00000
      7     -68.6012      2.00000
      8     -68.5928      2.00000
      9     -68.5824      2.00000
     10     -68.5727      2.00000
     11     -68.5665      2.00000
     12     -68.5558      2.00000
     13     -12.1766      2.00000
     14     -11.7025      2.00000
     15     -10.7199      2.00000
     16     -10.6934      2.00000
     17     -10.5882      2.00000
     18     -10.3960      2.00000
     19      -5.4420      2.00000
     20      -5.0702      2.00000
     21      -2.5081      2.00000
     22      -2.3779      2.00000
     23      -1.9664      2.00000
     24      -1.3655      2.00000
     25      -1.3277      2.00000
     26      -1.0558      2.00000
     27      -0.8296      2.00000
     28      -0.7696      2.00000
     29      -0.4246      2.00000
     30      -0.3413      2.00000
     31      -0.2704      2.00000
     32      -0.2095      2.00000
     33      -0.1421      2.00000
     34      -0.1414      2.00000
     35      -0.0124      2.00000
     36       0.0271      2.00000
     37       1.1728      2.00000
     38       1.3705      2.00000
     39       1.3965      2.00000
     40       1.4517      2.00000
     41       1.4537      2.00000
     42       1.4982      2.00000
     43       1.5168      2.00000
     44       1.5487      2.00000
     45       1.7429      2.00000
     46       1.8205      2.00000
     47       1.9735      2.00000
     48       2.2256      2.00000
     49       2.3967      2.00000
     50       2.6128      2.00000
     51       2.6540      2.00000
     52       2.9137      2.00000
     53       3.0688      2.00000
     54       3.1177      2.00000
     55       3.2849      2.00000
     56       3.5803      2.00000
     57       6.2947     -0.00000
     58       6.3800     -0.00000
     59       7.3525      0.00000
     60       7.5302      0.00000
     61       8.3136      0.00000
     62       8.3366      0.00000
     63       9.1038      0.00000
     64       9.3571      0.00000
     65       9.7169      0.00000
     66       9.9452      0.00000
     67      10.5233      0.00000
     68      10.9894      0.00000
     69      11.4252      0.00000
     70      11.5681      0.00000
     71      12.0195      0.00000
     72      12.2847      0.00000
     73      12.4353      0.00000
     74      12.4763      0.00000
     75      13.0322      0.00000
     76      13.1490      0.00000
     77      14.1400      0.00000
     78      14.4312      0.00000
     79      15.1659      0.00000
     80      15.8673      0.00000


--------------------------------------------------------------------------------------------------------


 soft charge-density along one line, spin component           1
         0         1         2         3         4         5         6         7         8         9
 total charge-density along one line
 
 pseudopotential strength for first ion, spin component:           1
-65.421   0.002   0.006   7.362   0.000  -0.003   0.002   0.006
  0.002 -65.391  -0.005   0.000   7.352   0.001  -0.001  -0.023
  0.006  -0.005 -65.382  -0.003   0.001   7.348  -0.036  -0.001
  7.362   0.000  -0.003   6.111   0.000   0.001   0.002  -0.003
  0.000   7.352   0.001   0.000   6.113  -0.000   0.000   0.007
 -0.003   0.001   7.348   0.001  -0.000   6.114   0.008   0.000
  0.002  -0.001  -0.036   0.002   0.000   0.008  -2.977  -0.003
  0.006  -0.023  -0.001  -0.003   0.007   0.000  -0.003  -2.983
  0.022   0.042   0.009  -0.005  -0.008  -0.002  -0.004   0.008
 -0.001  -0.017   0.007   0.000   0.004  -0.003   0.004   0.007
  0.025   0.000  -0.034  -0.007  -0.000   0.007  -0.000   0.007
  0.002  -0.001  -0.036   0.002   0.000   0.008  -3.624  -0.003
  0.006  -0.023  -0.001  -0.003   0.007   0.000  -0.003  -3.629
  0.021   0.041   0.009  -0.005  -0.008  -0.002  -0.004   0.008
 -0.001  -0.016   0.006   0.000   0.004  -0.003   0.004   0.007
  0.024   0.000  -0.034  -0.007  -0.000   0.006  -0.000   0.007
  0.007  -0.005   0.004  -0.001   0.001  -0.001  -0.002   0.000
  0.015  -0.009   0.009  -0.002   0.001  -0.002  -0.003   0.001
 total augmentation occupancy for first ion, spin component:           1
  2.000  -0.000   0.000  -0.003  -0.000   0.000   0.007  -0.005   0.001  -0.001  -0.005  -0.007   0.005  -0.001   0.001   0.004
 -0.000   2.000  -0.000  -0.000  -0.003   0.000  -0.001   0.005   0.004   0.001   0.000   0.001  -0.005  -0.005  -0.001  -0.000
  0.000  -0.000   2.000   0.000   0.000  -0.003  -0.000  -0.000  -0.001  -0.005  -0.004   0.001   0.000   0.001   0.005   0.005
 -0.003  -0.000   0.000   0.095   0.006  -0.005  -0.334   0.233  -0.074   0.011   0.017   0.281  -0.197   0.058  -0.007  -0.011
 -0.000  -0.003   0.000   0.006   0.102   0.001   0.020  -0.048  -0.444   0.015   0.011  -0.013   0.037   0.377  -0.010  -0.009
  0.000   0.000  -0.003  -0.005   0.001   0.099   0.097  -0.002  -0.014   0.236   0.354  -0.077   0.001   0.011  -0.202  -0.297
  0.007  -0.001  -0.000  -0.334   0.020   0.097   4.009  -0.792   0.095   0.216   0.147  -1.737   0.743  -0.088  -0.182  -0.142
 -0.005   0.005  -0.000   0.233  -0.048  -0.002  -0.792   3.511   0.291   0.158   0.297   0.743  -1.270  -0.214  -0.114  -0.206
  0.001   0.004  -0.001  -0.074  -0.444  -0.014   0.095   0.291   4.692  -0.041  -0.116  -0.088  -0.215  -2.400   0.035   0.086
 -0.001   0.001  -0.005   0.011   0.015   0.236   0.216   0.158  -0.041   3.634   0.797  -0.182  -0.114   0.035  -1.353  -0.759
 -0.005   0.000  -0.004   0.017   0.011   0.354   0.147   0.297  -0.116   0.797   3.997  -0.142  -0.206   0.086  -0.759  -1.743
 -0.007   0.001   0.001   0.281  -0.013  -0.077  -1.737   0.743  -0.088  -0.182  -0.142   1.443  -0.695   0.081   0.154   0.136
  0.005  -0.005   0.000  -0.197   0.037   0.001   0.743  -1.270  -0.215  -0.114  -0.206  -0.695   1.005   0.153   0.079   0.132
 -0.001  -0.005   0.001   0.058   0.377   0.011  -0.088  -0.214  -2.400   0.035   0.086   0.081   0.153   2.084  -0.029  -0.062
  0.001  -0.001   0.005  -0.007  -0.010  -0.202  -0.182  -0.114   0.035  -1.353  -0.759   0.154   0.079  -0.029   1.059   0.721
  0.004  -0.000   0.005  -0.011  -0.009  -0.297  -0.142  -0.206   0.086  -0.759  -1.743   0.136   0.132  -0.062   0.721   1.462
 -0.024   0.015  -0.013  -0.020   0.011  -0.006   0.080  -0.100  -0.023  -0.006   0.026  -0.063   0.087   0.034   0.006   0.005
  0.011  -0.007   0.006   0.001  -0.000  -0.000  -0.009   0.003  -0.004   0.004  -0.019   0.004  -0.005  -0.002  -0.001   0.003


------------------------ aborting loop because EDIFF is reached ----------------------------------------


    FORLOC:  cpu time    0.01: real time    0.01
    FORHF :  cpu time  550.06: real time  549.58
    FORNL :  cpu time    0.39: real time    0.39
    FORCOR:  cpu time    2.15: real time    2.14

 VOLUME and BASIS-vectors are now :
 -----------------------------------------------------------------------------
  energy-cutoff  :      400.00
  volume of cell :      221.90
      direct lattice vectors                 reciprocal lattice vectors
     3.224796000 -5.643830000  0.031572000     0.154525165 -0.088592321  0.053460880
     3.224796000  5.643830000  0.031572000     0.154525165  0.088592321  0.053460880
    -2.101946000  0.000000000  6.075537000    -0.001606004  0.000000000  0.164038877

  length of vectors
     6.500240234  6.500240234  6.428866683     0.185969598  0.185969598  0.164046738


 FORCES acting on ions:
    Electron-Ion                     Ewald-Force                    Non-Local-Force
 -----------------------------------------------------------------------------------------------
   -.146E+02 -.972E+02 0.119E+02   0.134E+02 0.948E+02 -.104E+02   0.100E+01 0.208E+01 -.136E+01
   -.145E+02 0.972E+02 0.113E+02   0.134E+02 -.948E+02 -.961E+01   0.100E+01 -.212E+01 -.145E+01
   0.256E+02 -.169E+02 0.477E+01   -.224E+02 0.167E+02 -.351E+01   -.279E+01 0.160E+00 -.110E+01
   0.253E+02 0.169E+02 0.421E+01   -.221E+02 -.167E+02 -.289E+01   -.285E+01 -.133E+00 -.115E+01
   -.107E+02 -.316E+02 -.118E+02   0.998E+01 0.303E+02 0.108E+02   0.644E+00 0.136E+01 0.119E+01
   -.110E+02 0.315E+02 -.111E+02   0.103E+02 -.302E+02 0.990E+01   0.680E+00 -.134E+01 0.114E+01
   -.135E+03 -.989E+01 -.494E+02   0.132E+03 0.993E+01 0.486E+02   0.279E+01 -.310E-01 0.715E+00
   0.703E+02 -.126E+03 0.968E+02   -.686E+02 0.123E+03 -.947E+02   -.156E+01 0.231E+01 -.189E+01
   0.665E+02 -.132E+03 -.499E+02   -.650E+02 0.130E+03 0.489E+02   -.133E+01 0.215E+01 0.843E+00
   0.701E+02 0.126E+03 0.961E+02   -.684E+02 -.123E+03 -.940E+02   -.154E+01 -.228E+01 -.187E+01
   -.135E+03 0.987E+01 -.491E+02   0.132E+03 -.991E+01 0.482E+02   0.278E+01 0.317E-01 0.732E+00
   0.666E+02 0.133E+03 -.497E+02   -.651E+02 -.130E+03 0.487E+02   -.136E+01 -.217E+01 0.875E+00
 -----------------------------------------------------------------------------------------------
   0.277E+01 -.184E-01 0.376E+01   0.000E+00 -.284E-13 -.711E-13   -.252E+01 0.166E-01 -.332E+01
 
 
 POSITION                                       TOTAL-FORCE (eV/Angst)
 -----------------------------------------------------------------------------------
      2.13385     -2.80652      0.74958         0.000142      0.001516     -0.005572
      1.08288      2.80652      3.78735        -0.000039      0.002965      0.002340
      5.40423     -0.97432      0.77721        -0.004175      0.000130     -0.000762
      4.35326      0.97432      3.81498         0.003437     -0.002048      0.003264
      1.02408     -0.97328      3.65240        -0.051819      0.025705      0.108367
      2.07178      0.97328      0.62409         0.013483     -0.019958     -0.020087
      2.15090      4.69667      3.05304         0.010016      0.000985     -0.010148
      1.11215     -0.89759      5.98620        -0.004888     -0.000577     -0.047850
      2.14287     -2.74882      3.03886         0.022935     -0.035109     -0.020764
      2.16313      0.89759      2.94844         0.011397      0.026859     -0.009806
      1.09993     -4.69667      6.09081         0.001734     -0.000622      0.000432
      1.09189      2.74882      6.07662        -0.002222      0.000154      0.000587
 -----------------------------------------------------------------------------------
    total drift:                               -0.058896     -0.001173     -0.054026


--------------------------------------------------------------------------------------------------------



  FREE ENERGIE OF THE ION-ELECTRON SYSTEM (eV)
  ---------------------------------------------------
  free  energy   TOTEN  =       -69.59517835 eV

  energy  without entropy=      -69.59574317  energy(sigma->0) =      -69.59536662
 


--------------------------------------------------------------------------------------------------------


    POTLOK:  cpu time    2.16: real time    2.17


--------------------------------------------------------------------------------------------------------


 writing wavefunctions
     LOOP+:  cpu time 6184.02: real time 6182.03
    4ORBIT:  cpu time    0.00: real time    0.00

 total amount of memory used by VASP on root node   155705. kBytes
========================================================================

   base      :      30000. kBytes
   nonl-proj :      74517. kBytes
   fftplans  :        702. kBytes
   grid      :       2400. kBytes
   one-center:        186. kBytes
   HF        :        194. kBytes
   nonlr-proj:       5130. kBytes
   wavefun   :      42576. kBytes
 
  
  
 General timing and accounting informations for this job:
 ========================================================
  
                  Total CPU time used (sec):     6220.184
                            User time (sec):     6213.954
                          System time (sec):        6.229
                         Elapsed time (sec):     6219.033
  
                   Maximum memory used (kb):      296328.
                   Average memory used (kb):           0.
  
                          Minor page faults:        78317
                          Major page faults:            0
                 Voluntary context switches:         3668
