       N       E                     dE             d eps       ncg     rms          ort
SDA:   1     0.755386617860E+02    0.75539E+02   -0.21324E+03  3360   0.533E+03 0.000E+00
DMP:   2    -0.837497503514E+01   -0.83914E+02   -0.14689E+03  3360   0.395E+03-0.738E+02
DMP:   3    -0.150963853796E+02   -0.67214E+01   -0.20381E+03  3360   0.693E+03-0.481E+03
DMP:   4    -0.225573987753E+02   -0.74610E+01   -0.10759E+03  3360   0.391E+03-0.320E+03
DMP:   5    -0.608029649198E+02   -0.38246E+02   -0.15091E+02  3360   0.707E+02-0.864E+02
DMP:   6    -0.659335496566E+02   -0.51306E+01   -0.81665E+01  3360   0.246E+02-0.110E+02
DMP:   7    -0.674730269170E+02   -0.15395E+01   -0.41372E+01  3360   0.147E+02-0.114E+02
DMP:   8    -0.690841215467E+02   -0.16111E+01   -0.77256E+00  3360   0.284E+01-0.238E+01
DMP:   9    -0.693953090015E+02   -0.31119E+00   -0.38577E+00  3360   0.110E+01-0.365E+00
DMP:  10    -0.694988829915E+02   -0.10357E+00   -0.15254E+00  3360   0.548E+00-0.436E+00
DMP:  11    -0.695685634132E+02   -0.69680E-01   -0.36860E-01  3360   0.105E+00-0.342E-01
DMP:  12    -0.695809234163E+02   -0.12360E-01   -0.22849E-01  3360   0.689E-01-0.308E-01
DMP:  13    -0.695905817557E+02   -0.96583E-02   -0.51254E-02  3360   0.162E-01-0.877E-02
DMP:  14    -0.695930433338E+02   -0.24616E-02   -0.37796E-02  3360   0.964E-02-0.497E-03
DMP:  15    -0.695945503473E+02   -0.15070E-02   -0.10392E-02  3360   0.333E-02-0.192E-02
DMP:  16    -0.695951225740E+02   -0.57223E-03   -0.40963E-03  3360   0.916E-03 0.282E-03
DMP:  17    -0.695952960992E+02   -0.17353E-03   -0.20914E-03  3360   0.580E-03-0.150E-03
DMP:  18    -0.695954134865E+02   -0.11739E-03   -0.56309E-04  3360   0.119E-03 0.559E-04
DMP:  19    -0.695954424954E+02   -0.29009E-04   -0.35365E-04  3360   0.884E-04 0.586E-07
DMP:  20    -0.695954623381E+02   -0.19843E-04   -0.11633E-04  3360   0.242E-04 0.128E-04
DMP:  21    -0.695954697729E+02   -0.74347E-05   -0.70479E-05  3360   0.141E-04 0.923E-05
   1 F= -.69595470E+02 E0= -.69595646E+02  d E =0.528591E-03
