 vasp.5.3.3 18Dez12 (build Nov 13 2015 09:58:40) complex                        
  
 executed on             LinuxIFC date 2017.10.18  13:13:31
 running on   48 total cores
 distrk:  each k-point on   16 cores,    3 groups
 distr:  one band on NCORES_PER_BAND=   1 cores,   16 groups


--------------------------------------------------------------------------------------------------------


 INCAR:
 POTCAR:    PAW_PBE Cu_pv 06Sep2000               
 POTCAR:    PAW_PBE Ge 05Jan2001                  
 POTCAR:    PAW_PBE S 17Jan2003                   

 ----------------------------------------------------------------------------- 
|                                                                             |
|           W    W    AA    RRRRR   N    N  II  N    N   GGGG   !!!           |
|           W    W   A  A   R    R  NN   N  II  NN   N  G    G  !!!           |
|           W    W  A    A  R    R  N N  N  II  N N  N  G       !!!           |
|           W WW W  AAAAAA  RRRRR   N  N N  II  N  N N  G  GGG   !            |
|           WW  WW  A    A  R   R   N   NN  II  N   NN  G    G                |
|           W    W  A    A  R    R  N    N  II  N    N   GGGG   !!!           |
|                                                                             |
|      For optimal performance we recommend that you set                      |
|        NPAR = 4 - approx SQRT( number of cores)                             |
|      (number of cores/NPAR must be integer)                                 |
|      This setting will greatly improve the performance of VASP for DFT.     |
|      The default NPAR=number of cores might be grossly inefficient          |
|      on modern multi-core architectures or massively parallel machines.     |
|      Do your own testing.                                                   |
|      Unfortunately you need to use the default for hybrid, GW and RPA       |
|      calculations.                                                          |
|                                                                             |
 ----------------------------------------------------------------------------- 


 ----------------------------------------------------------------------------- 
|                                                                             |
|           W    W    AA    RRRRR   N    N  II  N    N   GGGG   !!!           |
|           W    W   A  A   R    R  NN   N  II  NN   N  G    G  !!!           |
|           W    W  A    A  R    R  N N  N  II  N N  N  G       !!!           |
|           W WW W  AAAAAA  RRRRR   N  N N  II  N  N N  G  GGG   !            |
|           WW  WW  A    A  R   R   N   NN  II  N   NN  G    G                |
|           W    W  A    A  R    R  N    N  II  N    N   GGGG   !!!           |
|                                                                             |
|      You have enabled k-point parallelism (KPAR>1).                         |
|      This developmental code was originally  written by Paul Kent at ORNL,  |
|      and carefully double checked in Vienna.                                |
|      GW as well as linear response parallelism added by Martijn Marsman     |
|      and Georg Kresse.                                                      |
|      Carefully verify results versus KPAR=1.                                |
|      Report problems to Paul Kent and Vienna.                               |
|                                                                             |
 ----------------------------------------------------------------------------- 

 POTCAR:    PAW_PBE Cu_pv 06Sep2000               
   VRHFIN =Cu: d10 p1                                                           
   LEXCH  = PE                                                                  
   EATOM  =  4120.1201 eV,  302.8203 Ry                                         
                                                                                
   TITEL  = PAW_PBE Cu_pv 06Sep2000                                             
   LULTRA =        F    use ultrasoft PP ?                                      
   IUNSCR =        1    unscreen: 0-lin 1-nonlin 2-no                           
   RPACOR =    1.500    partial core radius                                     
   POMASS =   63.546; ZVAL   =   17.000    mass and valenz                      
   RCORE  =    2.000    outmost cutoff radius                                   
   RWIGS  =    2.000; RWIGS  =    1.058    wigner-seitz radius (au A)           
   ENMAX  =  368.648; ENMIN  =  276.486 eV                                      
   RCLOC  =    1.304    cutoff for local pot                                    
   LCOR   =        T    correct aug charges                                     
   LPAW   =        T    paw PP                                                  
   EAUG   =  758.233                                                            
   DEXC   =    0.000                                                            
   RMAX   =    2.046    core radius for proj-oper                               
   RAUG   =    1.300    factor for augmentation sphere                          
   RDEP   =    2.025    radius for radial grids                                 
   RDEPT  =    1.558    core radius for aug-charge                              
                                                                                
   Atomic configuration                                                         
    8 entries                                                                   
     n  l   j            E        occ.                                          
     1  0  0.50     -8850.2467   2.0000                                         
     2  0  0.50     -1062.3498   2.0000                                         
     2  1  1.50      -916.8226   6.0000                                         
     3  0  0.50      -114.6929   2.0000                                         
     3  1  1.50       -72.1325   6.0000                                         
     3  2  2.50        -5.0394  10.0000                                         
     4  0  0.50        -4.6097   1.0000                                         
     4  3  2.50        -1.3606   0.0000                                         
   Description                                                                  
     l       E           TYP  RCUT    TYP  RCUT                                 
     1    -72.1324777     23  1.700                                             
     1     -1.3605826     23  1.700                                             
     2     -5.0393776     23  2.000                                             
     2     -6.3999602     23  2.000                                             
     0     -4.6097062     23  1.800                                             
     0     14.1620818     23  1.800                                             
  local pseudopotential read in
  partial core-charges read in
  partial kinetic energy density read in
  atomic valenz-charges read in
  non local Contribution for L=           1  read in
    real space projection operators read in
  non local Contribution for L=           1  read in
    real space projection operators read in
  non local Contribution for L=           2  read in
    real space projection operators read in
  non local Contribution for L=           2  read in
    real space projection operators read in
  non local Contribution for L=           0  read in
    real space projection operators read in
  non local Contribution for L=           0  read in
    real space projection operators read in
    PAW grid and wavefunctions read in
 
   number of l-projection  operators is LMAX  =           6
   number of lm-projection operators is LMMAX =          18
 
 POTCAR:    PAW_PBE Ge 05Jan2001                  
   VRHFIN =Ge: s2p2                                                             
   LEXCH  = PE                                                                  
   EATOM  =   104.9960 eV,    7.7170 Ry                                         
                                                                                
   TITEL  = PAW_PBE Ge 05Jan2001                                                
   LULTRA =        F    use ultrasoft PP ?                                      
   IUNSCR =        1    unscreen: 0-lin 1-nonlin 2-no                           
   RPACOR =    2.170    partial core radius                                     
   POMASS =   72.610; ZVAL   =    4.000    mass and valenz                      
   RCORE  =    2.300    outmost cutoff radius                                   
   RWIGS  =    2.300; RWIGS  =    1.217    wigner-seitz radius (au A)           
   ENMAX  =  173.807; ENMIN  =  130.355 eV                                      
   ICORE  =        3    local potential                                         
   LCOR   =        T    correct aug charges                                     
   LPAW   =        T    paw PP                                                  
   EAUG   =  385.843                                                            
   DEXC   =    0.000                                                            
   RMAX   =    2.342    core radius for proj-oper                               
   RAUG   =    1.300    factor for augmentation sphere                          
   RDEP   =    2.318    radius for radial grids                                 
   RDEPT  =    2.103    core radius for aug-charge                              
                                                                                
   Atomic configuration                                                         
   10 entries                                                                   
     n  l   j            E        occ.                                          
     1  0  0.50    -10959.8463   2.0000                                         
     2  0  0.50     -1371.6056   2.0000                                         
     2  1  1.50     -1198.4791   6.0000                                         
     3  0  0.50      -168.4733   2.0000                                         
     3  1  1.50      -115.6019   6.0000                                         
     3  2  2.50       -29.3106  10.0000                                         
     4  0  0.50       -11.7309   2.0000                                         
     4  1  0.50        -3.8952   2.0000                                         
     4  2  1.50        -4.0817   0.0000                                         
     4  3  2.50        -4.0817   0.0000                                         
   Description                                                                  
     l       E           TYP  RCUT    TYP  RCUT                                 
     0    -11.7309493     23  2.300                                             
     0     -7.4578696     23  2.300                                             
     1     -3.8952261     23  2.300                                             
     1      6.1178114     23  2.300                                             
     2     -4.0817478     23  2.300                                             
     3     -1.3605826      7  2.300                                             
  local pseudopotential read in
  partial core-charges read in
  partial kinetic energy density read in
  atomic valenz-charges read in
  non local Contribution for L=           0  read in
    real space projection operators read in
  non local Contribution for L=           0  read in
    real space projection operators read in
  non local Contribution for L=           1  read in
    real space projection operators read in
  non local Contribution for L=           1  read in
    real space projection operators read in
  non local Contribution for L=           2  read in
    real space projection operators read in
    PAW grid and wavefunctions read in
 
   number of l-projection  operators is LMAX  =           5
   number of lm-projection operators is LMMAX =          13
 
 POTCAR:    PAW_PBE S 17Jan2003                   
   VRHFIN =S : s2p4                                                             
   LEXCH  = PE                                                                  
   EATOM  =   276.8230 eV,   20.3459 Ry                                         
                                                                                
   TITEL  = PAW_PBE S 17Jan2003                                                 
   LULTRA =        F    use ultrasoft PP ?                                      
   IUNSCR =        1    unscreen: 0-lin 1-nonlin 2-no                           
   RPACOR =    1.500    partial core radius                                     
   POMASS =   32.066; ZVAL   =    6.000    mass and valenz                      
   RCORE  =    1.900    outmost cutoff radius                                   
   RWIGS  =    2.200; RWIGS  =    1.164    wigner-seitz radius (au A)           
   ENMAX  =  280.000; ENMIN  =  194.016 eV                                      
   ICORE  =        2    local potential                                         
   LCOR   =        T    correct aug charges                                     
   LPAW   =        T    paw PP                                                  
   EAUG   =  335.092                                                            
   DEXC   =     .000                                                            
   RMAX   =    2.867    core radius for proj-oper                               
   RAUG   =    1.300    factor for augmentation sphere                          
   RDEP   =    1.954    radius for radial grids                                 
   QCUT   =   -4.360; QGAM   =    8.721    optimization parameters              
                                                                                
   Description                                                                  
     l     E      TYP  RCUT    TYP  RCUT                                        
     0   .000     23  1.900                                                     
     0   .000     23  1.900                                                     
     1   .000     23  1.900                                                     
     1   .000     23  1.900                                                     
     2   .000     23  1.900                                                     
  local pseudopotential read in
  partial core-charges read in
  atomic valenz-charges read in
  non local Contribution for L=           0  read in
    real space projection operators read in
  non local Contribution for L=           0  read in
    real space projection operators read in
  non local Contribution for L=           1  read in
    real space projection operators read in
  non local Contribution for L=           1  read in
    real space projection operators read in
    PAW grid and wavefunctions read in
 
   number of l-projection  operators is LMAX  =           4
   number of lm-projection operators is LMMAX =           8
 
  PAW_PBE Cu_pv 06Sep2000               :
 energy of atom  1       EATOM=-4120.1201
 kinetic energy error for atom=    0.0996 (will be added to EATOM!!)
  PAW_PBE Ge 05Jan2001                  :
 energy of atom  2       EATOM= -104.9960
 kinetic energy error for atom=    0.0003 (will be added to EATOM!!)
  PAW_PBE S 17Jan2003                   :
 energy of atom  3       EATOM= -276.8230
 kinetic energy error for atom=    0.0046 (will be added to EATOM!!)
 
 
 POSCAR: Cu Ge S                                 
  positions in direct lattice
  No initial velocities read in
 exchange correlation table for  LEXCH =        8
   RHO(1)=    0.500       N(1)  =     2000
   RHO(2)=  100.500       N(2)  =     4000
 


--------------------------------------------------------------------------------------------------------


 ion  position               nearest neighbor table
   1  0.618  0.121  0.120-   9 2.29  11 2.29  12 2.30   8 2.34
   2  0.121  0.618  0.620-  12 2.29   7 2.29   9 2.30  10 2.35
   3  0.963  0.790  0.119-  11 2.30  12 2.30   7 2.31   8 2.36
   4  0.790  0.963  0.619-   7 2.30   9 2.30  11 2.31  10 2.36
   5  0.440  0.267  0.599-   7 2.19   9 2.19  10 2.31   8 2.33
   6  0.267  0.440  0.099-  11 2.19  12 2.19   8 2.31  10 2.33
   7  0.079  0.912  0.497-   5 2.19   2 2.29   4 2.30   3 2.31
   8  0.571  0.411  0.980-   6 2.31   5 2.33   1 2.34   3 2.36
   9  0.737  0.250  0.495-   5 2.19   1 2.29   4 2.30   2 2.30
  10  0.412  0.571  0.480-   5 2.31   6 2.33   2 2.35   4 2.36
  11  0.912  0.079  0.997-   6 2.19   1 2.29   3 2.30   4 2.31
  12  0.250  0.737  0.995-   6 2.19   2 2.29   3 2.30   1 2.30
 
  Warning from LATTYP: Got some problem with cell dimensions!
  Tried to take original basis but could not verify dimensions!
  LATTYP: Found a base centered monoclinic cell.
 ALAT       =     6.4499010947
 B/A-ratio  =     1.7500516418
 C/A-ratio  =     1.9305142024
 COS(beta)  =    -0.4326083233
  
  Lattice vectors:
  
 A1 = (   3.2247960000,   5.6438300000,   0.0315720000)
 A2 = (   3.2247960000,  -5.6438300000,   0.0315720000)
 A3 = ( -10.7972380000,   0.0000000000,  -6.2018250000)


Analysis of symmetry for initial positions (statically):
=====================================================================
 Subroutine PRICEL returns:
 Original cell was already a primitive cell.
 

 Routine SETGRP: Setting up the symmetry group for a 
 base centered monoclinic supercell.


 Subroutine GETGRP returns: Found  1 space group operations
 (whereof  1 operations were pure point group operations)
 out of a pool of  4 trial point group operations.


The static configuration has the point symmetry C_1 .


Analysis of symmetry for dynamics (positions and initial velocities):
=====================================================================
 Subroutine PRICEL returns:
 Original cell was already a primitive cell.
 

 Routine SETGRP: Setting up the symmetry group for a 
 base centered monoclinic supercell.


 Subroutine GETGRP returns: Found  1 space group operations
 (whereof  1 operations were pure point group operations)
 out of a pool of  4 trial point group operations.


The dynamic configuration has the point symmetry C_1 .


 irot  :   1
 --------------------------------------------------------------------
 isymop:   1   0   0
           0   1   0
           0   0   1

 gtrans:     0.0000000     0.0000000     0.0000000

 ptrans:     0.0000000     0.0000000     0.0000000
 rotmap:
 (   1->   1)  (   2->   2)  (   3->   3)  (   4->   4)  (   5->   5) 
 (   6->   6)  (   7->   7)  (   8->   8)  (   9->   9)  (  10->  10) 
 (  11->  11)  (  12->  12) 
 
 
 KPOINTS: pymatgen 4.7.6+ generated KPOINTS with g

Automatic generation of k-mesh.
Space group operators:
 irot       det(A)        alpha          n_x          n_y          n_z        tau_x        tau_y        tau_z
    1     1.000000     0.000000     1.000000     0.000000     0.000000     0.000000     0.000000     0.000000
 
 Subroutine IBZKPT returns following result:
 ===========================================
 
 Found     42 irreducible k-points:
 
 Following reciprocal coordinates:
            Coordinates               Weight
  0.000000  0.000000  0.000000      1.000000
  0.250000  0.000000  0.000000      2.000000
  0.500000  0.000000  0.000000      1.000000
  0.000000  0.250000  0.000000      2.000000
  0.250000  0.250000  0.000000      2.000000
  0.500000  0.250000 -0.000000      2.000000
 -0.250000  0.250000  0.000000      2.000000
  0.000000  0.500000  0.000000      1.000000
  0.250000  0.500000 -0.000000      2.000000
  0.500000  0.500000  0.000000      1.000000
 -0.000000 -0.000000  0.200000      2.000000
  0.250000  0.000000  0.200000      2.000000
  0.500000  0.000000  0.200000      2.000000
 -0.250000 -0.000000  0.200000      2.000000
  0.000000  0.250000  0.200000      2.000000
  0.250000  0.250000  0.200000      2.000000
  0.500000  0.250000  0.200000      2.000000
 -0.250000  0.250000  0.200000      2.000000
  0.000000  0.500000  0.200000      2.000000
  0.250000  0.500000  0.200000      2.000000
  0.500000  0.500000  0.200000      2.000000
 -0.250000  0.500000  0.200000      2.000000
 -0.000000 -0.250000  0.200000      2.000000
  0.250000 -0.250000  0.200000      2.000000
  0.500000 -0.250000  0.200000      2.000000
 -0.250000 -0.250000  0.200000      2.000000
 -0.000000 -0.000000  0.400000      2.000000
  0.250000  0.000000  0.400000      2.000000
  0.500000  0.000000  0.400000      2.000000
 -0.250000  0.000000  0.400000      2.000000
  0.000000  0.250000  0.400000      2.000000
  0.250000  0.250000  0.400000      2.000000
  0.500000  0.250000  0.400000      2.000000
 -0.250000  0.250000  0.400000      2.000000
  0.000000  0.500000  0.400000      2.000000
  0.250000  0.500000  0.400000      2.000000
  0.500000  0.500000  0.400000      2.000000
 -0.250000  0.500000  0.400000      2.000000
  0.000000 -0.250000  0.400000      2.000000
  0.250000 -0.250000  0.400000      2.000000
  0.500000 -0.250000  0.400000      2.000000
 -0.250000 -0.250000  0.400000      2.000000
 
 Following cartesian coordinates:
            Coordinates               Weight
  0.000000  0.000000  0.000000      1.000000
  0.038631 -0.022148  0.013365      2.000000
  0.077263 -0.044296  0.026730      1.000000
  0.038631  0.022148  0.013365      2.000000
  0.077263  0.000000  0.026730      2.000000
  0.115894 -0.022148  0.040096      2.000000
  0.000000  0.044296  0.000000      2.000000
  0.077263  0.044296  0.026730      1.000000
  0.115894  0.022148  0.040096      2.000000
  0.154525  0.000000  0.053461      1.000000
 -0.000321  0.000000  0.032808      2.000000
  0.038310 -0.022148  0.046173      2.000000
  0.076941 -0.044296  0.059538      2.000000
 -0.038952  0.022148  0.019443      2.000000
  0.038310  0.022148  0.046173      2.000000
  0.076941  0.000000  0.059538      2.000000
  0.115573 -0.022148  0.072903      2.000000
 -0.000321  0.044296  0.032808      2.000000
  0.076941  0.044296  0.059538      2.000000
  0.115573  0.022148  0.072903      2.000000
  0.154204  0.000000  0.086269      2.000000
  0.038310  0.066444  0.046173      2.000000
 -0.038952 -0.022148  0.019443      2.000000
 -0.000321 -0.044296  0.032808      2.000000
  0.038310 -0.066444  0.046173      2.000000
 -0.077584  0.000000  0.006077      2.000000
 -0.000642  0.000000  0.065616      2.000000
  0.037989 -0.022148  0.078981      2.000000
  0.076620 -0.044296  0.092346      2.000000
 -0.039274  0.022148  0.052250      2.000000
  0.037989  0.022148  0.078981      2.000000
  0.076620  0.000000  0.092346      2.000000
  0.115251 -0.022148  0.105711      2.000000
 -0.000642  0.044296  0.065616      2.000000
  0.076620  0.044296  0.092346      2.000000
  0.115251  0.022148  0.105711      2.000000
  0.153883  0.000000  0.119076      2.000000
  0.037989  0.066444  0.078981      2.000000
 -0.039274 -0.022148  0.052250      2.000000
 -0.000642 -0.044296  0.065616      2.000000
  0.037989 -0.066444  0.078981      2.000000
 -0.077905  0.000000  0.038885      2.000000
 
 
 Subroutine IBZKPT_HF returns following result:
 ==============================================
 
 Found     80 k-points in 1st BZ
 the following     80 k-points will be used (e.g. in the exchange kernel)
 Following reciprocal coordinates:   # in IRBZ
  0.000000  0.000000  0.000000       1 t-inv F
  0.250000  0.000000  0.000000       2 t-inv F
  0.500000  0.000000  0.000000       3 t-inv F
  0.000000  0.250000  0.000000       4 t-inv F
  0.250000  0.250000  0.000000       5 t-inv F
  0.500000  0.250000 -0.000000       6 t-inv F
 -0.250000  0.250000  0.000000       7 t-inv F
  0.000000  0.500000  0.000000       8 t-inv F
  0.250000  0.500000 -0.000000       9 t-inv F
  0.500000  0.500000  0.000000      10 t-inv F
 -0.000000 -0.000000  0.200000      11 t-inv F
  0.250000  0.000000  0.200000      12 t-inv F
  0.500000  0.000000  0.200000      13 t-inv F
 -0.250000 -0.000000  0.200000      14 t-inv F
  0.000000  0.250000  0.200000      15 t-inv F
  0.250000  0.250000  0.200000      16 t-inv F
  0.500000  0.250000  0.200000      17 t-inv F
 -0.250000  0.250000  0.200000      18 t-inv F
  0.000000  0.500000  0.200000      19 t-inv F
  0.250000  0.500000  0.200000      20 t-inv F
  0.500000  0.500000  0.200000      21 t-inv F
 -0.250000  0.500000  0.200000      22 t-inv F
 -0.000000 -0.250000  0.200000      23 t-inv F
  0.250000 -0.250000  0.200000      24 t-inv F
  0.500000 -0.250000  0.200000      25 t-inv F
 -0.250000 -0.250000  0.200000      26 t-inv F
 -0.000000 -0.000000  0.400000      27 t-inv F
  0.250000  0.000000  0.400000      28 t-inv F
  0.500000  0.000000  0.400000      29 t-inv F
 -0.250000  0.000000  0.400000      30 t-inv F
  0.000000  0.250000  0.400000      31 t-inv F
  0.250000  0.250000  0.400000      32 t-inv F
  0.500000  0.250000  0.400000      33 t-inv F
 -0.250000  0.250000  0.400000      34 t-inv F
  0.000000  0.500000  0.400000      35 t-inv F
  0.250000  0.500000  0.400000      36 t-inv F
  0.500000  0.500000  0.400000      37 t-inv F
 -0.250000  0.500000  0.400000      38 t-inv F
  0.000000 -0.250000  0.400000      39 t-inv F
  0.250000 -0.250000  0.400000      40 t-inv F
  0.500000 -0.250000  0.400000      41 t-inv F
 -0.250000 -0.250000  0.400000      42 t-inv F
 -0.250000 -0.000000 -0.000000       2 t-inv T
 -0.000000 -0.250000 -0.000000       4 t-inv T
 -0.250000 -0.250000  0.000000       5 t-inv T
 -0.500000 -0.250000  0.000000       6 t-inv T
  0.250000 -0.250000  0.000000       7 t-inv T
 -0.250000 -0.500000  0.000000       9 t-inv T
  0.000000  0.000000 -0.200000      11 t-inv T
 -0.250000 -0.000000 -0.200000      12 t-inv T
 -0.500000 -0.000000 -0.200000      13 t-inv T
  0.250000  0.000000 -0.200000      14 t-inv T
 -0.000000 -0.250000 -0.200000      15 t-inv T
 -0.250000 -0.250000 -0.200000      16 t-inv T
 -0.500000 -0.250000 -0.200000      17 t-inv T
  0.250000 -0.250000 -0.200000      18 t-inv T
 -0.000000 -0.500000 -0.200000      19 t-inv T
 -0.250000 -0.500000 -0.200000      20 t-inv T
 -0.500000 -0.500000 -0.200000      21 t-inv T
  0.250000 -0.500000 -0.200000      22 t-inv T
  0.000000  0.250000 -0.200000      23 t-inv T
 -0.250000  0.250000 -0.200000      24 t-inv T
 -0.500000  0.250000 -0.200000      25 t-inv T
  0.250000  0.250000 -0.200000      26 t-inv T
  0.000000  0.000000 -0.400000      27 t-inv T
 -0.250000 -0.000000 -0.400000      28 t-inv T
 -0.500000 -0.000000 -0.400000      29 t-inv T
  0.250000 -0.000000 -0.400000      30 t-inv T
 -0.000000 -0.250000 -0.400000      31 t-inv T
 -0.250000 -0.250000 -0.400000      32 t-inv T
 -0.500000 -0.250000 -0.400000      33 t-inv T
  0.250000 -0.250000 -0.400000      34 t-inv T
 -0.000000 -0.500000 -0.400000      35 t-inv T
 -0.250000 -0.500000 -0.400000      36 t-inv T
 -0.500000 -0.500000 -0.400000      37 t-inv T
  0.250000 -0.500000 -0.400000      38 t-inv T
 -0.000000  0.250000 -0.400000      39 t-inv T
 -0.250000  0.250000 -0.400000      40 t-inv T
 -0.500000  0.250000 -0.400000      41 t-inv T
  0.250000  0.250000 -0.400000      42 t-inv T


--------------------------------------------------------------------------------------------------------




 Dimension of arrays:
   k-points           NKPTS =     42   k-points in BZ     NKDIM =     80   number of bands    NBANDS=     80
   number of dos      NEDOS =    301   number of ions     NIONS =     12
   non local maximal  LDIM  =      6   non local SUM 2l+1 LMDIM =     18
   total plane-waves  NPLWV =  32768
   max r-space proj   IRMAX =      1   max aug-charges    IRDMAX=   8224
   dimension x,y,z NGX =    32 NGY =   32 NGZ =   32
   dimension x,y,z NGXF=    64 NGYF=   64 NGZF=   64
   support grid    NGXF=    64 NGYF=   64 NGZF=   64
   ions per type =               4   2   6
 NGX,Y,Z   is equivalent  to a cutoff of   8.18,  8.18,  8.27 a.u.
 NGXF,Y,Z  is equivalent  to a cutoff of  16.37, 16.37, 16.55 a.u.


 I would recommend the setting:
   dimension x,y,z NGX =    32 NGY =   32 NGZ =   31
 SYSTEM =  CGS                                     
 POSCAR =  Cu Ge S                                 

 Startparameter for this run:
   NWRITE =      2    write-flag & timer
   PREC   = normal    normal or accurate (medium, high low for compatibility)
   ISTART =      1    job   : 0-new  1-cont  2-samecut
   ICHARG =      0    charge: 1-file 2-atom 10-const
   ISPIN  =      1    spin polarized calculation?
   LNONCOLLINEAR =      F non collinear calculations
   LSORBIT =      F    spin-orbit coupling
   INIWAV =      1    electr: 0-lowe 1-rand  2-diag
   LASPH  =      F    aspherical Exc in radial PAW
   METAGGA=      F    non-selfconsistent MetaGGA calc.

 Electronic Relaxation 1
   ENCUT  =  400.0 eV  29.40 Ry    5.42 a.u.  10.60 10.60 10.48*2*pi/ulx,y,z
   ENINI  =  400.0     initial cutoff
   ENAUG  =  758.2 eV  augmentation charge cutoff
   NELM   =     60;   NELMIN=  2; NELMDL=  0     # of ELM steps 
   EDIFF  = 0.1E-04   stopping-criterion for ELM
   LREAL  =      F    real-space projection
   NLSPLINE    = F    spline interpolate recip. space projectors
   LCOMPAT=      F    compatible to vasp.4.4
   GGA_COMPAT  = T    GGA compatible to vasp.4.4-vasp.4.6
   LMAXPAW     = -100 max onsite density
   LMAXMIX     =    2 max onsite mixed and CHGCAR
   VOSKOWN=      0    Vosko Wilk Nusair interpolation
   ROPT   =    0.00000   0.00000   0.00000
 Ionic relaxation
   EDIFFG = 0.1E-03   stopping-criterion for IOM
   NSW    =      0    number of steps for IOM
   NBLOCK =      1;   KBLOCK =      1    inner block; outer block 
   IBRION =     -1    ionic relax: 0-MD 1-quasi-New 2-CG
   NFREE  =      0    steps in history (QN), initial steepest desc. (CG)
   ISIF   =      0    stress and relaxation
   IWAVPR =     10    prediction:  0-non 1-charg 2-wave 3-comb
   ISYM   =      3    0-nonsym 1-usesym 2-fastsym
   LCORR  =      T    Harris-Foulkes like correction to forces

   POTIM  = 0.5000    time-step for ionic-motion
   TEIN   =    0.0    initial temperature
   TEBEG  =    0.0;   TEEND  =   0.0 temperature during run
   SMASS  =  -3.00    Nose mass-parameter (am)
   estimated Nose-frequenzy (Omega)   =  0.10E-29 period in steps =****** mass=  -0.966E-27a.u.
   SCALEE = 1.0000    scale energy and forces
   NPACO  =    256;   APACO  = 16.0  distance and # of slots for P.C.
   PSTRESS=    0.0 pullay stress

  Mass of Ions in am
   POMASS =  63.55 72.61 32.07
  Ionic Valenz
   ZVAL   =  17.00  4.00  6.00
  Atomic Wigner-Seitz radii
   RWIGS  =  -1.00 -1.00 -1.00
  virtual crystal weights 
   VCA    =   1.00  1.00  1.00
   NELECT =     112.0000    total number of electrons
   NUPDOWN=      -1.0000    fix difference up-down

 DOS related values:
   EMIN   =  10.00;   EMAX   =-10.00  energy-range for DOS
   EFERMI =   0.00
   ISMEAR =     1;   SIGMA  =   0.10  broadening in eV -4-tet -1-fermi 0-gaus

 Electronic relaxation 2 (details)
   IALGO  =     53    algorithm
   LDIAG  =      T    sub-space diagonalisation (order eigenvalues)
   LSUBROT=      T    optimize rotation matrix (better conditioning)
   TURBO    =      0    0=normal 1=particle mesh
   IRESTART =      0    0=no restart 2=restart with 2 vectors
   NREBOOT  =      0    no. of reboots
   NMIN     =      0    reboot dimension
   EREF     =   0.00    reference energy to select bands
   IMIX   =      4    mixing-type and parameters
     AMIX     =   0.40;   BMIX     =  1.00
     AMIX_MAG =   1.60;   BMIX_MAG =  1.00
     AMIN     =   0.10
     WC   =   100.;   INIMIX=   1;  MIXPRE=   1;  MAXMIX= -45

 Intra band minimization:
   WEIMIN = 0.0000     energy-eigenvalue tresh-hold
   EBREAK =  0.31E-07  absolut break condition
   DEPER  =   0.30     relativ break condition  

   TIME   =   0.40     timestep for ELM

  volume/ion in A,a.u.               =      18.49       124.79
  Fermi-wavevector in a.u.,A,eV,Ry     =   1.303450  2.463163 23.116052  1.698982
  Thomas-Fermi vector in A             =   2.434451
 
 Write flags
   LWAVE  =      T    write WAVECAR
   LCHARG =      T    write CHGCAR
   LVTOT  =      F    write LOCPOT, total local potential
   LVHAR  =      F    write LOCPOT, Hartree potential only
   LELF   =      F    write electronic localiz. function (ELF)
   LORBIT =      0    0 simple, 1 ext, 2 COOP (PROOUT)


 Dipole corrections
   LMONO  =      F    monopole corrections only (constant potential shift)
   LDIPOL =      F    correct potential (dipole corrections)
   IDIPOL =      0    1-x, 2-y, 3-z, 4-all directions 
   EPSILON=  1.0000000 bulk dielectric constant

 Exchange correlation treatment:
   GGA     =    PE    GGA type
   LEXCH   =     8    internal setting for exchange type
   VOSKOWN=      0    Vosko Wilk Nusair interpolation
   EXXOEP  =     0    0=HF, 1=EXX-LHF (local Hartree Fock) 2=EXX OEP
   LHFCALC =     T    Hartree Fock is set to
   LSYMGRAD=     F    symmetrize gradient (conserves proper symmetry)
   PRECFOCK=fast      Normal, Fast or Accurate (Low or Medium for compatibility)
   LRHFCALC=     F    long range Hartree Fock
   LRSCOR  =     F    long range correlation only (use DFT for short range part)
   LTHOMAS =     F    Thomas Fermi screening in HF
   LMODELHF=     F    short range full HF, long range fraction AEXX
   ENCUT4O =  -1.0   cutoff for four orbital integrals eV
   LMAXFOCK=     4    L truncation for augmentation on plane wave grid
   LMAXFOCKAE=  -1    L truncation for all-electron charge restoration on plane wave grid
   NMAXFOCKAE=   1    number of basis functions for all-electron charge restoration
   LFOCKAEDFT=     F  apply the AE augmentation even for DFT
   NKREDX  =     1    reduce k-point grid by
   NKREDY  =     1    reduce k-point grid by
   NKREDZ  =     1    reduce k-point grid by
   SHIFTRED=     F    shift reduced grid of Gamma
   HFKIDENT=     F    idential grid for each k-point
   ODDONLY =     F    use only odd q-grid points
   EVENONLY=     F    use only even q-grid points
   HFALPHA =   -1.0000 decay constant for conv. correction
   MCALPHA =    0.0000 extent of test-charge in conv. correction in multipole expansion
   AEXX    =    0.2500 exact exchange contribution
   HFSCREEN=    0.2000 screening length (either q_TF or 0.3 A-1)
   HFSCREENC=   0.2000 screening length for correlation (either q_TF or 0.3 A-1)
   HFRCUT  =    0.0000 spherical cutoff for potential kernel
   ALDAX   =    0.7500 LDA exchange part
   AGGAX   =    0.7500 GGA exchange part
   ALDAC   =    1.0000 LDA correlation
   AGGAC   =    1.0000 GGA correlation
   NBANDSGWLOW=     1    first orbital included in HF term
 Linear response parameters
   LEPSILON=     F    determine dielectric tensor
   LRPA    =     F    only Hartree local field effects (RPA)
   LNABLA  =     F    use nabla operator in PAW spheres
   LVEL    =     F    velocity operator in full k-point grid
   LINTERFAST=   F  fast interpolation
   KINTER  =     0    interpolate to denser k-point grid
   CSHIFT  =0.1000    complex shift for real part using Kramers Kronig
   OMEGAMAX=  -1.0    maximum frequency
   DEG_THRESHOLD= 0.2000000E-02 threshold for treating states as degnerate
   RTIME   =    0.100 relaxation time in fs

 Orbital magnetization related:
   ORBITALMAG=     F  switch on orbital magnetization
   LCHIMAG   =     F  perturbation theory with respect to B field
   DQ        =  0.001000  dq finite difference perturbation B field



--------------------------------------------------------------------------------------------------------


 Static calculation
 charge density and potential will be updated during run
 non-spin polarized calculation
 Conjugate gradient for all bands, subspace preconditioning
 perform sub-space diagonalisation
    before iterative eigenvector-optimisation
 modified Broyden-mixing scheme, WC =      100.0
 initial mixing is a Kerker type mixing with AMIX =  0.4000 and BMIX =      1.0000
 Hartree-type preconditioning will be used
 using additional bands           24
 reciprocal scheme for non local part
 use partial core corrections
 no Harris-corrections to forces 
 use gradient corrections 
 use of overlap-Matrix (Vanderbilt PP)
 Methfessel and Paxton  Order N= 1 SIGMA  =   0.10


--------------------------------------------------------------------------------------------------------


  energy-cutoff  :      400.00
  volume of cell :      221.90
      direct lattice vectors                 reciprocal lattice vectors
     3.224796000 -5.643830000  0.031572000     0.154525165 -0.088592321  0.053460880
     3.224796000  5.643830000  0.031572000     0.154525165  0.088592321  0.053460880
    -2.101946000  0.000000000  6.075537000    -0.001606004  0.000000000  0.164038877

  length of vectors
     6.500240234  6.500240234  6.428866683     0.185969598  0.185969598  0.164046738


 
 old parameters found on file WAVECAR:
  energy-cutoff  :      400.00
  volume of cell :      222.35
      direct lattice vectors                 reciprocal lattice vectors
     3.227235519 -5.642745207  0.030241751     0.154430495 -0.088609353  0.053450002
     3.227235519  5.642745207  0.030241751     0.154430495  0.088609353  0.053450002
    -2.106135241  0.000000000  6.085154262    -0.001534965  0.000000000  0.163803104

  length of vectors

 
 k-points in units of 2pi/SCALE and weight: pymatgen 4.7.6+ generated KPOINTS with g
   0.00000000  0.00000000  0.00000000       0.013
   0.03863129 -0.02214808  0.01336522       0.025
   0.07726258 -0.04429616  0.02673044       0.013
   0.03863129  0.02214808  0.01336522       0.025
   0.07726258  0.00000000  0.02673044       0.025
   0.11589387 -0.02214808  0.04009566       0.025
   0.00000000  0.04429616  0.00000000       0.025
   0.07726258  0.04429616  0.02673044       0.013
   0.11589387  0.02214808  0.04009566       0.025
   0.15452516  0.00000000  0.05346088       0.013
  -0.00032120  0.00000000  0.03280778       0.025
   0.03831009 -0.02214808  0.04617300       0.025
   0.07694138 -0.04429616  0.05953822       0.025
  -0.03895249  0.02214808  0.01944256       0.025
   0.03831009  0.02214808  0.04617300       0.025
   0.07694138  0.00000000  0.05953822       0.025
   0.11557267 -0.02214808  0.07290344       0.025
  -0.00032120  0.04429616  0.03280778       0.025
   0.07694138  0.04429616  0.05953822       0.025
   0.11557267  0.02214808  0.07290344       0.025
   0.15420396  0.00000000  0.08626865       0.025
   0.03831009  0.06644424  0.04617300       0.025
  -0.03895249 -0.02214808  0.01944256       0.025
  -0.00032120 -0.04429616  0.03280778       0.025
   0.03831009 -0.06644424  0.04617300       0.025
  -0.07758378  0.00000000  0.00607734       0.025
  -0.00064240  0.00000000  0.06561555       0.025
   0.03798889 -0.02214808  0.07898077       0.025
   0.07662018 -0.04429616  0.09234599       0.025
  -0.03927369  0.02214808  0.05225033       0.025
   0.03798889  0.02214808  0.07898077       0.025
   0.07662018  0.00000000  0.09234599       0.025
   0.11525147 -0.02214808  0.10571121       0.025
  -0.00064240  0.04429616  0.06561555       0.025
   0.07662018  0.04429616  0.09234599       0.025
   0.11525147  0.02214808  0.10571121       0.025
   0.15388276  0.00000000  0.11907643       0.025
   0.03798889  0.06644424  0.07898077       0.025
  -0.03927369 -0.02214808  0.05225033       0.025
  -0.00064240 -0.04429616  0.06561555       0.025
   0.03798889 -0.06644424  0.07898077       0.025
  -0.07790498  0.00000000  0.03888511       0.025
 
 k-points in reciprocal lattice and weights: pymatgen 4.7.6+ generated KPOINTS with g
   0.00000000  0.00000000  0.00000000       0.013
   0.25000000  0.00000000  0.00000000       0.025
   0.50000000  0.00000000  0.00000000       0.013
   0.00000000  0.25000000  0.00000000       0.025
   0.25000000  0.25000000  0.00000000       0.025
   0.50000000  0.25000000 -0.00000000       0.025
  -0.25000000  0.25000000  0.00000000       0.025
   0.00000000  0.50000000  0.00000000       0.013
   0.25000000  0.50000000 -0.00000000       0.025
   0.50000000  0.50000000  0.00000000       0.013
  -0.00000000 -0.00000000  0.20000000       0.025
   0.25000000  0.00000000  0.20000000       0.025
   0.50000000  0.00000000  0.20000000       0.025
  -0.25000000 -0.00000000  0.20000000       0.025
   0.00000000  0.25000000  0.20000000       0.025
   0.25000000  0.25000000  0.20000000       0.025
   0.50000000  0.25000000  0.20000000       0.025
  -0.25000000  0.25000000  0.20000000       0.025
   0.00000000  0.50000000  0.20000000       0.025
   0.25000000  0.50000000  0.20000000       0.025
   0.50000000  0.50000000  0.20000000       0.025
  -0.25000000  0.50000000  0.20000000       0.025
  -0.00000000 -0.25000000  0.20000000       0.025
   0.25000000 -0.25000000  0.20000000       0.025
   0.50000000 -0.25000000  0.20000000       0.025
  -0.25000000 -0.25000000  0.20000000       0.025
  -0.00000000 -0.00000000  0.40000000       0.025
   0.25000000  0.00000000  0.40000000       0.025
   0.50000000  0.00000000  0.40000000       0.025
  -0.25000000  0.00000000  0.40000000       0.025
   0.00000000  0.25000000  0.40000000       0.025
   0.25000000  0.25000000  0.40000000       0.025
   0.50000000  0.25000000  0.40000000       0.025
  -0.25000000  0.25000000  0.40000000       0.025
   0.00000000  0.50000000  0.40000000       0.025
   0.25000000  0.50000000  0.40000000       0.025
   0.50000000  0.50000000  0.40000000       0.025
  -0.25000000  0.50000000  0.40000000       0.025
   0.00000000 -0.25000000  0.40000000       0.025
   0.25000000 -0.25000000  0.40000000       0.025
   0.50000000 -0.25000000  0.40000000       0.025
  -0.25000000 -0.25000000  0.40000000       0.025
 
 position of ions in fractional coordinates (direct lattice) 
   0.61844300  0.12117100  0.11953300
   0.12117100  0.61844300  0.61953300
   0.96295700  0.79032200  0.11881300
   0.79032200  0.96295700  0.61881300
   0.43973200  0.26728100  0.59904700
   0.26728100  0.43973200  0.09904700
   0.07949800  0.91167500  0.49736300
   0.57140300  0.41082560  0.98018400
   0.73711100  0.25006200  0.49504900
   0.41236400  0.57140300  0.48018400
   0.91167500  0.07949800  0.99736300
   0.25006200  0.73711100  0.99504900
 
 position of ions in cartesian coordinates  (Angst):
   2.13385236 -2.80651863  0.74957826
   1.08287936  2.80651863  3.78734676
   5.40422860 -0.97432259  0.77720730
   4.35325560  0.97432259  3.81497580
   1.02080825 -0.97328413  3.66185403
   2.07178125  0.97328413  0.62408553
   2.15090056  4.69666552  3.05304062
   1.10719301 -0.90627157  5.98615508
   2.14286528 -2.74882176  3.03885554
   2.16312705  0.89758908  2.94843515
   1.09992756 -4.69666552  6.09080912
   1.09189228  2.74882176  6.07662404
 


--------------------------------------------------------------------------------------------------------


 k-point  1 :   0.0000 0.0000 0.0000  plane waves:    4051
 k-point  2 :   0.2500 0.0000 0.0000  plane waves:    4032
 k-point  3 :   0.5000 0.0000 0.0000  plane waves:    4030
 k-point  4 :   0.0000 0.2500 0.0000  plane waves:    4032
 k-point  5 :   0.2500 0.2500 0.0000  plane waves:    4038
 k-point  6 :   0.5000 0.2500-0.0000  plane waves:    4037
 k-point  7 :  -0.2500 0.2500 0.0000  plane waves:    4042
 k-point  8 :   0.0000 0.5000 0.0000  plane waves:    4030
 k-point  9 :   0.2500 0.5000-0.0000  plane waves:    4037
 k-point 10 :   0.5000 0.5000 0.0000  plane waves:    4026
 k-point 11 :  -0.0000-0.0000 0.2000  plane waves:    4046
 k-point 12 :   0.2500 0.0000 0.2000  plane waves:    4034
 k-point 13 :   0.5000 0.0000 0.2000  plane waves:    4025
 k-point 14 :  -0.2500-0.0000 0.2000  plane waves:    4044
 k-point 15 :   0.0000 0.2500 0.2000  plane waves:    4034
 k-point 16 :   0.2500 0.2500 0.2000  plane waves:    4017
 k-point 17 :   0.5000 0.2500 0.2000  plane waves:    4039
 k-point 18 :  -0.2500 0.2500 0.2000  plane waves:    4042
 k-point 19 :   0.0000 0.5000 0.2000  plane waves:    4025
 k-point 20 :   0.2500 0.5000 0.2000  plane waves:    4039
 k-point 21 :   0.5000 0.5000 0.2000  plane waves:    4030
 k-point 22 :  -0.2500 0.5000 0.2000  plane waves:    4030
 k-point 23 :  -0.0000-0.2500 0.2000  plane waves:    4044
 k-point 24 :   0.2500-0.2500 0.2000  plane waves:    4042
 k-point 25 :   0.5000-0.2500 0.2000  plane waves:    4030
 k-point 26 :  -0.2500-0.2500 0.2000  plane waves:    4020
 k-point 27 :  -0.0000-0.0000 0.4000  plane waves:    4027
 k-point 28 :   0.2500 0.0000 0.4000  plane waves:    4034
 k-point 29 :   0.5000 0.0000 0.4000  plane waves:    4013
 k-point 30 :  -0.2500 0.0000 0.4000  plane waves:    4042
 k-point 31 :   0.0000 0.2500 0.4000  plane waves:    4034
 k-point 32 :   0.2500 0.2500 0.4000  plane waves:    4009
 k-point 33 :   0.5000 0.2500 0.4000  plane waves:    4026
 k-point 34 :  -0.2500 0.2500 0.4000  plane waves:    4027
 k-point 35 :   0.0000 0.5000 0.4000  plane waves:    4013
 k-point 36 :   0.2500 0.5000 0.4000  plane waves:    4026
 k-point 37 :   0.5000 0.5000 0.4000  plane waves:    4037
 k-point 38 :  -0.2500 0.5000 0.4000  plane waves:    4022
 k-point 39 :   0.0000-0.2500 0.4000  plane waves:    4042
 k-point 40 :   0.2500-0.2500 0.4000  plane waves:    4027
 k-point 41 :   0.5000-0.2500 0.4000  plane waves:    4022
 k-point 42 :  -0.2500-0.2500 0.4000  plane waves:    4015

 maximum and minimum number of plane-waves per node :      4051     4009

 maximum number of plane-waves:      4051
 maximum index in each direction: 
   IXMAX=   10   IYMAX=   10   IZMAX=   10
   IXMIN=  -11   IYMIN=  -11   IZMIN=  -10

 WARNING: aliasing errors must be expected set NGX to  44 to avoid them
 WARNING: aliasing errors must be expected set NGY to  44 to avoid them
 WARNING: aliasing errors must be expected set NGZ to  42 to avoid them
 aliasing errors are usually negligible using standard VASP settings
 and one can safely disregard these warnings

 serial   3D FFT for wavefunctions
 parallel 3D FFT for charge:
    minimum data exchange during FFTs selected (reduces bandwidth)


 FFT grid for exact exchange (Hartree Fock) 
  NGX = 24; NGY = 24; NGZ = 24

 
 Radii for the augmentation spheres in the non-local exchange
 for species   1 augmentation radius   1.120 (default was   0.830)
       energy cutoff for augmentation   1600.0
 for species   2 augmentation radius   1.570 (default was   1.163)
       energy cutoff for augmentation   1600.0
 for species   3 augmentation radius   1.034 (default was   0.970)
       energy cutoff for augmentation   1600.0

 total amount of memory used by VASP on root node   151697. kBytes
========================================================================

   base      :      30000. kBytes
   nonl-proj :      74517. kBytes
   fftplans  :        702. kBytes
   grid      :       2400. kBytes
   one-center:        186. kBytes
   HF        :        194. kBytes
   nonlr-proj:       1122. kBytes
   wavefun   :      42576. kBytes
 
 Broyden mixing: mesh for mixing (old mesh)
   NGX = 21   NGY = 21   NGZ = 21
  (NGX  = 64   NGY  = 64   NGZ  = 64)
  gives a total of   9261 points

 charge density for first step will be calculated from the start-wavefunctions


--------------------------------------------------------------------------------------------------------


 Maximum index for augmentation-charges          485 (set IRDMAX)


--------------------------------------------------------------------------------------------------------


 initial charge from wavefunction
 First call to EWALD:  gamma=   0.293
 Maximum number of real-space cells 3x 3x 3
 Maximum number of reciprocal cells 3x 3x 3

 FEWALD executed in parallel
    FEWALD:  cpu time    0.00: real time    0.00


----------------------------------------- Iteration    1(   1)  ---------------------------------------


    POTLOK:  cpu time    0.06: real time    0.06
    SETDIJ:  cpu time    1.94: real time    1.95
 
    SUBROT:  cpu time    0.88: real time    0.89
    SUBROT:  cpu time    0.41: real time    0.41
    SUBROT:  cpu time    0.42: real time    0.42
    --------------------------------------------
    SUBRT+:  cpu time    1.71: real time    1.73

 Broyden mixing:
  rms(total) = 0.25824E-01    rms(broyden)= 0.25806E-01
  rms(prec ) = 0.41442E-01
  weight for this iteration     100.00

 eigenvalues of (default mixing * dielectric matrix)
  average eigenvalue GAMMA=   1.7657
  1.0883  2.4431
 
    TRIAL :  cpu time  237.47: real time  238.54
    CORREC:  cpu time    0.00: real time    0.00
    CHARGE:  cpu time    0.06: real time    0.06
    --------------------------------------------
      LOOP:  cpu time  239.54: real time  240.61

 eigenvalue-minimisations  :     0
 total energy-change (2. order) : 0.7553866E+02  (-0.2132352E+03)
 number of electron     112.0001480 magnetization 
 augmentation part       38.9113938 magnetization 

 Free energy of the ion-electron system (eV)
  ---------------------------------------------------
  alpha Z        PSCENC =       339.31929130
  Ewald energy   TEWEN  =     -9063.90769625
  -1/2 Hartree   DENC   =     -8067.44581043
  -exchange  EXHF       =       327.44911173
  -V(xc)+E(xc)   XCENC  =       369.90403715
  PAW double counting   =     16899.37376960   -17392.18730937
  entropy T*S    EENTRO =        -0.00144845
  eigenvalues    EBANDS =     -1657.95041529
  atomic energy  EATOM  =     18320.98302006
  ---------------------------------------------------
  free energy    TOTEN  =        75.53866179 eV

  energy without entropy =       75.54011024  energy(sigma->0) =       75.53914460


--------------------------------------------------------------------------------------------------------




----------------------------------------- Iteration    1(   2)  ---------------------------------------


    POTLOK:  cpu time    0.05: real time    0.05
    SETDIJ:  cpu time    1.97: real time    1.98
 
    SUBROT:  cpu time    0.86: real time    0.86
    SUBROT:  cpu time    0.44: real time    0.44
    SUBROT:  cpu time    0.42: real time    0.42
    SUBROT:  cpu time    0.42: real time    0.43
    --------------------------------------------
    SUBRT+:  cpu time    2.15: real time    2.17

 Broyden mixing:
  rms(total) = 0.27869E-01    rms(broyden)= 0.27859E-01
  rms(prec ) = 0.50932E-01
  weight for this iteration     100.00

 eigenvalues of (default mixing * dielectric matrix)
  average eigenvalue GAMMA=   1.5313
  2.5419  1.2053  0.8467
 
    TRIAL :  cpu time  242.94: real time  243.98
    CORREC:  cpu time    0.00: real time    0.00
    CHARGE:  cpu time    0.06: real time    0.06
    --------------------------------------------
      LOOP:  cpu time  245.03: real time  246.09

 eigenvalue-minimisations  :     0
 total energy-change (2. order) :-0.8391364E+02  (-0.1468922E+03)
 number of electron     112.0001385 magnetization 
 augmentation part       35.4493253 magnetization 

 Free energy of the ion-electron system (eV)
  ---------------------------------------------------
  alpha Z        PSCENC =       339.31929130
  Ewald energy   TEWEN  =     -9063.90769625
  -1/2 Hartree   DENC   =     -8371.15599465
  -exchange  EXHF       =       338.95843919
  -V(xc)+E(xc)   XCENC  =       377.32257154
  PAW double counting   =     17401.46566660   -17940.60193582
  entropy T*S    EENTRO =        -0.00064935
  eigenvalues    EBANDS =     -1410.75688857
  atomic energy  EATOM  =     18320.98302006
  ---------------------------------------------------
  free energy    TOTEN  =        -8.37497504 eV

  energy without entropy =       -8.37432568  energy(sigma->0) =       -8.37475858


--------------------------------------------------------------------------------------------------------




----------------------------------------- Iteration    1(   3)  ---------------------------------------


    POTLOK:  cpu time    0.05: real time    0.05
    SETDIJ:  cpu time    1.96: real time    1.98
 
    SUBROT:  cpu time    0.89: real time    0.89
    SUBROT:  cpu time    0.42: real time    0.42
    SUBROT:  cpu time    0.42: real time    0.42
    SUBROT:  cpu time    0.41: real time    0.41
    --------------------------------------------
    SUBRT+:  cpu time    2.14: real time    2.16

 Broyden mixing:
  rms(total) = 0.28118E-01    rms(broyden)= 0.28107E-01
  rms(prec ) = 0.52355E-01
  weight for this iteration     100.00

 eigenvalues of (default mixing * dielectric matrix)
  average eigenvalue GAMMA=   1.7747
  1.0114  2.4988  1.8138
 
    TRIAL :  cpu time  243.47: real time  244.50
    CORREC:  cpu time    0.00: real time    0.00
    CHARGE:  cpu time    0.06: real time    0.06
    --------------------------------------------
      LOOP:  cpu time  245.55: real time  246.60

 eigenvalue-minimisations  :     0
 total energy-change (2. order) :-0.6721410E+01  (-0.2038138E+03)
 number of electron     112.0001511 magnetization 
 augmentation part       39.6880466 magnetization 

 Free energy of the ion-electron system (eV)
  ---------------------------------------------------
  alpha Z        PSCENC =       339.31929130
  Ewald energy   TEWEN  =     -9063.90769625
  -1/2 Hartree   DENC   =     -7477.43605487
  -exchange  EXHF       =       324.96151705
  -V(xc)+E(xc)   XCENC  =       357.37122286
  PAW double counting   =     15148.67640502   -15578.09555096
  entropy T*S    EENTRO =         0.00014111
  eigenvalues    EBANDS =     -2386.96789024
  atomic energy  EATOM  =     18320.98302006
  ---------------------------------------------------
  free energy    TOTEN  =       -15.09638538 eV

  energy without entropy =      -15.09652649  energy(sigma->0) =      -15.09643242


--------------------------------------------------------------------------------------------------------




----------------------------------------- Iteration    1(   4)  ---------------------------------------


    POTLOK:  cpu time    0.06: real time    0.06
    SETDIJ:  cpu time    1.97: real time    1.97
 
    SUBROT:  cpu time    0.89: real time    0.89
    SUBROT:  cpu time    0.43: real time    0.43
    SUBROT:  cpu time    0.42: real time    0.42
    SUBROT:  cpu time    0.42: real time    0.42
    SUBROT:  cpu time    0.44: real time    0.44
    --------------------------------------------
    SUBRT+:  cpu time    2.59: real time    2.61

 Broyden mixing:
  rms(total) = 0.11997E+00    rms(broyden)= 0.11980E+00
  rms(prec ) = 0.21118E+00
  weight for this iteration     100.00

 eigenvalues of (default mixing * dielectric matrix)
  average eigenvalue GAMMA=   1.2264
  2.5759  1.3092  0.6451  0.3755
 
    TRIAL :  cpu time  244.06: real time  245.07
    CORREC:  cpu time    0.00: real time    0.00
    CHARGE:  cpu time    0.06: real time    0.06
    --------------------------------------------
      LOOP:  cpu time  246.15: real time  247.18

 eigenvalue-minimisations  :     0
 total energy-change (2. order) :-0.7461013E+01  (-0.1075920E+03)
 number of electron     112.0001431 magnetization 
 augmentation part       37.2398038 magnetization 

 Free energy of the ion-electron system (eV)
  ---------------------------------------------------
  alpha Z        PSCENC =       339.31929130
  Ewald energy   TEWEN  =     -9063.90769625
  -1/2 Hartree   DENC   =     -8544.96098519
  -exchange  EXHF       =       343.00235168
  -V(xc)+E(xc)   XCENC  =       381.67494660
  PAW double counting   =     17636.99060832   -18217.91753459
  entropy T*S    EENTRO =         0.00037109
  eigenvalues    EBANDS =     -1217.74154183
  atomic energy  EATOM  =     18320.98302006
  ---------------------------------------------------
  free energy    TOTEN  =       -22.55739878 eV

  energy without entropy =      -22.55776987  energy(sigma->0) =      -22.55752247


--------------------------------------------------------------------------------------------------------




----------------------------------------- Iteration    1(   5)  ---------------------------------------


    POTLOK:  cpu time    0.06: real time    0.06
    SETDIJ:  cpu time    1.99: real time    2.00
 
    SUBROT:  cpu time    0.90: real time    0.90
    SUBROT:  cpu time    0.41: real time    0.41
    SUBROT:  cpu time    0.41: real time    0.42
    SUBROT:  cpu time    0.42: real time    0.42
    --------------------------------------------
    SUBRT+:  cpu time    2.14: real time    2.17

 Broyden mixing:
  rms(total) = 0.44031E-01    rms(broyden)= 0.44021E-01
  rms(prec ) = 0.90086E-01
  weight for this iteration     100.00

 eigenvalues of (default mixing * dielectric matrix)
  average eigenvalue GAMMA=   1.6896
  2.4592  0.9351  1.6746
 
    TRIAL :  cpu time  243.85: real time  244.85
    CORREC:  cpu time    0.00: real time    0.00
    CHARGE:  cpu time    0.06: real time    0.06
    --------------------------------------------
      LOOP:  cpu time  245.96: real time  246.98

 eigenvalue-minimisations  :     0
 total energy-change (2. order) :-0.3824557E+02  (-0.1509083E+02)
 number of electron     112.0001430 magnetization 
 augmentation part       37.2463207 magnetization 

 Free energy of the ion-electron system (eV)
  ---------------------------------------------------
  alpha Z        PSCENC =       339.31929130
  Ewald energy   TEWEN  =     -9063.90769625
  -1/2 Hartree   DENC   =     -8007.91181433
  -exchange  EXHF       =       336.36008778
  -V(xc)+E(xc)   XCENC  =       368.37484807
  PAW double counting   =     15869.02295007   -16338.40595923
  entropy T*S    EENTRO =         0.00064131
  eigenvalues    EBANDS =     -1884.63806348
  atomic energy  EATOM  =     18320.98302006
  ---------------------------------------------------
  free energy    TOTEN  =       -60.80296492 eV

  energy without entropy =      -60.80360623  energy(sigma->0) =      -60.80317869


--------------------------------------------------------------------------------------------------------




----------------------------------------- Iteration    1(   6)  ---------------------------------------


    POTLOK:  cpu time    0.05: real time    0.05
    SETDIJ:  cpu time    1.99: real time    1.99
 
    SUBROT:  cpu time    0.89: real time    0.90
    SUBROT:  cpu time    0.43: real time    0.43
    SUBROT:  cpu time    0.43: real time    0.43
    SUBROT:  cpu time    0.43: real time    0.43
    --------------------------------------------
    SUBRT+:  cpu time    2.18: real time    2.19

 Broyden mixing:
  rms(total) = 0.27421E-02    rms(broyden)= 0.27415E-02
  rms(prec ) = 0.45508E-02
  weight for this iteration     100.00

 eigenvalues of (default mixing * dielectric matrix)
  average eigenvalue GAMMA=   1.8328
  1.0170  2.5248  1.9566
 
    TRIAL :  cpu time  243.52: real time  244.50
    CORREC:  cpu time    0.00: real time    0.00
    CHARGE:  cpu time    0.06: real time    0.06
    --------------------------------------------
      LOOP:  cpu time  245.62: real time  246.62

 eigenvalue-minimisations  :     0
 total energy-change (2. order) :-0.5130585E+01  (-0.8166519E+01)
 number of electron     112.0001461 magnetization 
 augmentation part       38.2272482 magnetization 

 Free energy of the ion-electron system (eV)
  ---------------------------------------------------
  alpha Z        PSCENC =       339.31929130
  Ewald energy   TEWEN  =     -9063.90769625
  -1/2 Hartree   DENC   =     -8002.19458248
  -exchange  EXHF       =       337.14234443
  -V(xc)+E(xc)   XCENC  =       368.78609319
  PAW double counting   =     15772.15924504   -16241.26881497
  entropy T*S    EENTRO =         0.00065233
  eigenvalues    EBANDS =     -1896.95309128
  atomic energy  EATOM  =     18320.98302006
  ---------------------------------------------------
  free energy    TOTEN  =       -65.93354966 eV

  energy without entropy =      -65.93420199  energy(sigma->0) =      -65.93376710


--------------------------------------------------------------------------------------------------------




----------------------------------------- Iteration    1(   7)  ---------------------------------------


    POTLOK:  cpu time    0.05: real time    0.05
    SETDIJ:  cpu time    1.95: real time    1.96
 
    SUBROT:  cpu time    0.87: real time    0.88
    SUBROT:  cpu time    0.41: real time    0.42
    SUBROT:  cpu time    0.41: real time    0.41
    SUBROT:  cpu time    0.41: real time    0.41
    --------------------------------------------
    SUBRT+:  cpu time    2.11: real time    2.12

 Broyden mixing:
  rms(total) = 0.13276E-01    rms(broyden)= 0.13272E-01
  rms(prec ) = 0.23457E-01
  weight for this iteration     100.00

 eigenvalues of (default mixing * dielectric matrix)
  average eigenvalue GAMMA=   1.5891
  2.5009  0.8875  1.3789
 
    TRIAL :  cpu time  243.57: real time  244.56
    CORREC:  cpu time    0.00: real time    0.00
    CHARGE:  cpu time    0.06: real time    0.06
    --------------------------------------------
      LOOP:  cpu time  245.63: real time  246.63

 eigenvalue-minimisations  :     0
 total energy-change (2. order) :-0.1539477E+01  (-0.4137152E+01)
 number of electron     112.0001444 magnetization 
 augmentation part       37.7044367 magnetization 

 Free energy of the ion-electron system (eV)
  ---------------------------------------------------
  alpha Z        PSCENC =       339.31929130
  Ewald energy   TEWEN  =     -9063.90769625
  -1/2 Hartree   DENC   =     -8244.11275121
  -exchange  EXHF       =       341.61456775
  -V(xc)+E(xc)   XCENC  =       374.55708686
  PAW double counting   =     16207.64119590   -16711.02196095
  entropy T*S    EENTRO =         0.00041420
  eigenvalues    EBANDS =     -1632.54643272
  atomic energy  EATOM  =     18320.98302006
  ---------------------------------------------------
  free energy    TOTEN  =       -67.47302692 eV

  energy without entropy =      -67.47344112  energy(sigma->0) =      -67.47316498


--------------------------------------------------------------------------------------------------------




----------------------------------------- Iteration    1(   8)  ---------------------------------------


    POTLOK:  cpu time    0.05: real time    0.05
    SETDIJ:  cpu time    2.01: real time    2.01
 
    SUBROT:  cpu time    0.86: real time    0.86
    SUBROT:  cpu time    0.42: real time    0.42
    SUBROT:  cpu time    0.42: real time    0.43
    SUBROT:  cpu time    0.43: real time    0.43
    --------------------------------------------
    SUBRT+:  cpu time    2.14: real time    2.14

 Broyden mixing:
  rms(total) = 0.84522E-02    rms(broyden)= 0.84498E-02
  rms(prec ) = 0.14124E-01
  weight for this iteration     100.00

 eigenvalues of (default mixing * dielectric matrix)
  average eigenvalue GAMMA=   1.6665
  2.4585  0.9466  1.5944
 
    TRIAL :  cpu time  244.43: real time  244.33
    CORREC:  cpu time    0.00: real time    0.00
    CHARGE:  cpu time    0.08: real time    0.08
    --------------------------------------------
      LOOP:  cpu time  246.57: real time  246.49

 eigenvalue-minimisations  :     0
 total energy-change (2. order) :-0.1611095E+01  (-0.7725590E+00)
 number of electron     112.0001444 magnetization 
 augmentation part       37.7243219 magnetization 

 Free energy of the ion-electron system (eV)
  ---------------------------------------------------
  alpha Z        PSCENC =       339.31929130
  Ewald energy   TEWEN  =     -9063.90769625
  -1/2 Hartree   DENC   =     -8117.29584430
  -exchange  EXHF       =       339.51349317
  -V(xc)+E(xc)   XCENC  =       371.37606429
  PAW double counting   =     15915.94000861   -16397.28466990
  entropy T*S    EENTRO =         0.00070060
  eigenvalues    EBANDS =     -1777.72820273
  atomic energy  EATOM  =     18320.98302006
  ---------------------------------------------------
  free energy    TOTEN  =       -69.08412155 eV

  energy without entropy =      -69.08482215  energy(sigma->0) =      -69.08435508


--------------------------------------------------------------------------------------------------------




----------------------------------------- Iteration    1(   9)  ---------------------------------------


    POTLOK:  cpu time    0.06: real time    0.07
    SETDIJ:  cpu time    1.98: real time    1.98
 
    SUBROT:  cpu time    0.91: real time    0.91
    SUBROT:  cpu time    0.44: real time    0.44
    SUBROT:  cpu time    0.43: real time    0.43
    SUBROT:  cpu time    0.44: real time    0.44
    --------------------------------------------
    SUBRT+:  cpu time    2.22: real time    2.23

 Broyden mixing:
  rms(total) = 0.50623E-03    rms(broyden)= 0.50562E-03
  rms(prec ) = 0.80541E-03
  weight for this iteration     100.00

 eigenvalues of (default mixing * dielectric matrix)
  average eigenvalue GAMMA=   1.7017
  2.5282  1.0016  1.5751
 
    TRIAL :  cpu time  244.79: real time  244.58
    CORREC:  cpu time    0.00: real time    0.00
    CHARGE:  cpu time    0.06: real time    0.06
    --------------------------------------------
      LOOP:  cpu time  246.90: real time  246.69

 eigenvalue-minimisations  :     0
 total energy-change (2. order) :-0.3111875E+00  (-0.3857742E+00)
 number of electron     112.0001450 magnetization 
 augmentation part       37.9052602 magnetization 

 Free energy of the ion-electron system (eV)
  ---------------------------------------------------
  alpha Z        PSCENC =       339.31929130
  Ewald energy   TEWEN  =     -9063.90769625
  -1/2 Hartree   DENC   =     -8125.15982507
  -exchange  EXHF       =       339.59148057
  -V(xc)+E(xc)   XCENC  =       371.44458035
  PAW double counting   =     15912.63537224   -16393.91012113
  entropy T*S    EENTRO =         0.00082982
  eigenvalues    EBANDS =     -1770.39211167
  atomic energy  EATOM  =     18320.98302006
  ---------------------------------------------------
  free energy    TOTEN  =       -69.39530900 eV

  energy without entropy =      -69.39613882  energy(sigma->0) =      -69.39558561


--------------------------------------------------------------------------------------------------------




----------------------------------------- Iteration    1(  10)  ---------------------------------------


    POTLOK:  cpu time    0.05: real time    0.05
    SETDIJ:  cpu time    2.02: real time    2.02
 
    SUBROT:  cpu time    0.90: real time    0.90
    SUBROT:  cpu time    0.45: real time    0.45
    SUBROT:  cpu time    0.45: real time    0.45
    SUBROT:  cpu time    0.44: real time    0.44
    --------------------------------------------
    SUBRT+:  cpu time    2.24: real time    2.25

 Broyden mixing:
  rms(total) = 0.22975E-02    rms(broyden)= 0.22970E-02
  rms(prec ) = 0.38609E-02
  weight for this iteration     100.00

 eigenvalues of (default mixing * dielectric matrix)
  average eigenvalue GAMMA=   1.6815
  2.4756  0.9882  1.5807
 
    TRIAL :  cpu time  244.95: real time  244.74
    CORREC:  cpu time    0.00: real time    0.00
    CHARGE:  cpu time    0.08: real time    0.08
    --------------------------------------------
      LOOP:  cpu time  247.11: real time  246.90

 eigenvalue-minimisations  :     0
 total energy-change (2. order) :-0.1035740E+00  (-0.1525393E+00)
 number of electron     112.0001447 magnetization 
 augmentation part       37.8179300 magnetization 

 Free energy of the ion-electron system (eV)
  ---------------------------------------------------
  alpha Z        PSCENC =       339.31929130
  Ewald energy   TEWEN  =     -9063.90769625
  -1/2 Hartree   DENC   =     -8172.45080309
  -exchange  EXHF       =       340.39364431
  -V(xc)+E(xc)   XCENC  =       372.53976211
  PAW double counting   =     15994.24836109   -16482.24314832
  entropy T*S    EENTRO =         0.00067085
  eigenvalues    EBANDS =     -1718.38214401
  atomic energy  EATOM  =     18320.98302006
  ---------------------------------------------------
  free energy    TOTEN  =       -69.49888299 eV

  energy without entropy =      -69.49955384  energy(sigma->0) =      -69.49910661


--------------------------------------------------------------------------------------------------------




----------------------------------------- Iteration    1(  11)  ---------------------------------------


    POTLOK:  cpu time    0.06: real time    0.06
    SETDIJ:  cpu time    1.98: real time    1.98
 
    SUBROT:  cpu time    0.90: real time    0.91
    SUBROT:  cpu time    0.45: real time    0.45
    SUBROT:  cpu time    0.44: real time    0.44
    SUBROT:  cpu time    0.45: real time    0.45
    --------------------------------------------
    SUBRT+:  cpu time    2.24: real time    2.25

 Broyden mixing:
  rms(total) = 0.78654E-03    rms(broyden)= 0.78629E-03
  rms(prec ) = 0.15690E-02
  weight for this iteration     100.00

 eigenvalues of (default mixing * dielectric matrix)
  average eigenvalue GAMMA=   1.6601
  2.4961  0.9836  1.5006
 
    TRIAL :  cpu time  244.28: real time  244.07
    CORREC:  cpu time    0.00: real time    0.00
    CHARGE:  cpu time    0.09: real time    0.09
    --------------------------------------------
      LOOP:  cpu time  246.41: real time  246.20

 eigenvalue-minimisations  :     0
 total energy-change (2. order) :-0.6968042E-01  (-0.3686007E-01)
 number of electron     112.0001446 magnetization 
 augmentation part       37.7853161 magnetization 

 Free energy of the ion-electron system (eV)
  ---------------------------------------------------
  alpha Z        PSCENC =       339.31929130
  Ewald energy   TEWEN  =     -9063.90769625
  -1/2 Hartree   DENC   =     -8151.03272112
  -exchange  EXHF       =       340.06453340
  -V(xc)+E(xc)   XCENC  =       372.06544315
  PAW double counting   =     15942.09632663   -16427.04487098
  entropy T*S    EENTRO =         0.00056587
  eigenvalues    EBANDS =     -1742.11256044
  atomic energy  EATOM  =     18320.98302006
  ---------------------------------------------------
  free energy    TOTEN  =       -69.56856341 eV

  energy without entropy =      -69.56912928  energy(sigma->0) =      -69.56875204


--------------------------------------------------------------------------------------------------------




----------------------------------------- Iteration    1(  12)  ---------------------------------------


    POTLOK:  cpu time    0.06: real time    0.06
    SETDIJ:  cpu time    2.04: real time    2.04
 
    SUBROT:  cpu time    0.94: real time    0.94
    SUBROT:  cpu time    0.44: real time    0.44
    SUBROT:  cpu time    0.43: real time    0.43
    SUBROT:  cpu time    0.43: real time    0.43
    --------------------------------------------
    SUBRT+:  cpu time    2.25: real time    2.26

 Broyden mixing:
  rms(total) = 0.20680E-03    rms(broyden)= 0.20671E-03
  rms(prec ) = 0.45173E-03
  weight for this iteration     100.00

 eigenvalues of (default mixing * dielectric matrix)
  average eigenvalue GAMMA=   1.6463
  2.5065  0.9989  1.4336
 
    TRIAL :  cpu time  244.47: real time  244.27
    CORREC:  cpu time    0.00: real time    0.00
    CHARGE:  cpu time    0.08: real time    0.08
    --------------------------------------------
      LOOP:  cpu time  246.66: real time  246.46

 eigenvalue-minimisations  :     0
 total energy-change (2. order) :-0.1236000E-01  (-0.2284946E-01)
 number of electron     112.0001448 magnetization 
 augmentation part       37.8256222 magnetization 

 Free energy of the ion-electron system (eV)
  ---------------------------------------------------
  alpha Z        PSCENC =       339.31929130
  Ewald energy   TEWEN  =     -9063.90769625
  -1/2 Hartree   DENC   =     -8142.70571930
  -exchange  EXHF       =       339.94936305
  -V(xc)+E(xc)   XCENC  =       371.89165488
  PAW double counting   =     15920.32200283   -16404.19206133
  entropy T*S    EENTRO =         0.00051818
  eigenvalues    EBANDS =     -1751.24134453
  atomic energy  EATOM  =     18320.98302006
  ---------------------------------------------------
  free energy    TOTEN  =       -69.58092342 eV

  energy without entropy =      -69.58144160  energy(sigma->0) =      -69.58109614


--------------------------------------------------------------------------------------------------------




----------------------------------------- Iteration    1(  13)  ---------------------------------------


    POTLOK:  cpu time    0.05: real time    0.05
    SETDIJ:  cpu time    1.96: real time    1.96
 
    SUBROT:  cpu time    0.91: real time    0.91
    SUBROT:  cpu time    0.45: real time    0.45
    SUBROT:  cpu time    0.45: real time    0.45
    SUBROT:  cpu time    0.45: real time    0.45
    --------------------------------------------
    SUBRT+:  cpu time    2.26: real time    2.28

 Broyden mixing:
  rms(total) = 0.55623E-03    rms(broyden)= 0.55611E-03
  rms(prec ) = 0.94438E-03
  weight for this iteration     100.00

 eigenvalues of (default mixing * dielectric matrix)
  average eigenvalue GAMMA=   1.6905
  2.4808  0.9956  1.5950
 
    TRIAL :  cpu time  244.16: real time  243.96
    CORREC:  cpu time    0.00: real time    0.00
    CHARGE:  cpu time    0.09: real time    0.09
    --------------------------------------------
      LOOP:  cpu time  246.26: real time  246.06

 eigenvalue-minimisations  :     0
 total energy-change (2. order) :-0.9658339E-02  (-0.5125413E-02)
 number of electron     112.0001448 magnetization 
 augmentation part       37.8294724 magnetization 

 Free energy of the ion-electron system (eV)
  ---------------------------------------------------
  alpha Z        PSCENC =       339.31929130
  Ewald energy   TEWEN  =     -9063.90769625
  -1/2 Hartree   DENC   =     -8152.59980868
  -exchange  EXHF       =       340.12180167
  -V(xc)+E(xc)   XCENC  =       372.12559852
  PAW double counting   =     15936.48705162   -16421.84964376
  entropy T*S    EENTRO =         0.00050623
  eigenvalues    EBANDS =     -1740.27071443
  atomic energy  EATOM  =     18320.98302006
  ---------------------------------------------------
  free energy    TOTEN  =       -69.59058176 eV

  energy without entropy =      -69.59108799  energy(sigma->0) =      -69.59075050


--------------------------------------------------------------------------------------------------------




----------------------------------------- Iteration    1(  14)  ---------------------------------------


    POTLOK:  cpu time    0.05: real time    0.05
    SETDIJ:  cpu time    1.97: real time    1.97
 
    SUBROT:  cpu time    0.93: real time    0.93
    SUBROT:  cpu time    0.46: real time    0.46
    SUBROT:  cpu time    0.45: real time    0.46
    SUBROT:  cpu time    0.47: real time    0.47
    --------------------------------------------
    SUBRT+:  cpu time    2.32: real time    2.32

 Broyden mixing:
  rms(total) = 0.67942E-04    rms(broyden)= 0.67928E-04
  rms(prec ) = 0.13959E-03
  weight for this iteration     100.00

 eigenvalues of (default mixing * dielectric matrix)
  average eigenvalue GAMMA=   1.6786
  2.5145  0.9908  1.5304
 
    TRIAL :  cpu time  244.84: real time  244.62
    CORREC:  cpu time    0.00: real time    0.00
    CHARGE:  cpu time    0.09: real time    0.09
    --------------------------------------------
      LOOP:  cpu time  246.96: real time  246.74

 eigenvalue-minimisations  :     0
 total energy-change (2. order) :-0.2461578E-02  (-0.3779648E-02)
 number of electron     112.0001447 magnetization 
 augmentation part       37.8119411 magnetization 

 Free energy of the ion-electron system (eV)
  ---------------------------------------------------
  alpha Z        PSCENC =       339.31929130
  Ewald energy   TEWEN  =     -9063.90769625
  -1/2 Hartree   DENC   =     -8153.12053741
  -exchange  EXHF       =       340.11971000
  -V(xc)+E(xc)   XCENC  =       372.13472768
  PAW double counting   =     15934.39315315   -16419.91728496
  entropy T*S    EENTRO =         0.00052125
  eigenvalues    EBANDS =     -1739.59793313
  atomic energy  EATOM  =     18320.98302006
  ---------------------------------------------------
  free energy    TOTEN  =       -69.59304333 eV

  energy without entropy =      -69.59356459  energy(sigma->0) =      -69.59321708


--------------------------------------------------------------------------------------------------------




----------------------------------------- Iteration    1(  15)  ---------------------------------------


    POTLOK:  cpu time    0.05: real time    0.05
    SETDIJ:  cpu time    2.00: real time    2.00
 
    SUBROT:  cpu time    0.95: real time    0.95
    SUBROT:  cpu time    0.44: real time    0.45
    SUBROT:  cpu time    0.44: real time    0.44
    SUBROT:  cpu time    0.45: real time    0.45
    --------------------------------------------
    SUBRT+:  cpu time    2.28: real time    2.30

 Broyden mixing:
  rms(total) = 0.19345E-03    rms(broyden)= 0.19339E-03
  rms(prec ) = 0.33028E-03
  weight for this iteration     100.00

 eigenvalues of (default mixing * dielectric matrix)
  average eigenvalue GAMMA=   1.6849
  2.4720  0.9888  1.5937
 
    TRIAL :  cpu time  250.07: real time  250.27
    CORREC:  cpu time    0.00: real time    0.00
    CHARGE:  cpu time    0.09: real time    0.09
    --------------------------------------------
      LOOP:  cpu time  252.21: real time  252.42

 eigenvalue-minimisations  :     0
 total energy-change (2. order) :-0.1507014E-02  (-0.1039159E-02)
 number of electron     112.0001447 magnetization 
 augmentation part       37.8162688 magnetization 

 Free energy of the ion-electron system (eV)
  ---------------------------------------------------
  alpha Z        PSCENC =       339.31929130
  Ewald energy   TEWEN  =     -9063.90769625
  -1/2 Hartree   DENC   =     -8148.41289767
  -exchange  EXHF       =       340.03065348
  -V(xc)+E(xc)   XCENC  =       372.02357954
  PAW double counting   =     15922.34155010   -16407.25530888
  entropy T*S    EENTRO =         0.00053308
  eigenvalues    EBANDS =     -1744.71726328
  atomic energy  EATOM  =     18320.98302006
  ---------------------------------------------------
  free energy    TOTEN  =       -69.59455035 eV

  energy without entropy =      -69.59508342  energy(sigma->0) =      -69.59472804


--------------------------------------------------------------------------------------------------------




----------------------------------------- Iteration    1(  16)  ---------------------------------------


    POTLOK:  cpu time    0.06: real time    0.06
    SETDIJ:  cpu time    1.95: real time    1.96
 
    SUBROT:  cpu time    0.95: real time    0.95
    SUBROT:  cpu time    0.44: real time    0.44
    SUBROT:  cpu time    0.46: real time    0.46
    SUBROT:  cpu time    0.45: real time    0.45
    --------------------------------------------
    SUBRT+:  cpu time    2.31: real time    2.31

 Broyden mixing:
  rms(total) = 0.84637E-04    rms(broyden)= 0.84619E-04
  rms(prec ) = 0.14098E-03
  weight for this iteration     100.00

 eigenvalues of (default mixing * dielectric matrix)
  average eigenvalue GAMMA=   1.6806
  2.4872  0.9887  1.5658
 
    TRIAL :  cpu time  249.16: real time  249.03
    CORREC:  cpu time    0.00: real time    0.00
    CHARGE:  cpu time    0.09: real time    0.09
    --------------------------------------------
      LOOP:  cpu time  251.27: real time  251.15

 eigenvalue-minimisations  :     0
 total energy-change (2. order) :-0.5722267E-03  (-0.4096305E-03)
 number of electron     112.0001447 magnetization 
 augmentation part       37.8210752 magnetization 

 Free energy of the ion-electron system (eV)
  ---------------------------------------------------
  alpha Z        PSCENC =       339.31929130
  Ewald energy   TEWEN  =     -9063.90769625
  -1/2 Hartree   DENC   =     -8149.53277856
  -exchange  EXHF       =       340.04925599
  -V(xc)+E(xc)   XCENC  =       372.05079701
  PAW double counting   =     15923.19232454   -16408.29471528
  entropy T*S    EENTRO =         0.00053440
  eigenvalues    EBANDS =     -1743.45515447
  atomic energy  EATOM  =     18320.98302006
  ---------------------------------------------------
  free energy    TOTEN  =       -69.59512257 eV

[...]
     22      -2.2871      2.00000
     23      -1.9521      2.00000
     24      -1.6175      2.00000
     25      -1.2160      2.00000
     26      -1.0084      2.00000
     27      -0.9752      2.00000
     28      -0.7112      2.00000
     29      -0.5565      2.00000
     30      -0.3913      2.00000
     31      -0.2860      2.00000
     32      -0.2002      2.00000
     33      -0.1824      2.00000
     34      -0.1396      2.00000
     35      -0.0192      2.00000
     36       0.0185      2.00000
     37       1.2942      2.00000
     38       1.3075      2.00000
     39       1.3684      2.00000
     40       1.4103      2.00000
     41       1.4482      2.00000
     42       1.4640      2.00000
     43       1.5068      2.00000
     44       1.5485      2.00000
     45       1.7643      2.00000
     46       1.8938      2.00000
     47       1.9814      2.00000
     48       2.1503      2.00000
     49       2.3717      2.00000
     50       2.5769      2.00000
     51       2.7028      2.00000
     52       2.9110      2.00000
     53       3.0139      2.00000
     54       3.2204      2.00000
     55       3.3980      2.00000
     56       3.6567      2.00000
     57       6.3686     -0.00000
     58       6.5220     -0.00000
     59       7.7181      0.00000
     60       7.8952      0.00000
     61       8.2977      0.00000
     62       8.5747      0.00000
     63       9.3278      0.00000
     64       9.8472      0.00000
     65      10.0142      0.00000
     66      10.3545      0.00000
     67      10.5859      0.00000
     68      10.7963      0.00000
     69      10.9785      0.00000
     70      11.2518      0.00000
     71      11.3049      0.00000
     72      11.7045      0.00000
     73      12.2497      0.00000
     74      12.4680      0.00000
     75      13.0993      0.00000
     76      13.4646      0.00000
     77      13.7934      0.00000
     78      14.6688      0.00000
     79      14.9935      0.00000
     80      15.7315      0.00000

 k-point  40 :       0.2500   -0.2500    0.4000
  band No.  band energies     occupation 
      1     -68.6559      2.00000
      2     -68.6455      2.00000
      3     -68.6328      2.00000
      4     -68.6285      2.00000
      5     -68.6225      2.00000
      6     -68.6135      2.00000
      7     -68.6066      2.00000
      8     -68.5962      2.00000
      9     -68.5768      2.00000
     10     -68.5728      2.00000
     11     -68.5599      2.00000
     12     -68.5569      2.00000
     13     -12.2165      2.00000
     14     -11.8175      2.00000
     15     -10.8215      2.00000
     16     -10.6720      2.00000
     17     -10.3499      2.00000
     18     -10.2764      2.00000
     19      -5.4456      2.00000
     20      -5.1150      2.00000
     21      -2.4270      2.00000
     22      -2.1509      2.00000
     23      -2.0189      2.00000
     24      -1.5243      2.00000
     25      -1.3566      2.00000
     26      -1.1665      2.00000
     27      -0.9340      2.00000
     28      -0.8125      2.00000
     29      -0.5860      2.00000
     30      -0.5391      2.00000
     31      -0.2827      2.00000
     32      -0.2414      2.00000
     33      -0.1373      2.00000
     34      -0.0897      2.00000
     35      -0.0242      2.00000
     36       0.0320      2.00000
     37       1.3118      2.00000
     38       1.3434      2.00000
     39       1.3614      2.00000
     40       1.3936      2.00000
     41       1.4505      2.00000
     42       1.4824      2.00000
     43       1.4997      2.00000
     44       1.5656      2.00000
     45       1.8016      2.00000
     46       1.8453      2.00000
     47       1.9611      2.00000
     48       2.1093      2.00000
     49       2.2935      2.00000
     50       2.5291      2.00000
     51       2.6411      2.00000
     52       2.7702      2.00000
     53       2.9261      2.00000
     54       3.1618      2.00000
     55       3.3030      2.00000
     56       3.5746      2.00000
     57       6.5585     -0.00000
     58       6.7126     -0.00000
     59       7.9622      0.00000
     60       8.0034      0.00000
     61       8.7315      0.00000
     62       9.0931      0.00000
     63       9.4536      0.00000
     64       9.8261      0.00000
     65      10.3030      0.00000
     66      10.3655      0.00000
     67      10.7827      0.00000
     68      10.8482      0.00000
     69      11.1183      0.00000
     70      11.2722      0.00000
     71      11.3727      0.00000
     72      11.6189      0.00000
     73      12.0490      0.00000
     74      12.2930      0.00000
     75      12.6533      0.00000
     76      13.1232      0.00000
     77      13.2877      0.00000
     78      14.2402      0.00000
     79      15.6288      0.00000
     80      15.8308      0.00000

 k-point  41 :       0.5000   -0.2500    0.4000
  band No.  band energies     occupation 
      1     -68.6558      2.00000
      2     -68.6454      2.00000
      3     -68.6326      2.00000
      4     -68.6283      2.00000
      5     -68.6225      2.00000
      6     -68.6135      2.00000
      7     -68.6064      2.00000
      8     -68.5960      2.00000
      9     -68.5768      2.00000
     10     -68.5729      2.00000
     11     -68.5598      2.00000
     12     -68.5568      2.00000
     13     -12.0766      2.00000
     14     -11.7736      2.00000
     15     -10.8487      2.00000
     16     -10.7573      2.00000
     17     -10.5330      2.00000
     18     -10.3159      2.00000
     19      -5.4180      2.00000
     20      -4.9409      2.00000
     21      -2.3977      2.00000
     22      -2.1265      2.00000
     23      -1.8641      2.00000
     24      -1.7207      2.00000
     25      -1.4517      2.00000
     26      -1.1195      2.00000
     27      -0.8850      2.00000
     28      -0.6469      2.00000
     29      -0.6041      2.00000
     30      -0.4467      2.00000
     31      -0.2647      2.00000
     32      -0.1883      2.00000
     33      -0.1225      2.00000
     34      -0.0533      2.00000
     35      -0.0219      2.00000
     36       0.0219      2.00000
     37       1.2597      2.00000
     38       1.3151      2.00000
     39       1.4076      2.00000
     40       1.4372      2.00000
     41       1.4845      2.00000
     42       1.4889      2.00000
     43       1.5165      2.00000
     44       1.5736      2.00000
     45       1.7606      2.00000
     46       1.8403      2.00000
     47       2.1178      2.00000
     48       2.1873      2.00000
     49       2.3637      2.00000
     50       2.4600      2.00000
     51       2.4912      2.00000
     52       2.6933      2.00000
     53       2.8240      2.00000
     54       3.0865      2.00000
     55       3.2921      2.00000
     56       3.5251      2.00000
     57       6.4974     -0.00000
     58       6.5732     -0.00000
     59       7.4525      0.00000
     60       7.7220      0.00000
     61       8.5889      0.00000
     62       8.7415      0.00000
     63       9.2975      0.00000
     64       9.5350      0.00000
     65       9.9587      0.00000
     66      10.1856      0.00000
     67      10.6793      0.00000
     68      11.1112      0.00000
     69      11.2483      0.00000
     70      11.5718      0.00000
     71      11.7039      0.00000
     72      11.8940      0.00000
     73      12.3035      0.00000
     74      12.6620      0.00000
     75      13.0159      0.00000
     76      13.2300      0.00000
     77      13.6701      0.00000
     78      14.0672      0.00000
     79      14.3894      0.00000
     80      16.5073      0.00000

 k-point  42 :      -0.2500   -0.2500    0.4000
  band No.  band energies     occupation 
      1     -68.6560      2.00000
      2     -68.6456      2.00000
      3     -68.6325      2.00000
      4     -68.6282      2.00000
      5     -68.6225      2.00000
      6     -68.6136      2.00000
      7     -68.6064      2.00000
      8     -68.5960      2.00000
      9     -68.5768      2.00000
     10     -68.5729      2.00000
     11     -68.5599      2.00000
     12     -68.5570      2.00000
     13     -12.1762      2.00000
     14     -11.7036      2.00000
     15     -10.7173      2.00000
     16     -10.6934      2.00000
     17     -10.5856      2.00000
     18     -10.3923      2.00000
     19      -5.4446      2.00000
     20      -5.0734      2.00000
     21      -2.5071      2.00000
     22      -2.3783      2.00000
     23      -1.9625      2.00000
     24      -1.3699      2.00000
     25      -1.3305      2.00000
     26      -1.0517      2.00000
     27      -0.8372      2.00000
     28      -0.7659      2.00000
     29      -0.4231      2.00000
     30      -0.3386      2.00000
     31      -0.2701      2.00000
     32      -0.2099      2.00000
     33      -0.1425      2.00000
     34      -0.1418      2.00000
     35      -0.0123      2.00000
     36       0.0259      2.00000
     37       1.1720      2.00000
     38       1.3705      2.00000
     39       1.3960      2.00000
     40       1.4503      2.00000
     41       1.4539      2.00000
     42       1.4994      2.00000
     43       1.5167      2.00000
     44       1.5471      2.00000
     45       1.7445      2.00000
     46       1.8195      2.00000
     47       1.9721      2.00000
     48       2.2243      2.00000
     49       2.3987      2.00000
     50       2.6135      2.00000
     51       2.6556      2.00000
     52       2.9170      2.00000
     53       3.0685      2.00000
     54       3.1175      2.00000
     55       3.2853      2.00000
     56       3.5800      2.00000
     57       6.2826     -0.00000
     58       6.3804     -0.00000
     59       7.3531      0.00000
     60       7.5264      0.00000
     61       8.3082      0.00000
     62       8.3324      0.00000
     63       9.1042      0.00000
     64       9.3631      0.00000
     65       9.7154      0.00000
     66       9.9484      0.00000
     67      10.5272      0.00000
     68      10.9888      0.00000
     69      11.4253      0.00000
     70      11.5670      0.00000
     71      12.0152      0.00000
     72      12.2862      0.00000
     73      12.4288      0.00000
     74      12.4754      0.00000
     75      13.0361      0.00000
     76      13.1470      0.00000
     77      14.1427      0.00000
     78      14.4403      0.00000
     79      15.1666      0.00000
     80      15.8736      0.00000


--------------------------------------------------------------------------------------------------------


 soft charge-density along one line, spin component           1
         0         1         2         3         4         5         6         7         8         9
 total charge-density along one line
 
 pseudopotential strength for first ion, spin component:           1
-65.432   0.002   0.005   7.366  -0.000  -0.002   0.001   0.007
  0.002 -65.400  -0.004  -0.000   7.356   0.001  -0.001  -0.023
  0.005  -0.004 -65.391  -0.002   0.001   7.352  -0.036  -0.001
  7.366  -0.000  -0.002   6.110   0.000   0.000   0.002  -0.003
 -0.000   7.356   0.001   0.000   6.112  -0.000   0.000   0.007
 -0.002   0.001   7.352   0.000  -0.000   6.113   0.008   0.000
  0.001  -0.001  -0.036   0.002   0.000   0.008  -2.987  -0.002
  0.007  -0.023  -0.001  -0.003   0.007   0.000  -0.002  -2.992
  0.022   0.042   0.009  -0.005  -0.008  -0.002  -0.003   0.008
 -0.001  -0.017   0.007   0.000   0.004  -0.003   0.004   0.007
  0.025   0.000  -0.034  -0.007  -0.000   0.007  -0.000   0.007
  0.002  -0.001  -0.035   0.002   0.000   0.008  -3.633  -0.002
  0.007  -0.022  -0.001  -0.003   0.007   0.000  -0.002  -3.638
  0.021   0.041   0.009  -0.005  -0.008  -0.002  -0.003   0.008
 -0.001  -0.016   0.007   0.000   0.004  -0.003   0.004   0.006
  0.024   0.000  -0.034  -0.007  -0.000   0.006  -0.000   0.007
  0.007  -0.005   0.004  -0.001   0.001  -0.001  -0.001   0.000
  0.015  -0.010   0.009  -0.002   0.001  -0.002  -0.003   0.001
 total augmentation occupancy for first ion, spin component:           1
  2.000  -0.000   0.000  -0.003  -0.000   0.000   0.007  -0.005   0.001  -0.001  -0.004  -0.007   0.005  -0.001   0.001   0.004
 -0.000   2.000  -0.000  -0.000  -0.003   0.000  -0.001   0.005   0.004   0.001   0.000   0.001  -0.005  -0.005  -0.001  -0.000
  0.000  -0.000   2.000   0.000   0.000  -0.003  -0.001  -0.000  -0.001  -0.005  -0.004   0.001   0.000   0.001   0.005   0.005
 -0.003  -0.000   0.000   0.096   0.005  -0.004  -0.337   0.236  -0.073   0.013   0.020   0.284  -0.200   0.057  -0.009  -0.013
 -0.000  -0.003   0.000   0.005   0.103   0.001   0.021  -0.050  -0.445   0.014   0.010  -0.015   0.039   0.378  -0.009  -0.008
  0.000   0.000  -0.003  -0.004   0.001   0.099   0.096  -0.001  -0.013   0.237   0.355  -0.075  -0.000   0.010  -0.203  -0.298
  0.007  -0.001  -0.001  -0.337   0.021   0.096   4.020  -0.803   0.096   0.212   0.141  -1.750   0.754  -0.086  -0.177  -0.135
 -0.005   0.005  -0.000   0.236  -0.050  -0.001  -0.803   3.529   0.296   0.163   0.306   0.754  -1.286  -0.219  -0.120  -0.215
  0.001   0.004  -0.001  -0.073  -0.445  -0.013   0.096   0.296   4.695  -0.037  -0.117  -0.086  -0.219  -2.403   0.031   0.085
 -0.001   0.001  -0.005   0.013   0.014   0.237   0.212   0.163  -0.037   3.643   0.803  -0.177  -0.120   0.031  -1.360  -0.764
 -0.004   0.000  -0.004   0.020   0.010   0.355   0.141   0.306  -0.117   0.803   4.004  -0.135  -0.215   0.085  -0.764  -1.751
 -0.007   0.001   0.001   0.284  -0.015  -0.075  -1.750   0.754  -0.086  -0.177  -0.135   1.456  -0.706   0.077   0.147   0.130
  0.005  -0.005   0.000  -0.200   0.039  -0.000   0.754  -1.286  -0.219  -0.120  -0.215  -0.706   1.021   0.157   0.085   0.141
 -0.001  -0.005   0.001   0.057   0.378   0.010  -0.086  -0.219  -2.403   0.031   0.085   0.077   0.157   2.087  -0.027  -0.060
  0.001  -0.001   0.005  -0.009  -0.009  -0.203  -0.177  -0.120   0.031  -1.360  -0.764   0.147   0.085  -0.027   1.064   0.725
  0.004  -0.000   0.005  -0.013  -0.008  -0.298  -0.135  -0.215   0.085  -0.764  -1.751   0.130   0.141  -0.060   0.725   1.471
 -0.024   0.016  -0.013  -0.018   0.010  -0.005   0.069  -0.090  -0.020   0.000   0.033  -0.054   0.079   0.032   0.001  -0.000
  0.011  -0.007   0.006   0.001  -0.000  -0.000  -0.007   0.002  -0.005   0.003  -0.020   0.003  -0.004  -0.002  -0.000   0.003


------------------------ aborting loop because EDIFF is reached ----------------------------------------


    FORLOC:  cpu time    0.02: real time    0.02
    FORHF :  cpu time  473.48: real time  473.08
    FORNL :  cpu time    0.39: real time    0.39
    FORCOR:  cpu time    2.00: real time    2.00

 VOLUME and BASIS-vectors are now :
 -----------------------------------------------------------------------------
  energy-cutoff  :      400.00
  volume of cell :      221.90
      direct lattice vectors                 reciprocal lattice vectors
     3.224796000 -5.643830000  0.031572000     0.154525165 -0.088592321  0.053460880
     3.224796000  5.643830000  0.031572000     0.154525165  0.088592321  0.053460880
    -2.101946000  0.000000000  6.075537000    -0.001606004  0.000000000  0.164038877

  length of vectors
     6.500240234  6.500240234  6.428866683     0.185969598  0.185969598  0.164046738


 FORCES acting on ions:
    Electron-Ion                     Ewald-Force                    Non-Local-Force
 -----------------------------------------------------------------------------------------------
   -.133E+02 -.952E+02 0.104E+02   0.121E+02 0.929E+02 -.884E+01   0.995E+00 0.204E+01 -.139E+01
   -.144E+02 0.975E+02 0.114E+02   0.132E+02 -.950E+02 -.982E+01   0.103E+01 -.211E+01 -.140E+01
   0.264E+02 -.177E+02 0.494E+01   -.232E+02 0.175E+02 -.365E+01   -.285E+01 0.145E+00 -.113E+01
   0.256E+02 0.172E+02 0.452E+01   -.223E+02 -.170E+02 -.325E+01   -.285E+01 -.163E+00 -.111E+01
   -.111E+02 -.317E+02 -.111E+02   0.104E+02 0.304E+02 0.100E+02   0.686E+00 0.135E+01 0.112E+01
   -.113E+02 0.317E+02 -.111E+02   0.106E+02 -.303E+02 0.992E+01   0.700E+00 -.137E+01 0.112E+01
   -.135E+03 -.998E+01 -.491E+02   0.132E+03 0.100E+02 0.482E+02   0.278E+01 -.278E-01 0.726E+00
   0.681E+02 -.128E+03 0.965E+02   -.664E+02 0.125E+03 -.945E+02   -.153E+01 0.236E+01 -.187E+01
   0.666E+02 -.133E+03 -.498E+02   -.651E+02 0.130E+03 0.488E+02   -.135E+01 0.217E+01 0.867E+00
   0.702E+02 0.126E+03 0.961E+02   -.685E+02 -.123E+03 -.941E+02   -.156E+01 -.230E+01 -.187E+01
   -.135E+03 0.101E+02 -.492E+02   0.132E+03 -.101E+02 0.483E+02   0.277E+01 0.125E-01 0.736E+00
   0.667E+02 0.133E+03 -.497E+02   -.652E+02 -.130E+03 0.488E+02   -.136E+01 -.220E+01 0.870E+00
 -----------------------------------------------------------------------------------------------
   0.278E+01 0.872E-01 0.377E+01   -.284E-13 0.000E+00 -.711E-13   -.254E+01 -.879E-01 -.333E+01
 
 
 POSITION                                       TOTAL-FORCE (eV/Angst)
 -----------------------------------------------------------------------------------
      2.13385     -2.80652      0.74958        -0.010535     -0.013458      0.005577
      1.08288      2.80652      3.78735        -0.002947      0.002052     -0.000074
      5.40423     -0.97432      0.77721        -0.006529      0.000798     -0.002272
      4.35326      0.97432      3.81498         0.003069     -0.000515      0.000775
      1.02081     -0.97328      3.66185        -0.003014     -0.000527      0.003631
      2.07178      0.97328      0.62409         0.010603     -0.036463     -0.006714
      2.15090      4.69667      3.05304        -0.000162      0.001509     -0.006650
      1.10719     -0.90627      5.98616         0.019657      0.066986      0.007202
      2.14287     -2.74882      3.03886        -0.001659     -0.000985     -0.002476
      2.16313      0.89759      2.94844         0.000350      0.006964      0.005236
      1.09993     -4.69667      6.09081        -0.004805     -0.009794     -0.002380
      1.09189      2.74882      6.07662        -0.004028     -0.016568     -0.001854
 -----------------------------------------------------------------------------------
    total drift:                               -0.059088     -0.001256     -0.054077


--------------------------------------------------------------------------------------------------------



  FREE ENERGIE OF THE ION-ELECTRON SYSTEM (eV)
  ---------------------------------------------------
  free  energy   TOTEN  =       -69.59546977 eV

  energy  without entropy=      -69.59599836  energy(sigma->0) =      -69.59564597
 


--------------------------------------------------------------------------------------------------------


    POTLOK:  cpu time    2.14: real time    2.14


--------------------------------------------------------------------------------------------------------


 writing wavefunctions
     LOOP+:  cpu time 5673.95: real time 5680.26
    4ORBIT:  cpu time    0.00: real time    0.00

 total amount of memory used by VASP on root node   155705. kBytes
========================================================================

   base      :      30000. kBytes
   nonl-proj :      74517. kBytes
   fftplans  :        702. kBytes
   grid      :       2400. kBytes
   one-center:        186. kBytes
   HF        :        194. kBytes
   nonlr-proj:       5130. kBytes
   wavefun   :      42576. kBytes
 
  
  
 General timing and accounting informations for this job:
 ========================================================
  
                  Total CPU time used (sec):     5710.702
                            User time (sec):     5709.278
                          System time (sec):        1.424
                         Elapsed time (sec):     5717.702
  
                   Maximum memory used (kb):      296784.
                   Average memory used (kb):           0.
  
                          Minor page faults:        78432
                          Major page faults:            0
                 Voluntary context switches:         3418
