<?xml version="1.0" encoding="ISO-8859-1"?>
<modeling>
 <generator>
  <i name="program" type="string">vasp </i>
  <i name="version" type="string">5.3.3  </i>
  <i name="subversion" type="string">18Dez12 (build Nov 13 2015 09:58:40) complex                          parallel </i>
  <i name="platform" type="string">LinuxIFC </i>
  <i name="date" type="string">2017 10 18 </i>
  <i name="time" type="string">13:13:31 </i>
 </generator>
 <incar>
  <i type="string" name="SYSTEM"> CGS</i>
  <i type="string" name="PREC">normal</i>
  <i type="string" name="ALGO"> D</i>
  <i type="logical" name="LDIAG"> T  </i>
  <i name="EDIFF">      0.00001000</i>
  <i name="ENCUT">    400.00000000</i>
  <i name="TIME">      0.40000000</i>
  <i type="int" name="ISMEAR">     1</i>
  <i name="SIGMA">      0.10000000</i>
  <i type="logical" name="LHFCALC"> T  </i>
  <i type="string" name="GGA"> PE</i>
  <i name="HFSCREEN">      0.20000000</i>
  <i name="AEXX">      0.25000000</i>
  <i type="string" name="PRECFOCK">fast</i>
 </incar>
 <kpoints>
  <generation param="Gamma">
   <v type="int" name="divisions">       4        4        5 </v>
   <v name="usershift">      0.00000000       0.00000000       0.00000000 </v>
   <v name="genvec1">      0.25000000       0.00000000       0.00000000 </v>
   <v name="genvec2">      0.00000000       0.25000000       0.00000000 </v>
   <v name="genvec3">      0.00000000       0.00000000       0.20000000 </v>
   <v name="shift">      0.00000000       0.00000000       0.00000000 </v>
  </generation>
  <varray name="kpointlist" >
   <v>       0.00000000       0.00000000       0.00000000 </v>
   <v>       0.25000000       0.00000000       0.00000000 </v>
   <v>       0.50000000       0.00000000       0.00000000 </v>
   <v>       0.00000000       0.25000000       0.00000000 </v>
   <v>       0.25000000       0.25000000       0.00000000 </v>
   <v>       0.50000000       0.25000000      -0.00000000 </v>
   <v>      -0.25000000       0.25000000       0.00000000 </v>
   <v>       0.00000000       0.50000000       0.00000000 </v>
   <v>       0.25000000       0.50000000      -0.00000000 </v>
   <v>       0.50000000       0.50000000       0.00000000 </v>
   <v>      -0.00000000      -0.00000000       0.20000000 </v>
   <v>       0.25000000       0.00000000       0.20000000 </v>
   <v>       0.50000000       0.00000000       0.20000000 </v>
   <v>      -0.25000000      -0.00000000       0.20000000 </v>
   <v>       0.00000000       0.25000000       0.20000000 </v>
   <v>       0.25000000       0.25000000       0.20000000 </v>
   <v>       0.50000000       0.25000000       0.20000000 </v>
   <v>      -0.25000000       0.25000000       0.20000000 </v>
   <v>       0.00000000       0.50000000       0.20000000 </v>
   <v>       0.25000000       0.50000000       0.20000000 </v>
   <v>       0.50000000       0.50000000       0.20000000 </v>
   <v>      -0.25000000       0.50000000       0.20000000 </v>
   <v>      -0.00000000      -0.25000000       0.20000000 </v>
   <v>       0.25000000      -0.25000000       0.20000000 </v>
   <v>       0.50000000      -0.25000000       0.20000000 </v>
   <v>      -0.25000000      -0.25000000       0.20000000 </v>
   <v>      -0.00000000      -0.00000000       0.40000000 </v>
   <v>       0.25000000       0.00000000       0.40000000 </v>
   <v>       0.50000000       0.00000000       0.40000000 </v>
   <v>      -0.25000000       0.00000000       0.40000000 </v>
   <v>       0.00000000       0.25000000       0.40000000 </v>
   <v>       0.25000000       0.25000000       0.40000000 </v>
   <v>       0.50000000       0.25000000       0.40000000 </v>
   <v>      -0.25000000       0.25000000       0.40000000 </v>
   <v>       0.00000000       0.50000000       0.40000000 </v>
   <v>       0.25000000       0.50000000       0.40000000 </v>
   <v>       0.50000000       0.50000000       0.40000000 </v>
   <v>      -0.25000000       0.50000000       0.40000000 </v>
   <v>       0.00000000      -0.25000000       0.40000000 </v>
   <v>       0.25000000      -0.25000000       0.40000000 </v>
   <v>       0.50000000      -0.25000000       0.40000000 </v>
   <v>      -0.25000000      -0.25000000       0.40000000 </v>
  </varray>
  <varray name="weights" >
   <v>       0.01250000 </v>
   <v>       0.02500000 </v>
   <v>       0.01250000 </v>
   <v>       0.02500000 </v>
   <v>       0.02500000 </v>
   <v>       0.02500000 </v>
   <v>       0.02500000 </v>
   <v>       0.01250000 </v>
   <v>       0.02500000 </v>
   <v>       0.01250000 </v>
   <v>       0.02500000 </v>
   <v>       0.02500000 </v>
   <v>       0.02500000 </v>
   <v>       0.02500000 </v>
   <v>       0.02500000 </v>
   <v>       0.02500000 </v>
   <v>       0.02500000 </v>
   <v>       0.02500000 </v>
   <v>       0.02500000 </v>
   <v>       0.02500000 </v>
   <v>       0.02500000 </v>
   <v>       0.02500000 </v>
   <v>       0.02500000 </v>
   <v>       0.02500000 </v>
   <v>       0.02500000 </v>
   <v>       0.02500000 </v>
   <v>       0.02500000 </v>
   <v>       0.02500000 </v>
   <v>       0.02500000 </v>
   <v>       0.02500000 </v>
   <v>       0.02500000 </v>
   <v>       0.02500000 </v>
   <v>       0.02500000 </v>
   <v>       0.02500000 </v>
   <v>       0.02500000 </v>
   <v>       0.02500000 </v>
   <v>       0.02500000 </v>
   <v>       0.02500000 </v>
   <v>       0.02500000 </v>
   <v>       0.02500000 </v>
   <v>       0.02500000 </v>
   <v>       0.02500000 </v>
  </varray>
 </kpoints>
 <parameters>
  <separator name="general" >
   <i type="string" name="SYSTEM">CGS</i>
   <i type="logical" name="LCOMPAT"> F  </i>
  </separator>
  <separator name="electronic" >
   <i type="string" name="PREC">normal</i>
   <i name="ENMAX">    400.00000000</i>
   <i name="ENAUG">    758.23300000</i>
   <i name="EDIFF">      0.00001000</i>
   <i type="int" name="IALGO">    53</i>
   <i type="int" name="IWAVPR">    10</i>
   <i type="int" name="NBANDS">    80</i>
   <i name="NELECT">    112.00000000</i>
   <i type="int" name="TURBO">     0</i>
   <i type="int" name="IRESTART">     0</i>
   <i type="int" name="NREBOOT">     0</i>
   <i type="int" name="NMIN">     0</i>
   <i name="EREF">      0.00000000</i>
   <separator name="electronic smearing" >
    <i type="int" name="ISMEAR">     1</i>
    <i name="SIGMA">      0.10000000</i>
    <i name="KSPACING">      0.50000000</i>
    <i type="logical" name="KGAMMA"> T  </i>
   </separator>
   <separator name="electronic projectors" >
    <i type="logical" name="LREAL"> F  </i>
    <v name="ROPT">      0.00000000      0.00000000      0.00000000</v>
    <i type="int" name="LMAXPAW">  -100</i>
    <i type="int" name="LMAXMIX">     2</i>
    <i type="logical" name="NLSPLINE"> F  </i>
   </separator>
   <separator name="electronic startup" >
    <i type="int" name="ISTART">     1</i>
    <i type="int" name="ICHARG">     0</i>
    <i type="int" name="INIWAV">     1</i>
   </separator>
   <separator name="electronic spin" >
    <i type="int" name="ISPIN">     1</i>
    <i type="logical" name="LNONCOLLINEAR"> F  </i>
    <v name="MAGMOM">      1.00000000      1.00000000      1.00000000      1.00000000      1.00000000      1.00000000      1.00000000      1.00000000      1.00000000      1.00000000      1.00000000      1.00000000</v>
    <i name="NUPDOWN">     -1.00000000</i>
    <i type="logical" name="LSORBIT"> F  </i>
    <v name="SAXIS">      0.00000000      0.00000000      1.00000000</v>
    <i type="logical" name="LSPIRAL"> F  </i>
    <v name="QSPIRAL">      0.00000000      0.00000000      0.00000000</v>
    <i type="logical" name="LZEROZ"> F  </i>
   </separator>
   <separator name="electronic exchange-correlation" >
    <i type="logical" name="LASPH"> F  </i>
    <i type="logical" name="LMETAGGA"> F  </i>
   </separator>
   <separator name="electronic convergence" >
    <i type="int" name="NELM">    60</i>
    <i type="int" name="NELMDL">     0</i>
    <i type="int" name="NELMIN">     2</i>
    <i name="ENINI">    400.00000000</i>
    <separator name="electronic convergence detail" >
     <i type="logical" name="LDIAG"> T  </i>
     <i type="logical" name="LSUBROT"> T  </i>
     <i name="WEIMIN">      0.00000000</i>
     <i name="EBREAK">      0.00000003</i>
     <i name="DEPER">      0.30000000</i>
     <i type="int" name="NRMM">     4</i>
     <i name="TIME">      0.40000000</i>
    </separator>
   </separator>
   <separator name="electronic mixer" >
    <i name="AMIX">      0.40000000</i>
    <i name="BMIX">      1.00000000</i>
    <i name="AMIN">      0.10000000</i>
    <i name="AMIX_MAG">      1.60000000</i>
    <i name="BMIX_MAG">      1.00000000</i>
    <separator name="electronic mixer details" >
     <i type="int" name="IMIX">     4</i>
     <i type="int" name="MAXMIX">   -45</i>
     <i name="WC">    100.00000000</i>
     <i type="int" name="INIMIX">     1</i>
     <i type="int" name="MIXPRE">     1</i>
     <i type="int" name="MREMOVE">     5</i>
    </separator>
   </separator>
   <separator name="electronic dipolcorrection" >
    <i type="logical" name="LDIPOL"> F  </i>
    <i type="logical" name="LMONO"> F  </i>
    <i type="int" name="IDIPOL">     0</i>
    <i name="EPSILON">      1.00000000</i>
    <v name="DIPOL">   -100.00000000   -100.00000000   -100.00000000</v>
    <i name="EFIELD">      0.00000000</i>
   </separator>
  </separator>
  <separator name="grids" >
   <i type="int" name="NGX">    32</i>
   <i type="int" name="NGY">    32</i>
   <i type="int" name="NGZ">    32</i>
   <i type="int" name="NGXF">    64</i>
   <i type="int" name="NGYF">    64</i>
   <i type="int" name="NGZF">    64</i>
   <i type="logical" name="ADDGRID"> F  </i>
  </separator>
  <separator name="ionic" >
   <i type="int" name="NSW">     0</i>
   <i type="int" name="IBRION">    -1</i>
   <i type="int" name="ISIF">     0</i>
   <i name="PSTRESS">      0.00000000</i>
   <i name="EDIFFG">      0.00010000</i>
   <i type="int" name="NFREE">     0</i>
   <i name="POTIM">      0.50000000</i>
   <i name="SMASS">     -3.00000000</i>
   <i name="SCALEE">      1.00000000</i>
  </separator>
  <separator name="ionic md" >
   <i name="TEBEG">      0.00010000</i>
   <i name="TEEND">      0.00010000</i>
   <i type="int" name="NBLOCK">     1</i>
   <i type="int" name="KBLOCK">     1</i>
   <i type="int" name="NPACO">   256</i>
   <i name="APACO">     16.00000000</i>
  </separator>
  <separator name="symmetry" >
   <i type="int" name="ISYM">     3</i>
   <i name="SYMPREC">      0.00001000</i>
  </separator>
  <separator name="dos" >
   <i type="logical" name="LORBIT"> F  </i>
   <v name="RWIGS">     -1.00000000     -1.00000000     -1.00000000</v>
   <i type="int" name="NEDOS">   301</i>
   <i name="EMIN">     10.00000000</i>
   <i name="EMAX">    -10.00000000</i>
   <i name="EFERMI">      0.00000000</i>
  </separator>
  <separator name="writing" >
   <i type="int" name="NWRITE">     2</i>
   <i type="logical" name="LWAVE"> T  </i>
   <i type="logical" name="LCHARG"> T  </i>
   <i type="logical" name="LPARD"> F  </i>
   <i type="logical" name="LVTOT"> F  </i>
   <i type="logical" name="LVHAR"> F  </i>
   <i type="logical" name="LELF"> F  </i>
   <i type="logical" name="LOPTICS"> F  </i>
   <v name="STM">      0.00000000      0.00000000      0.00000000      0.00000000      0.00000000      0.00000000      0.00000000</v>
  </separator>
  <separator name="performance" >
   <i type="int" name="NPAR">    16</i>
   <i type="int" name="NSIM">     4</i>
   <i type="int" name="NBLK">    -1</i>
   <i type="logical" name="LPLANE"> T  </i>
   <i type="logical" name="LSCALAPACK"> T  </i>
   <i type="logical" name="LSCAAWARE"> F  </i>
   <i type="logical" name="LSCALU"> F  </i>
   <i type="logical" name="LASYNC"> F  </i>
   <i type="logical" name="LORBITALREAL"> F  </i>
  </separator>
  <separator name="miscellaneous" >
   <i type="int" name="IDIOT">     3</i>
   <i type="logical" name="LMUSIC"> F  </i>
   <v name="POMASS">     63.54600000     72.61000000     32.06600000</v>
   <v name="DARWINR">      0.00000000      0.00000000      0.00000000</v>
   <v name="DARWINV">      1.00000000      1.00000000      1.00000000</v>
   <i type="logical" name="LCORR"> T  </i>
  </separator>
  <i type="logical" name="GGA_COMPAT"> T  </i>
  <i type="logical" name="LBERRY"> F  </i>
  <i type="int" name="ICORELEVEL">     0</i>
  <i type="logical" name="LDAU"> F  </i>
  <i type="int" name="I_CONSTRAINED_M">     0</i>
  <separator name="electronic exchange-correlation" >
   <i type="string" name="GGA">PE</i>
   <i type="int" name="VOSKOWN">     0</i>
   <i type="logical" name="LHFCALC"> T  </i>
   <i type="string" name="PRECFOCK">fast</i>
   <i type="logical" name="LSYMGRAD"> F  </i>
   <i type="logical" name="LHFONE"> F  </i>
   <i type="logical" name="LRHFCALC"> F  </i>
   <i type="logical" name="LTHOMAS"> F  </i>
   <i type="logical" name="LMODELHF"> F  </i>
   <i name="ENCUT4O">     -1.00000000</i>
   <i type="int" name="EXXOEP">     0</i>
   <i type="int" name="FOURORBIT">     0</i>
   <i name="AEXX">      0.25000000</i>
   <i name="HFALPHA">     -1.00000000</i>
   <i name="MCALPHA">      0.00000000</i>
   <i name="ALDAX">      0.75000000</i>
   <i name="AGGAX">      0.75000000</i>
   <i name="ALDAC">      1.00000000</i>
   <i name="AGGAC">      1.00000000</i>
   <i type="int" name="NKREDX">     1</i>
   <i type="int" name="NKREDY">     1</i>
   <i type="int" name="NKREDZ">     1</i>
   <i type="logical" name="SHIFTRED"> F  </i>
   <i type="logical" name="ODDONLY"> F  </i>
   <i type="logical" name="EVENONLY"> F  </i>
   <i type="int" name="LMAXFOCK">     4</i>
   <i type="int" name="NMAXFOCKAE">     1</i>
   <i type="logical" name="LFOCKAEDFT"> F  </i>
   <i name="HFSCREEN">      0.20000000</i>
   <i name="HFSCREENC">      0.20000000</i>
   <i type="int" name="NBANDSGWLOW">     1</i>
  </separator>
  <separator name="vdW DFT" >
   <i type="logical" name="LUSE_VDW"> F  </i>
   <i name="Zab_VDW">     -0.84910000</i>
   <i name="PARAM1">      0.12340000</i>
   <i name="PARAM2">      1.00000000</i>
   <i name="PARAM3">      0.00000000</i>
  </separator>
  <separator name="model GW" >
   <i type="int" name="MODEL_GW">     0</i>
   <i name="MODEL_EPS0">     11.09505304</i>
   <i name="MODEL_ALPHA">      1.00000000</i>
  </separator>
  <separator name="linear response parameters" >
   <i type="logical" name="LEPSILON"> F  </i>
   <i type="logical" name="LRPA"> F  </i>
   <i type="logical" name="LNABLA"> F  </i>
   <i type="logical" name="LVEL"> F  </i>
   <i type="int" name="KINTER">     0</i>
   <i name="CSHIFT">      0.10000000</i>
   <i name="OMEGAMAX">     -1.00000000</i>
   <i name="DEG_THRESHOLD">      0.00200000</i>
  </separator>
  <separator name="orbital magnetization" >
   <i type="logical" name="NUCIND"> F  </i>
   <v name="MAGPOS">      0.00000000      0.00000000      0.00000000</v>
   <i type="logical" name="LNICSALL"> T  </i>
   <i type="logical" name="ORBITALMAG"> F  </i>
   <i type="logical" name="LMAGBLOCH"> F  </i>
   <i type="logical" name="LCHIMAG"> F  </i>
   <i type="logical" name="LGAUGE"> T  </i>
   <i type="int" name="MAGATOM">     0</i>
   <v name="MAGDIPOL">      0.00000000      0.00000000      0.00000000</v>
   <v name="AVECCONST">      0.00000000      0.00000000      0.00000000</v>
  </separator>
  <separator name="response functions" >
   <i type="logical" name="LADDER"> F  </i>
   <i type="logical" name="LFXC"> F  </i>
   <i type="logical" name="LHARTREE"> T  </i>
   <i type="int" name="IBSE">     0</i>
   <i type="logical" name="LTCTE"> F  </i>
   <i type="logical" name="LTETE"> F  </i>
   <i type="logical" name="LTRIPLET"> F  </i>
   <i type="logical" name="LFXCEPS"> F  </i>
   <i type="logical" name="L2ORDER"> F  </i>
   <i type="logical" name="LUSEW"> F  </i>
   <i name="ENCUTGW">     -2.00000000</i>
   <i name="ENCUTGWSOFT">     -2.00000000</i>
   <i name="ENCUTLF">     -1.00000000</i>
   <i type="int" name="LMAXMP2">    -1</i>
   <i name="SCISSOR">      0.00000000</i>
   <i type="int" name="NOMEGA">     0</i>
   <i type="int" name="NOMEGAR">     0</i>
   <i type="int" name="NBANDSGW">    -1</i>
   <i type="int" name="NBANDSO">    -1</i>
   <i type="int" name="NBANDSV">    -1</i>
   <i type="int" name="NELM">     1</i>
   <i type="int" name="DIM">     3</i>
   <i type="int" name="ANTIRES">     0</i>
   <i name="OMEGAMAX">    -30.00000000</i>
   <i name="OMEGATL">   -200.00000000</i>
   <i type="int" name="OMEGAGRID">     0</i>
   <i name="CSHIFT">     -0.10000000</i>
   <i type="logical" name="SELFENERGY"> F  </i>
   <i type="logical" name="LSPECTRAL"> F  </i>
   <i type="logical" name="ODDONLYGW"> F  </i>
   <i type="logical" name="EVENONLYGW"> F  </i>
   <i type="int" name="NKREDLFX">     1</i>
   <i type="int" name="NKREDLFY">     1</i>
   <i type="int" name="NKREDLFZ">     1</i>
   <i type="int" name="MAXMEM">  1800</i>
   <i type="int" name="TELESCOPE">     0</i>
  </separator>
 </parameters>
 <atominfo>
  <atoms>      12 </atoms>
  <types>       3 </types>
  <array name="atoms" >
   <dimension dim="1">ion</dimension>
   <field type="string">element</field>
   <field type="int">atomtype</field>
   <set>
    <rc><c>Cu</c><c>   1</c></rc>
    <rc><c>Cu</c><c>   1</c></rc>
    <rc><c>Cu</c><c>   1</c></rc>
    <rc><c>Cu</c><c>   1</c></rc>
    <rc><c>Ge</c><c>   2</c></rc>
    <rc><c>Ge</c><c>   2</c></rc>
    <rc><c>S </c><c>   3</c></rc>
    <rc><c>S </c><c>   3</c></rc>
    <rc><c>S </c><c>   3</c></rc>
    <rc><c>S </c><c>   3</c></rc>
    <rc><c>S </c><c>   3</c></rc>
    <rc><c>S </c><c>   3</c></rc>
   </set>
  </array>
  <array name="atomtypes" >
   <dimension dim="1">type</dimension>
   <field type="int">atomspertype</field>
   <field type="string">element</field>
   <field>mass</field>
   <field>valence</field>
   <field type="string">pseudopotential</field>
   <set>
    <rc><c>   4</c><c>Cu</c><c>     63.54600000</c><c>     17.00000000</c><c>  PAW_PBE Cu_pv 06Sep2000               </c></rc>
    <rc><c>   2</c><c>Ge</c><c>     72.61000000</c><c>      4.00000000</c><c>  PAW_PBE Ge 05Jan2001                  </c></rc>
    <rc><c>   6</c><c>S </c><c>     32.06600000</c><c>      6.00000000</c><c>  PAW_PBE S 17Jan2003                   </c></rc>
   </set>
  </array>
 </atominfo>
 <structure name="initialpos" >
  <crystal>
   <varray name="basis" >
    <v>       3.22479600      -5.64383000       0.03157200 </v>
    <v>       3.22479600       5.64383000       0.03157200 </v>
    <v>      -2.10194600       0.00000000       6.07553700 </v>
   </varray>
   <i name="volume">    221.90106089 </i>
   <varray name="rec_basis" >
    <v>       0.15452516      -0.08859232       0.05346088 </v>
    <v>       0.15452516       0.08859232       0.05346088 </v>
    <v>      -0.00160600       0.00000000       0.16403888 </v>
   </varray>
  </crystal>
  <varray name="positions" >
   <v>       0.61844300       0.12117100       0.11953300 </v>
   <v>       0.12117100       0.61844300       0.61953300 </v>
   <v>       0.96295700       0.79032200       0.11881300 </v>
   <v>       0.79032200       0.96295700       0.61881300 </v>
   <v>       0.43973200       0.26728100       0.59904700 </v>
   <v>       0.26728100       0.43973200       0.09904700 </v>
   <v>       0.07949800       0.91167500       0.49736300 </v>
   <v>       0.57140300       0.41082560       0.98018400 </v>
   <v>       0.73711100       0.25006200       0.49504900 </v>
   <v>       0.41236400       0.57140300       0.48018400 </v>
   <v>       0.91167500       0.07949800       0.99736300 </v>
   <v>       0.25006200       0.73711100       0.99504900 </v>
  </varray>
 </structure>
 <calculation>
  <scstep>
   <time name="total">  239.54  240.61</time>
   <energy>
    <i name="alphaZ">    339.31929130 </i>
    <i name="ewald">  -9063.90769625 </i>
    <i name="hartreedc">  -8067.44581043 </i>
    <i name="XCdc">    369.90403715 </i>
    <i name="pawpsdc">  16899.37376960 </i>
    <i name="pawaedc"> -17392.18730937 </i>
    <i name="eentropy">     -0.00144845 </i>
    <i name="bandstr">  -1657.95041529 </i>
    <i name="atom">  18320.98302006 </i>
    <i name="e_fr_energy">     75.53866179 </i>
    <i name="e_wo_entrp">     75.54011024 </i>
    <i name="e_0_energy">     75.53914460 </i>
   </energy>
  </scstep>
  <scstep>
   <time name="total">  245.03  246.09</time>
   <energy>
    <i name="e_fr_energy">     -8.37497504 </i>
    <i name="e_wo_entrp">     -8.37432568 </i>
    <i name="e_0_energy">     -8.37475858 </i>
   </energy>
  </scstep>
  <scstep>
   <time name="total">  245.55  246.60</time>
   <energy>
    <i name="e_fr_energy">    -15.09638538 </i>
    <i name="e_wo_entrp">    -15.09652649 </i>
    <i name="e_0_energy">    -15.09643242 </i>
   </energy>
  </scstep>
  <scstep>
   <time name="total">  246.15  247.18</time>
   <energy>
    <i name="e_fr_energy">    -22.55739878 </i>
    <i name="e_wo_entrp">    -22.55776987 </i>
    <i name="e_0_energy">    -22.55752247 </i>
   </energy>
  </scstep>
  <scstep>
   <time name="total">  245.96  246.98</time>
   <energy>
    <i name="e_fr_energy">    -60.80296492 </i>
    <i name="e_wo_entrp">    -60.80360623 </i>
    <i name="e_0_energy">    -60.80317869 </i>
   </energy>
  </scstep>
  <scstep>
   <time name="total">  245.62  246.62</time>
   <energy>
    <i name="e_fr_energy">    -65.93354966 </i>
    <i name="e_wo_entrp">    -65.93420199 </i>
    <i name="e_0_energy">    -65.93376710 </i>
   </energy>
  </scstep>
  <scstep>
   <time name="total">  245.63  246.63</time>
   <energy>
    <i name="e_fr_energy">    -67.47302692 </i>
    <i name="e_wo_entrp">    -67.47344112 </i>
    <i name="e_0_energy">    -67.47316498 </i>
   </energy>
  </scstep>
  <scstep>
   <time name="total">  246.57  246.49</time>
   <energy>
    <i name="e_fr_energy">    -69.08412155 </i>
    <i name="e_wo_entrp">    -69.08482215 </i>
    <i name="e_0_energy">    -69.08435508 </i>
   </energy>
  </scstep>
  <scstep>
   <time name="total">  246.90  246.69</time>
   <energy>
    <i name="e_fr_energy">    -69.39530900 </i>
    <i name="e_wo_entrp">    -69.39613882 </i>
    <i name="e_0_energy">    -69.39558561 </i>
   </energy>
  </scstep>
  <scstep>
   <time name="total">  247.11  246.90</time>
   <energy>
    <i name="e_fr_energy">    -69.49888299 </i>
    <i name="e_wo_entrp">    -69.49955384 </i>
    <i name="e_0_energy">    -69.49910661 </i>
   </energy>
  </scstep>
  <scstep>
   <time name="total">  246.41  246.20</time>
   <energy>
    <i name="e_fr_energy">    -69.56856341 </i>
    <i name="e_wo_entrp">    -69.56912928 </i>
    <i name="e_0_energy">    -69.56875204 </i>
   </energy>
  </scstep>
  <scstep>
   <time name="total">  246.66  246.46</time>
   <energy>
    <i name="e_fr_energy">    -69.58092342 </i>
    <i name="e_wo_entrp">    -69.58144160 </i>
    <i name="e_0_energy">    -69.58109614 </i>
   </energy>
  </scstep>
  <scstep>
   <time name="total">  246.26  246.06</time>
   <energy>
    <i name="e_fr_energy">    -69.59058176 </i>
    <i name="e_wo_entrp">    -69.59108799 </i>
    <i name="e_0_energy">    -69.59075050 </i>
   </energy>
  </scstep>
  <scstep>
   <time name="total">  246.96  246.74</time>
   <energy>
    <i name="e_fr_energy">    -69.59304333 </i>
    <i name="e_wo_entrp">    -69.59356459 </i>
    <i name="e_0_energy">    -69.59321708 </i>
   </energy>
  </scstep>
  <scstep>
   <time name="total">  252.21  252.42</time>
   <energy>
    <i name="e_fr_energy">    -69.59455035 </i>
    <i name="e_wo_entrp">    -69.59508342 </i>
    <i name="e_0_energy">    -69.59472804 </i>
   </energy>
  </scstep>
  <scstep>
   <time name="total">  251.27  251.15</time>
   <energy>
    <i name="e_fr_energy">    -69.59512257 </i>
    <i name="e_wo_entrp">    -69.59565698 </i>
    <i name="e_0_energy">    -69.59530071 </i>
   </energy>
  </scstep>
  <scstep>
   <time name="total">  251.05  250.84</time>
   <energy>
    <i name="e_fr_energy">    -69.59529610 </i>
    <i name="e_wo_entrp">    -69.59582801 </i>
    <i name="e_0_energy">    -69.59547340 </i>
   </energy>
  </scstep>
  <scstep>
   <time name="total">  251.14  250.93</time>
   <energy>
    <i name="e_fr_energy">    -69.59541349 </i>
    <i name="e_wo_entrp">    -69.59594263 </i>
    <i name="e_0_energy">    -69.59558987 </i>
   </energy>
  </scstep>
  <scstep>
   <time name="total">  250.58  250.38</time>
   <energy>
    <i name="e_fr_energy">    -69.59544250 </i>
    <i name="e_wo_entrp">    -69.59597029 </i>
    <i name="e_0_energy">    -69.59561843 </i>
   </energy>
  </scstep>
  <scstep>
   <time name="total">  249.38  249.16</time>
   <energy>
    <i name="e_fr_energy">    -69.59546234 </i>
    <i name="e_wo_entrp">    -69.59599041 </i>
    <i name="e_0_energy">    -69.59563836 </i>
   </energy>
  </scstep>
  <scstep>
   <time name="total">  249.13  248.93</time>
   <energy>
    <i name="alphaZ">    339.31929130 </i>
    <i name="ewald">  -9063.90769625 </i>
    <i name="hartreedc">  -8150.12474210 </i>
    <i name="XCdc">    372.06634355 </i>
    <i name="pawpsdc">  15921.75428281 </i>
    <i name="pawaedc"> -16406.95712568 </i>
    <i name="eentropy">      0.00052859 </i>
    <i name="bandstr">  -1742.79022375 </i>
    <i name="atom">  18320.98302006 </i>
    <i name="e_fr_energy">    -69.59546977 </i>
    <i name="e_wo_entrp">    -69.59599836 </i>
    <i name="e_0_energy">    -69.59564597 </i>
   </energy>
  </scstep>
  <structure>
   <crystal>
    <varray name="basis" >
     <v>       3.22479600      -5.64383000       0.03157200 </v>
     <v>       3.22479600       5.64383000       0.03157200 </v>
     <v>      -2.10194600       0.00000000       6.07553700 </v>
    </varray>
    <i name="volume">    221.90106089 </i>
    <varray name="rec_basis" >
     <v>       0.15452516      -0.08859232       0.05346088 </v>
     <v>       0.15452516       0.08859232       0.05346088 </v>
     <v>      -0.00160600       0.00000000       0.16403888 </v>
    </varray>
   </crystal>
   <varray name="positions" >
    <v>       0.61844300       0.12117100       0.11953300 </v>
    <v>       0.12117100       0.61844300       0.61953300 </v>
    <v>       0.96295700       0.79032200       0.11881300 </v>
    <v>       0.79032200       0.96295700       0.61881300 </v>
    <v>       0.43973200       0.26728100       0.59904700 </v>
    <v>       0.26728100       0.43973200       0.09904700 </v>
    <v>       0.07949800       0.91167500       0.49736300 </v>
    <v>       0.57140300       0.41082560       0.98018400 </v>
    <v>       0.73711100       0.25006200       0.49504900 </v>
    <v>       0.41236400       0.57140300       0.48018400 </v>
    <v>       0.91167500       0.07949800       0.99736300 </v>
    <v>       0.25006200       0.73711100       0.99504900 </v>
   </varray>
  </structure>
  <varray name="forces" >
   <v>      -0.01053549      -0.01345821       0.00557663 </v>
   <v>      -0.00294687       0.00205162      -0.00007438 </v>
   <v>      -0.00652868       0.00079821      -0.00227249 </v>
   <v>       0.00306895      -0.00051453       0.00077482 </v>
   <v>      -0.00301406      -0.00052674       0.00363054 </v>
   <v>       0.01060303      -0.03646308      -0.00671359 </v>
   <v>      -0.00016232       0.00150946      -0.00664970 </v>
   <v>       0.01965699       0.06698589       0.00720191 </v>
   <v>      -0.00165878      -0.00098492      -0.00247611 </v>
   <v>       0.00034964       0.00696373       0.00523648 </v>
   <v>      -0.00480460      -0.00979390      -0.00238048 </v>
   <v>      -0.00402781      -0.01656751      -0.00185363 </v>
  </varray>
  <energy>
   <i name="e_fr_energy">    -69.59546977 </i>
   <i name="e_wo_entrp">    -69.59564597 </i>
   <i name="e_0_energy">      0.00052859 </i>
  </energy>
  <time name="totalsc"> 5673.95 5680.26</time>
  <eigenvalues>
   <array>
    <dimension dim="1">band</dimension>
    <dimension dim="2">kpoint</dimension>
    <dimension dim="3">spin</dimension>
    <field>eigene</field>
    <field>occ</field>
    <set>
     <set comment="spin 1">
      <set comment="kpoint 1">
       <r>  -68.6561    1.0000 </r>
       <r>  -68.6457    1.0000 </r>
       <r>  -68.6328    1.0000 </r>
       <r>  -68.6285    1.0000 </r>
       <r>  -68.6227    1.0000 </r>
       <r>  -68.6137    1.0000 </r>
       <r>  -68.6066    1.0000 </r>
       <r>  -68.5962    1.0000 </r>
       <r>  -68.5770    1.0000 </r>
       <r>  -68.5730    1.0000 </r>
       <r>  -68.5600    1.0000 </r>
       <r>  -68.5571    1.0000 </r>
       <r>  -12.7181    1.0000 </r>
       <r>  -11.1277    1.0000 </r>
       <r>  -10.9197    1.0000 </r>
       <r>  -10.6012    1.0000 </r>
       <r>  -10.2512    1.0000 </r>
       <r>  -10.2350    1.0000 </r>
       <r>   -5.9796    1.0000 </r>
       <r>   -4.9846    1.0000 </r>
       <r>   -2.7601    1.0000 </r>
       <r>   -2.2119    1.0000 </r>
       <r>   -2.0711    1.0000 </r>
       <r>   -1.9199    1.0000 </r>
       <r>   -1.5746    1.0000 </r>
       <r>   -0.9863    1.0000 </r>
       <r>   -0.9548    1.0000 </r>
       <r>   -0.6858    1.0000 </r>
       <r>   -0.3999    1.0000 </r>
       <r>   -0.2793    1.0000 </r>
       <r>   -0.2624    1.0000 </r>
       <r>   -0.2359    1.0000 </r>
       <r>   -0.1917    1.0000 </r>
       <r>   -0.1554    1.0000 </r>
       <r>   -0.0408    1.0000 </r>
       <r>    0.0307    1.0000 </r>
       <r>    1.3481    1.0000 </r>
       <r>    1.3612    1.0000 </r>
       <r>    1.4128    1.0000 </r>
       <r>    1.4579    1.0000 </r>
       <r>    1.4715    1.0000 </r>
       <r>    1.4735    1.0000 </r>
       <r>    1.5180    1.0000 </r>
       <r>    1.5325    1.0000 </r>
       <r>    1.5730    1.0000 </r>
       <r>    1.7118    1.0000 </r>
       <r>    1.8916    1.0000 </r>
       <r>    1.9262    1.0000 </r>
       <r>    2.0587    1.0000 </r>
       <r>    2.6511    1.0000 </r>
       <r>    2.7284    1.0000 </r>
       <r>    3.0916    1.0000 </r>
       <r>    3.2179    1.0000 </r>
       <r>    4.0069    1.0043 </r>
       <r>    4.0371    1.0116 </r>
       <r>    4.1743    0.8728 </r>
       <r>    5.5361   -0.0000 </r>
       <r>    6.3558   -0.0000 </r>
       <r>    7.6329    0.0000 </r>
       <r>    7.9896    0.0000 </r>
       <r>    8.6091    0.0000 </r>
       <r>    8.7917    0.0000 </r>
       <r>    9.5753    0.0000 </r>
       <r>    9.7414    0.0000 </r>
       <r>    9.8050    0.0000 </r>
       <r>   10.4178    0.0000 </r>
       <r>   10.5880    0.0000 </r>
       <r>   10.6964    0.0000 </r>
       <r>   10.7162    0.0000 </r>
       <r>   11.2787    0.0000 </r>
       <r>   11.7193    0.0000 </r>
       <r>   12.3939    0.0000 </r>
       <r>   12.4436    0.0000 </r>
       <r>   12.7222    0.0000 </r>
       <r>   13.3227    0.0000 </r>
       <r>   13.3917    0.0000 </r>
       <r>   13.8312    0.0000 </r>
       <r>   13.8866    0.0000 </r>
       <r>   14.1458    0.0000 </r>
       <r>   14.1816    0.0000 </r>
      </set>
      <set comment="kpoint 2">
       <r>  -68.6560    1.0000 </r>
       <r>  -68.6456    1.0000 </r>
       <r>  -68.6328    1.0000 </r>
       <r>  -68.6285    1.0000 </r>
       <r>  -68.6226    1.0000 </r>
       <r>  -68.6136    1.0000 </r>
       <r>  -68.6066    1.0000 </r>
       <r>  -68.5963    1.0000 </r>
       <r>  -68.5769    1.0000 </r>
       <r>  -68.5729    1.0000 </r>
       <r>  -68.5600    1.0000 </r>
       <r>  -68.5570    1.0000 </r>
       <r>  -12.5929    1.0000 </r>
       <r>  -11.1281    1.0000 </r>
       <r>  -10.9817    1.0000 </r>
       <r>  -10.6753    1.0000 </r>
       <r>  -10.3668    1.0000 </r>
       <r>  -10.2772    1.0000 </r>
       <r>   -5.9281    1.0000 </r>
       <r>   -4.7760    1.0000 </r>
       <r>   -2.6467    1.0000 </r>
       <r>   -2.2538    1.0000 </r>
       <r>   -2.0871    1.0000 </r>
       <r>   -1.6852    1.0000 </r>
       <r>   -1.3439    1.0000 </r>
       <r>   -1.0003    1.0000 </r>
       <r>   -0.7728    1.0000 </r>
       <r>   -0.6207    1.0000 </r>
       <r>   -0.5525    1.0000 </r>
       <r>   -0.4376    1.0000 </r>
       <r>   -0.3599    1.0000 </r>
       <r>   -0.2461    1.0000 </r>
       <r>   -0.1946    1.0000 </r>
       <r>   -0.1716    1.0000 </r>
       <r>   -0.0472    1.0000 </r>
       <r>    0.0374    1.0000 </r>
       <r>    1.2775    1.0000 </r>
       <r>    1.3361    1.0000 </r>
       <r>    1.3545    1.0000 </r>
       <r>    1.3905    1.0000 </r>
       <r>    1.4244    1.0000 </r>
       <r>    1.4709    1.0000 </r>
       <r>    1.4974    1.0000 </r>
       <r>    1.5309    1.0000 </r>
       <r>    1.7229    1.0000 </r>
       <r>    1.8591    1.0000 </r>
       <r>    2.0570    1.0000 </r>
       <r>    2.0937    1.0000 </r>
       <r>    2.2314    1.0000 </r>
       <r>    2.4143    1.0000 </r>
       <r>    2.5557    1.0000 </r>
       <r>    2.8255    1.0000 </r>
       <r>    2.9471    1.0000 </r>
       <r>    3.2416    1.0000 </r>
       <r>    3.6625    1.0000 </r>
       <r>    4.0414    1.0132 </r>
       <r>    6.1686   -0.0000 </r>
       <r>    6.9016   -0.0000 </r>
       <r>    8.1424    0.0000 </r>
       <r>    8.2670    0.0000 </r>
       <r>    8.5893    0.0000 </r>
       <r>    9.0116    0.0000 </r>
       <r>    9.2472    0.0000 </r>
       <r>    9.5245    0.0000 </r>
       <r>    9.8688    0.0000 </r>
       <r>   10.3772    0.0000 </r>
       <r>   10.6379    0.0000 </r>
       <r>   10.8140    0.0000 </r>
       <r>   10.9393    0.0000 </r>
       <r>   11.1865    0.0000 </r>
       <r>   11.6517    0.0000 </r>
       <r>   11.7703    0.0000 </r>
       <r>   12.1173    0.0000 </r>
       <r>   12.4440    0.0000 </r>
       <r>   12.6197    0.0000 </r>
       <r>   13.0094    0.0000 </r>
       <r>   13.5051    0.0000 </r>
       <r>   13.8764    0.0000 </r>
       <r>   14.2148    0.0000 </r>
       <r>   14.7129    0.0000 </r>
      </set>
      <set comment="kpoint 3">
       <r>  -68.6559    1.0000 </r>
       <r>  -68.6455    1.0000 </r>
       <r>  -68.6327    1.0000 </r>
       <r>  -68.6284    1.0000 </r>
       <r>  -68.6226    1.0000 </r>
       <r>  -68.6135    1.0000 </r>
       <r>  -68.6065    1.0000 </r>
       <r>  -68.5962    1.0000 </r>
       <r>  -68.5769    1.0000 </r>
       <r>  -68.5729    1.0000 </r>
       <r>  -68.5598    1.0000 </r>
       <r>  -68.5569    1.0000 </r>
       <r>  -12.4332    1.0000 </r>
       <r>  -11.2517    1.0000 </r>
       <r>  -10.9542    1.0000 </r>
       <r>  -10.7625    1.0000 </r>
       <r>  -10.4286    1.0000 </r>
       <r>  -10.3575    1.0000 </r>
       <r>   -5.8660    1.0000 </r>
       <r>   -4.5532    1.0000 </r>
       <r>   -2.4959    1.0000 </r>
       <r>   -2.2467    1.0000 </r>
       <r>   -1.9438    1.0000 </r>
       <r>   -1.4608    1.0000 </r>
       <r>   -1.2247    1.0000 </r>
       <r>   -1.1003    1.0000 </r>
       <r>   -0.8998    1.0000 </r>
       <r>   -0.8634    1.0000 </r>
       <r>   -0.6018    1.0000 </r>
       <r>   -0.5370    1.0000 </r>
       <r>   -0.2769    1.0000 </r>
       <r>   -0.2045    1.0000 </r>
       <r>   -0.2027    1.0000 </r>
       <r>   -0.1495    1.0000 </r>
       <r>   -0.0292    1.0000 </r>
       <r>    0.0777    1.0000 </r>
       <r>    1.2527    1.0000 </r>
       <r>    1.3277    1.0000 </r>
       <r>    1.3453    1.0000 </r>
       <r>    1.3937    1.0000 </r>
       <r>    1.4711    1.0000 </r>
       <r>    1.4793    1.0000 </r>
       <r>    1.4985    1.0000 </r>
       <r>    1.5534    1.0000 </r>
       <r>    1.7516    1.0000 </r>
       <r>    1.7941    1.0000 </r>
       <r>    1.9690    1.0000 </r>
       <r>    2.1461    1.0000 </r>
       <r>    2.3202    1.0000 </r>
       <r>    2.3620    1.0000 </r>
       <r>    2.5525    1.0000 </r>
       <r>    2.6692    1.0000 </r>
       <r>    2.9337    1.0000 </r>
       <r>    3.0805    1.0000 </r>
       <r>    3.2492    1.0000 </r>
       <r>    3.8621    1.0000 </r>
       <r>    6.3838   -0.0000 </r>
       <r>    7.0926    0.0000 </r>
       <r>    7.9826    0.0000 </r>
       <r>    8.2067    0.0000 </r>
       <r>    8.5207    0.0000 </r>
       <r>    8.8193    0.0000 </r>
       <r>    9.3159    0.0000 </r>
       <r>    9.8876    0.0000 </r>
       <r>   10.0149    0.0000 </r>
       <r>   10.5268    0.0000 </r>
       <r>   10.6830    0.0000 </r>
       <r>   10.7962    0.0000 </r>
       <r>   11.1378    0.0000 </r>
       <r>   11.4106    0.0000 </r>
       <r>   11.6101    0.0000 </r>
       <r>   11.7742    0.0000 </r>
       <r>   11.9418    0.0000 </r>
       <r>   12.5025    0.0000 </r>
       <r>   12.7848    0.0000 </r>
       <r>   12.9985    0.0000 </r>
       <r>   13.3991    0.0000 </r>
       <r>   13.5401    0.0000 </r>
       <r>   13.9417    0.0000 </r>
       <r>   14.2707    0.0000 </r>
      </set>
      <set comment="kpoint 4">
       <r>  -68.6560    1.0000 </r>
       <r>  -68.6457    1.0000 </r>
       <r>  -68.6328    1.0000 </r>
       <r>  -68.6285    1.0000 </r>
       <r>  -68.6226    1.0000 </r>
       <r>  -68.6136    1.0000 </r>
       <r>  -68.6066    1.0000 </r>
       <r>  -68.5962    1.0000 </r>
       <r>  -68.5769    1.0000 </r>
       <r>  -68.5729    1.0000 </r>
       <r>  -68.5600    1.0000 </r>
       <r>  -68.5570    1.0000 </r>
       <r>  -12.5929    1.0000 </r>
       <r>  -11.1262    1.0000 </r>
       <r>  -10.9843    1.0000 </r>
       <r>  -10.6746    1.0000 </r>
       <r>  -10.3663    1.0000 </r>
       <r>  -10.2777    1.0000 </r>
       <r>   -5.9282    1.0000 </r>
       <r>   -4.7753    1.0000 </r>
       <r>   -2.6450    1.0000 </r>
       <r>   -2.2529    1.0000 </r>
       <r>   -2.0871    1.0000 </r>
       <r>   -1.6904    1.0000 </r>
       <r>   -1.3426    1.0000 </r>
       <r>   -1.0031    1.0000 </r>
       <r>   -0.7680    1.0000 </r>
       <r>   -0.6230    1.0000 </r>
       <r>   -0.5548    1.0000 </r>
       <r>   -0.4382    1.0000 </r>
       <r>   -0.3620    1.0000 </r>
       <r>   -0.2424    1.0000 </r>
       <r>   -0.1933    1.0000 </r>
       <r>   -0.1685    1.0000 </r>
       <r>   -0.0492    1.0000 </r>
       <r>    0.0367    1.0000 </r>
       <r>    1.2778    1.0000 </r>
       <r>    1.3360    1.0000 </r>
       <r>    1.3536    1.0000 </r>
       <r>    1.3909    1.0000 </r>
       <r>    1.4254    1.0000 </r>
       <r>    1.4703    1.0000 </r>
       <r>    1.4977    1.0000 </r>
       <r>    1.5296    1.0000 </r>
       <r>    1.7250    1.0000 </r>
       <r>    1.8574    1.0000 </r>
       <r>    2.0571    1.0000 </r>
       <r>    2.0956    1.0000 </r>
       <r>    2.2305    1.0000 </r>
       <r>    2.4135    1.0000 </r>
       <r>    2.5545    1.0000 </r>
       <r>    2.8258    1.0000 </r>
       <r>    2.9492    1.0000 </r>
       <r>    3.2422    1.0000 </r>
       <r>    3.6623    1.0000 </r>
       <r>    4.0410    1.0130 </r>
       <r>    6.1688   -0.0000 </r>
       <r>    6.9011   -0.0000 </r>
       <r>    8.1329    0.0000 </r>
       <r>    8.2714    0.0000 </r>
       <r>    8.5954    0.0000 </r>
       <r>    9.0087    0.0000 </r>
       <r>    9.2504    0.0000 </r>
       <r>    9.5276    0.0000 </r>
       <r>    9.8651    0.0000 </r>
       <r>   10.3791    0.0000 </r>
       <r>   10.6330    0.0000 </r>
       <r>   10.8119    0.0000 </r>
       <r>   10.9406    0.0000 </r>
       <r>   11.1918    0.0000 </r>
       <r>   11.6545    0.0000 </r>
       <r>   11.7702    0.0000 </r>
       <r>   12.1151    0.0000 </r>
       <r>   12.4445    0.0000 </r>
       <r>   12.6196    0.0000 </r>
       <r>   13.0043    0.0000 </r>
       <r>   13.5152    0.0000 </r>
       <r>   13.8991    0.0000 </r>
       <r>   14.2694    0.0000 </r>
       <r>   14.8351    0.0000 </r>
      </set>
      <set comment="kpoint 5">
       <r>  -68.6560    1.0000 </r>
       <r>  -68.6457    1.0000 </r>
       <r>  -68.6327    1.0000 </r>
       <r>  -68.6284    1.0000 </r>
       <r>  -68.6227    1.0000 </r>
       <r>  -68.6137    1.0000 </r>
       <r>  -68.6065    1.0000 </r>
       <r>  -68.5961    1.0000 </r>
       <r>  -68.5770    1.0000 </r>
       <r>  -68.5731    1.0000 </r>
       <r>  -68.5600    1.0000 </r>
       <r>  -68.5571    1.0000 </r>
       <r>  -12.4370    1.0000 </r>
       <r>  -11.1933    1.0000 </r>
       <r>  -10.9415    1.0000 </r>
       <r>  -10.8754    1.0000 </r>
       <r>  -10.3902    1.0000 </r>
       <r>  -10.3515    1.0000 </r>
       <r>   -5.8711    1.0000 </r>
       <r>   -4.5256    1.0000 </r>
       <r>   -2.4181    1.0000 </r>
       <r>   -2.2472    1.0000 </r>
       <r>   -1.7912    1.0000 </r>
       <r>   -1.6819    1.0000 </r>
       <r>   -1.3583    1.0000 </r>
       <r>   -1.2974    1.0000 </r>
       <r>   -1.0787    1.0000 </r>
       <r>   -0.6819    1.0000 </r>
       <r>   -0.5233    1.0000 </r>
       <r>   -0.2974    1.0000 </r>
       <r>   -0.2838    1.0000 </r>
       <r>   -0.2251    1.0000 </r>
       <r>   -0.1871    1.0000 </r>
       <r>   -0.1306    1.0000 </r>
       <r>   -0.0925    1.0000 </r>
       <r>    0.0765    1.0000 </r>
       <r>    1.2921    1.0000 </r>
       <r>    1.3101    1.0000 </r>
       <r>    1.4149    1.0000 </r>
       <r>    1.4240    1.0000 </r>
       <r>    1.4608    1.0000 </r>
       <r>    1.4818    1.0000 </r>
       <r>    1.4951    1.0000 </r>
       <r>    1.5709    1.0000 </r>
       <r>    1.6720    1.0000 </r>
       <r>    1.8808    1.0000 </r>
       <r>    1.9408    1.0000 </r>
       <r>    2.1353    1.0000 </r>
       <r>    2.2802    1.0000 </r>
       <r>    2.3203    1.0000 </r>
       <r>    2.5589    1.0000 </r>
       <r>    2.6479    1.0000 </r>
       <r>    2.9031    1.0000 </r>
       <r>    2.9425    1.0000 </r>
       <r>    3.6987    1.0000 </r>
       <r>    3.8338    1.0000 </r>
       <r>    6.1685   -0.0000 </r>
       <r>    6.9827    0.0000 </r>
       <r>    8.0057    0.0000 </r>
       <r>    8.3277    0.0000 </r>
       <r>    8.4352    0.0000 </r>
       <r>    8.5745    0.0000 </r>
       <r>    9.1398    0.0000 </r>
       <r>    9.2501    0.0000 </r>
       <r>   10.3597    0.0000 </r>
       <r>   10.4973    0.0000 </r>
       <r>   10.9217    0.0000 </r>
       <r>   11.1868    0.0000 </r>
       <r>   11.3260    0.0000 </r>
       <r>   11.5563    0.0000 </r>
       <r>   11.8155    0.0000 </r>
       <r>   11.9650    0.0000 </r>
       <r>   12.3157    0.0000 </r>
       <r>   12.5035    0.0000 </r>
       <r>   12.7097    0.0000 </r>
       <r>   12.9152    0.0000 </r>
       <r>   13.3410    0.0000 </r>
       <r>   13.4440    0.0000 </r>
       <r>   14.2611    0.0000 </r>
       <r>   14.3673    0.0000 </r>
      </set>
      <set comment="kpoint 6">
       <r>  -68.6558    1.0000 </r>
       <r>  -68.6455    1.0000 </r>
       <r>  -68.6328    1.0000 </r>
       <r>  -68.6284    1.0000 </r>
       <r>  -68.6225    1.0000 </r>
       <r>  -68.6135    1.0000 </r>
       <r>  -68.6066    1.0000 </r>
       <r>  -68.5962    1.0000 </r>
       <r>  -68.5768    1.0000 </r>
       <r>  -68.5728    1.0000 </r>
       <r>  -68.5599    1.0000 </r>
       <r>  -68.5569    1.0000 </r>
       <r>  -12.4368    1.0000 </r>
       <r>  -11.3569    1.0000 </r>
       <r>  -10.9355    1.0000 </r>
       <r>  -10.7365    1.0000 </r>
       <r>  -10.3901    1.0000 </r>
       <r>  -10.2713    1.0000 </r>
       <r>   -5.9431    1.0000 </r>
       <r>   -4.6442    1.0000 </r>
       <r>   -2.3930    1.0000 </r>
       <r>   -2.2297    1.0000 </r>
       <r>   -2.0581    1.0000 </r>
       <r>   -1.6353    1.0000 </r>
       <r>   -1.3610    1.0000 </r>
       <r>   -1.2816    1.0000 </r>
       <r>   -1.0218    1.0000 </r>
       <r>   -0.5127    1.0000 </r>
       <r>   -0.4837    1.0000 </r>
       <r>   -0.3308    1.0000 </r>
       <r>   -0.2829    1.0000 </r>
       <r>   -0.2182    1.0000 </r>
       <r>   -0.1532    1.0000 </r>
       <r>   -0.1358    1.0000 </r>
       <r>   -0.0117    1.0000 </r>
       <r>    0.1110    1.0000 </r>
       <r>    1.2444    1.0000 </r>
       <r>    1.3129    1.0000 </r>
       <r>    1.3824    1.0000 </r>
       <r>    1.4356    1.0000 </r>
       <r>    1.4594    1.0000 </r>
       <r>    1.4909    1.0000 </r>
       <r>    1.4962    1.0000 </r>
       <r>    1.5506    1.0000 </r>
       <r>    1.7485    1.0000 </r>
       <r>    1.8269    1.0000 </r>
       <r>    1.9213    1.0000 </r>
       <r>    2.1346    1.0000 </r>
       <r>    2.2206    1.0000 </r>
       <r>    2.3844    1.0000 </r>
       <r>    2.5605    1.0000 </r>
       <r>    2.7889    1.0000 </r>
       <r>    2.9796    1.0000 </r>
       <r>    3.3130    1.0000 </r>
       <r>    3.6025    1.0000 </r>
       <r>    3.7498    1.0000 </r>
       <r>    6.0869   -0.0000 </r>
       <r>    6.9349   -0.0000 </r>
       <r>    7.6139    0.0000 </r>
       <r>    8.0707    0.0000 </r>
       <r>    8.4079    0.0000 </r>
       <r>    8.6164    0.0000 </r>
       <r>    8.9795    0.0000 </r>
       <r>    9.1541    0.0000 </r>
       <r>   10.0844    0.0000 </r>
       <r>   10.3379    0.0000 </r>
       <r>   10.7297    0.0000 </r>
       <r>   11.1104    0.0000 </r>
       <r>   11.4652    0.0000 </r>
       <r>   11.5976    0.0000 </r>
       <r>   11.7992    0.0000 </r>
       <r>   12.0875    0.0000 </r>
       <r>   12.4732    0.0000 </r>
       <r>   12.9136    0.0000 </r>
       <r>   13.0428    0.0000 </r>
       <r>   13.8300    0.0000 </r>
       <r>   14.1941    0.0000 </r>
       <r>   14.6544    0.0000 </r>
       <r>   15.4324    0.0000 </r>
       <r>   15.6400    0.0000 </r>
      </set>
      <set comment="kpoint 7">
       <r>  -68.6560    1.0000 </r>
       <r>  -68.6457    1.0000 </r>
       <r>  -68.6328    1.0000 </r>
       <r>  -68.6285    1.0000 </r>
       <r>  -68.6225    1.0000 </r>
       <r>  -68.6135    1.0000 </r>
       <r>  -68.6066    1.0000 </r>
       <r>  -68.5962    1.0000 </r>
       <r>  -68.5769    1.0000 </r>
       <r>  -68.5729    1.0000 </r>
       <r>  -68.5600    1.0000 </r>
       <r>  -68.5570    1.0000 </r>
       <r>  -12.5955    1.0000 </r>
       <r>  -11.2528    1.0000 </r>
       <r>  -10.9902    1.0000 </r>
       <r>  -10.5689    1.0000 </r>
       <r>  -10.3677    1.0000 </r>
       <r>  -10.1796    1.0000 </r>
       <r>   -6.0054    1.0000 </r>
       <r>   -4.8948    1.0000 </r>
       <r>   -2.6468    1.0000 </r>
       <r>   -2.3171    1.0000 </r>
       <r>   -1.9723    1.0000 </r>
       <r>   -1.6454    1.0000 </r>
       <r>   -1.4927    1.0000 </r>
       <r>   -1.1830    1.0000 </r>
       <r>   -0.7927    1.0000 </r>
       <r>   -0.5830    1.0000 </r>
       <r>   -0.4488    1.0000 </r>
       <r>   -0.3391    1.0000 </r>
       <r>   -0.2944    1.0000 </r>
       <r>   -0.2328    1.0000 </r>
       <r>   -0.1741    1.0000 </r>
       <r>   -0.1352    1.0000 </r>
       <r>   -0.0096    1.0000 </r>
       <r>    0.0706    1.0000 </r>
       <r>    1.2575    1.0000 </r>
       <r>    1.3194    1.0000 </r>
       <r>    1.3619    1.0000 </r>
       <r>    1.4235    1.0000 </r>
       <r>    1.4308    1.0000 </r>
       <r>    1.4749    1.0000 </r>
       <r>    1.5035    1.0000 </r>
       <r>    1.5399    1.0000 </r>
       <r>    1.7231    1.0000 </r>
       <r>    1.8122    1.0000 </r>
       <r>    1.9946    1.0000 </r>
       <r>    2.0723    1.0000 </r>
       <r>    2.4173    1.0000 </r>
       <r>    2.4621    1.0000 </r>
       <r>    2.5290    1.0000 </r>
       <r>    2.8726    1.0000 </r>
       <r>    3.1417    1.0000 </r>
       <r>    3.2295    1.0000 </r>
       <r>    3.7838    1.0000 </r>
       <r>    4.0701    1.0255 </r>
       <r>    5.9808   -0.0000 </r>
       <r>    6.6900   -0.0000 </r>
       <r>    7.5299    0.0000 </r>
       <r>    8.2270    0.0000 </r>
       <r>    8.6137    0.0000 </r>
       <r>    8.9077    0.0000 </r>
       <r>    9.3084    0.0000 </r>
       <r>    9.4298    0.0000 </r>
       <r>    9.8079    0.0000 </r>
       <r>   10.2731    0.0000 </r>
       <r>   10.5514    0.0000 </r>
       <r>   10.8334    0.0000 </r>
       <r>   10.9661    0.0000 </r>
       <r>   11.3828    0.0000 </r>
       <r>   11.4730    0.0000 </r>
       <r>   11.7290    0.0000 </r>
       <r>   12.0982    0.0000 </r>
       <r>   12.6628    0.0000 </r>
       <r>   12.9423    0.0000 </r>
       <r>   13.0972    0.0000 </r>
       <r>   13.3511    0.0000 </r>
       <r>   13.5193    0.0000 </r>
       <r>   14.4802    0.0000 </r>
       <r>   14.7567    0.0000 </r>
      </set>
      <set comment="kpoint 8">
       <r>  -68.6559    1.0000 </r>
       <r>  -68.6455    1.0000 </r>
       <r>  -68.6327    1.0000 </r>
       <r>  -68.6284    1.0000 </r>
       <r>  -68.6225    1.0000 </r>
       <r>  -68.6136    1.0000 </r>
       <r>  -68.6065    1.0000 </r>
       <r>  -68.5962    1.0000 </r>
       <r>  -68.5768    1.0000 </r>
       <r>  -68.5729    1.0000 </r>
       <r>  -68.5599    1.0000 </r>
       <r>  -68.5569    1.0000 </r>
       <r>  -12.4331    1.0000 </r>
       <r>  -11.2508    1.0000 </r>
       <r>  -10.9554    1.0000 </r>
       <r>  -10.7626    1.0000 </r>
       <r>  -10.4271    1.0000 </r>
       <r>  -10.3591    1.0000 </r>
       <r>   -5.8660    1.0000 </r>
       <r>   -4.5514    1.0000 </r>
       <r>   -2.4928    1.0000 </r>
       <r>   -2.2452    1.0000 </r>
       <r>   -1.9468    1.0000 </r>
       <r>   -1.4642    1.0000 </r>
       <r>   -1.2285    1.0000 </r>
       <r>   -1.1019    1.0000 </r>
       <r>   -0.9036    1.0000 </r>
       <r>   -0.8629    1.0000 </r>
       <r>   -0.5981    1.0000 </r>
       <r>   -0.5357    1.0000 </r>
       <r>   -0.2751    1.0000 </r>
       <r>   -0.2029    1.0000 </r>
       <r>   -0.2014    1.0000 </r>
       <r>   -0.1472    1.0000 </r>
       <r>   -0.0327    1.0000 </r>
       <r>    0.0765    1.0000 </r>
       <r>    1.2533    1.0000 </r>
       <r>    1.3258    1.0000 </r>
       <r>    1.3453    1.0000 </r>
       <r>    1.3966    1.0000 </r>
       <r>    1.4688    1.0000 </r>
       <r>    1.4789    1.0000 </r>
       <r>    1.4991    1.0000 </r>
       <r>    1.5525    1.0000 </r>
       <r>    1.7529    1.0000 </r>
       <r>    1.7910    1.0000 </r>
       <r>    1.9681    1.0000 </r>
       <r>    2.1472    1.0000 </r>
       <r>    2.3230    1.0000 </r>
       <r>    2.3629    1.0000 </r>
       <r>    2.5534    1.0000 </r>
       <r>    2.6685    1.0000 </r>
       <r>    2.9381    1.0000 </r>
       <r>    3.0796    1.0000 </r>
       <r>    3.2487    1.0000 </r>
       <r>    3.8626    1.0000 </r>
       <r>    6.3839   -0.0000 </r>
       <r>    7.0906    0.0000 </r>
       <r>    7.9812    0.0000 </r>
       <r>    8.1985    0.0000 </r>
       <r>    8.5182    0.0000 </r>
       <r>    8.8217    0.0000 </r>
       <r>    9.3235    0.0000 </r>
       <r>    9.8905    0.0000 </r>
       <r>   10.0128    0.0000 </r>
       <r>   10.5188    0.0000 </r>
       <r>   10.6960    0.0000 </r>
       <r>   10.7998    0.0000 </r>
       <r>   11.1374    0.0000 </r>
       <r>   11.4077    0.0000 </r>
       <r>   11.6111    0.0000 </r>
       <r>   11.7755    0.0000 </r>
       <r>   11.9471    0.0000 </r>
       <r>   12.4984    0.0000 </r>
       <r>   12.8298    0.0000 </r>
       <r>   13.0284    0.0000 </r>
       <r>   13.5532    0.0000 </r>
       <r>   13.6848    0.0000 </r>
       <r>   14.5557    0.0000 </r>
       <r>   15.2441    0.0000 </r>
      </set>
      <set comment="kpoint 9">
       <r>  -68.6558    1.0000 </r>
       <r>  -68.6454    1.0000 </r>
       <r>  -68.6327    1.0000 </r>
       <r>  -68.6284    1.0000 </r>
       <r>  -68.6225    1.0000 </r>
       <r>  -68.6136    1.0000 </r>
       <r>  -68.6066    1.0000 </r>
       <r>  -68.5962    1.0000 </r>
       <r>  -68.5768    1.0000 </r>
       <r>  -68.5729    1.0000 </r>
       <r>  -68.5599    1.0000 </r>
       <r>  -68.5569    1.0000 </r>
       <r>  -12.4368    1.0000 </r>
       <r>  -11.3567    1.0000 </r>
       <r>  -10.9359    1.0000 </r>
       <r>  -10.7363    1.0000 </r>
       <r>  -10.3906    1.0000 </r>
       <r>  -10.2710    1.0000 </r>
       <r>   -5.9431    1.0000 </r>
       <r>   -4.6436    1.0000 </r>
       <r>   -2.3907    1.0000 </r>
       <r>   -2.2280    1.0000 </r>
       <r>   -2.0579    1.0000 </r>
       <r>   -1.6417    1.0000 </r>
       <r>   -1.3622    1.0000 </r>
       <r>   -1.2807    1.0000 </r>
       <r>   -1.0221    1.0000 </r>
       <r>   -0.5138    1.0000 </r>
       <r>   -0.4849    1.0000 </r>
       <r>   -0.3284    1.0000 </r>
       <r>   -0.2862    1.0000 </r>
       <r>   -0.2135    1.0000 </r>
       <r>   -0.1507    1.0000 </r>
       <r>   -0.1358    1.0000 </r>
       <r>   -0.0145    1.0000 </r>
       <r>    0.1112    1.0000 </r>
       <r>    1.2441    1.0000 </r>
       <r>    1.3151    1.0000 </r>
       <r>    1.3789    1.0000 </r>
       <r>    1.4365    1.0000 </r>
       <r>    1.4603    1.0000 </r>
       <r>    1.4908    1.0000 </r>
       <r>    1.4971    1.0000 </r>
       <r>    1.5498    1.0000 </r>
       <r>    1.7481    1.0000 </r>
       <r>    1.8278    1.0000 </r>
       <r>    1.9212    1.0000 </r>
       <r>    2.1340    1.0000 </r>
       <r>    2.2204    1.0000 </r>
       <r>    2.3858    1.0000 </r>
       <r>    2.5609    1.0000 </r>
       <r>    2.7910    1.0000 </r>
       <r>    2.9776    1.0000 </r>
       <r>    3.3132    1.0000 </r>
       <r>    3.6024    1.0000 </r>
       <r>    3.7496    1.0000 </r>
       <r>    6.0872   -0.0000 </r>
       <r>    6.9344   -0.0000 </r>
       <r>    7.6115    0.0000 </r>
       <r>    8.0695    0.0000 </r>
       <r>    8.4114    0.0000 </r>
       <r>    8.6157    0.0000 </r>
       <r>    8.9801    0.0000 </r>
       <r>    9.1526    0.0000 </r>
       <r>   10.0895    0.0000 </r>
       <r>   10.3387    0.0000 </r>
       <r>   10.7269    0.0000 </r>
       <r>   11.1164    0.0000 </r>
       <r>   11.4575    0.0000 </r>
       <r>   11.5759    0.0000 </r>
       <r>   11.7858    0.0000 </r>
       <r>   12.0355    0.0000 </r>
       <r>   12.5156    0.0000 </r>
       <r>   12.6717    0.0000 </r>
       <r>   12.9118    0.0000 </r>
       <r>   13.2202    0.0000 </r>
       <r>   14.2332    0.0000 </r>
       <r>   14.7760    0.0000 </r>
       <r>   15.2467    0.0000 </r>
       <r>   15.9066    0.0000 </r>
      </set>
      <set comment="kpoint 10">
       <r>  -68.6557    1.0000 </r>
       <r>  -68.6453    1.0000 </r>
       <r>  -68.6326    1.0000 </r>
       <r>  -68.6283    1.0000 </r>
       <r>  -68.6224    1.0000 </r>
       <r>  -68.6134    1.0000 </r>
       <r>  -68.6064    1.0000 </r>
       <r>  -68.5960    1.0000 </r>
       <r>  -68.5767    1.0000 </r>
       <r>  -68.5728    1.0000 </r>
       <r>  -68.5597    1.0000 </r>
       <r>  -68.5567    1.0000 </r>
       <r>  -12.4280    1.0000 </r>
       <r>  -11.5046    1.0000 </r>
       <r>  -10.9105    1.0000 </r>
       <r>  -10.6169    1.0000 </r>
       <r>  -10.3994    1.0000 </r>
       <r>  -10.1988    1.0000 </r>
       <r>   -6.0218    1.0000 </r>
       <r>   -4.8098    1.0000 </r>
       <r>   -2.3095    1.0000 </r>
       <r>   -2.2691    1.0000 </r>
       <r>   -2.0966    1.0000 </r>
       <r>   -1.7012    1.0000 </r>
       <r>   -1.2469    1.0000 </r>
       <r>   -1.1074    1.0000 </r>
       <r>   -0.8420    1.0000 </r>
       <r>   -0.7802    1.0000 </r>
       <r>   -0.7267    1.0000 </r>
       <r>   -0.2431    1.0000 </r>
       <r>   -0.2040    1.0000 </r>
       <r>   -0.1838    1.0000 </r>
       <r>   -0.1533    1.0000 </r>
       <r>   -0.0436    1.0000 </r>
       <r>   -0.0014    1.0000 </r>
       <r>    0.1842    1.0000 </r>
       <r>    1.2665    1.0000 </r>
       <r>    1.3157    1.0000 </r>
       <r>    1.3702    1.0000 </r>
       <r>    1.4133    1.0000 </r>
       <r>    1.4350    1.0000 </r>
       <r>    1.4902    1.0000 </r>
       <r>    1.5075    1.0000 </r>
       <r>    1.5472    1.0000 </r>
       <r>    1.7852    1.0000 </r>
       <r>    1.8464    1.0000 </r>
       <r>    1.9948    1.0000 </r>
       <r>    2.1507    1.0000 </r>
       <r>    2.2514    1.0000 </r>
       <r>    2.3355    1.0000 </r>
       <r>    2.5585    1.0000 </r>
       <r>    2.7622    1.0000 </r>
       <r>    2.7757    1.0000 </r>
       <r>    3.3714    1.0000 </r>
       <r>    3.7661    1.0000 </r>
       <r>    4.0063    1.0042 </r>
       <r>    5.8550   -0.0000 </r>
       <r>    6.7713   -0.0000 </r>
       <r>    7.0722    0.0000 </r>
       <r>    8.4137    0.0000 </r>
       <r>    8.5617    0.0000 </r>
       <r>    8.7731    0.0000 </r>
       <r>    9.1419    0.0000 </r>
       <r>    9.2420    0.0000 </r>
       <r>    9.9558    0.0000 </r>
       <r>   10.2968    0.0000 </r>
       <r>   10.7268    0.0000 </r>
       <r>   10.8262    0.0000 </r>
       <r>   10.8695    0.0000 </r>
       <r>   11.2768    0.0000 </r>
       <r>   11.7572    0.0000 </r>
       <r>   11.9073    0.0000 </r>
       <r>   11.9721    0.0000 </r>
       <r>   12.3695    0.0000 </r>
       <r>   12.5394    0.0000 </r>
       <r>   13.4514    0.0000 </r>
       <r>   14.2829    0.0000 </r>
       <r>   14.6749    0.0000 </r>
       <r>   16.7451    0.0000 </r>
       <r>   16.7454    0.0000 </r>
      </set>
      <set comment="kpoint 11">
       <r>  -68.6561    1.0000 </r>
       <r>  -68.6457    1.0000 </r>
       <r>  -68.6328    1.0000 </r>
       <r>  -68.6285    1.0000 </r>
       <r>  -68.6226    1.0000 </r>
       <r>  -68.6136    1.0000 </r>
       <r>  -68.6066    1.0000 </r>
       <r>  -68.5963    1.0000 </r>
       <r>  -68.5769    1.0000 </r>
       <r>  -68.5730    1.0000 </r>
       <r>  -68.5600    1.0000 </r>
       <r>  -68.5571    1.0000 </r>
       <r>  -12.6150    1.0000 </r>
       <r>  -11.4239    1.0000 </r>
       <r>  -10.7800    1.0000 </r>
       <r>  -10.6067    1.0000 </r>
       <r>  -10.2500    1.0000 </r>
       <r>  -10.2370    1.0000 </r>
       <r>   -5.8269    1.0000 </r>
       <r>   -5.0480    1.0000 </r>
       <r>   -2.5998    1.0000 </r>
       <r>   -2.3720    1.0000 </r>
       <r>   -1.9591    1.0000 </r>
       <r>   -1.7764    1.0000 </r>
       <r>   -1.4426    1.0000 </r>
       <r>   -1.1288    1.0000 </r>
       <r>   -1.0691    1.0000 </r>
       <r>   -0.7721    1.0000 </r>
       <r>   -0.4687    1.0000 </r>
       <r>   -0.2928    1.0000 </r>
       <r>   -0.2424    1.0000 </r>
       <r>   -0.2358    1.0000 </r>
       <r>   -0.1939    1.0000 </r>
       <r>   -0.1481    1.0000 </r>
       <r>   -0.0180    1.0000 </r>
       <r>    0.0237    1.0000 </r>
       <r>    1.3315    1.0000 </r>
       <r>    1.3802    1.0000 </r>
       <r>    1.4133    1.0000 </r>
       <r>    1.4380    1.0000 </r>
       <r>    1.4647    1.0000 </r>
       <r>    1.4674    1.0000 </r>
       <r>    1.5135    1.0000 </r>
       <r>    1.5463    1.0000 </r>
       <r>    1.6319    1.0000 </r>
       <r>    1.7575    1.0000 </r>
       <r>    1.7856    1.0000 </r>
       <r>    1.9503    1.0000 </r>
       <r>    2.0885    1.0000 </r>
       <r>    2.6591    1.0000 </r>
       <r>    2.7191    1.0000 </r>
       <r>    3.1961    1.0000 </r>
       <r>    3.2533    1.0000 </r>
       <r>    3.5202    1.0000 </r>
       <r>    3.8954    1.0000 </r>
       <r>    3.9767    1.0013 </r>
       <r>    6.0434   -0.0000 </r>
       <r>    6.4121   -0.0000 </r>
       <r>    7.8274    0.0000 </r>
       <r>    7.9078    0.0000 </r>
       <r>    8.3623    0.0000 </r>
       <r>    8.8190    0.0000 </r>
       <r>    9.7766    0.0000 </r>
       <r>    9.7882    0.0000 </r>
       <r>   10.0637    0.0000 </r>
       <r>   10.5888    0.0000 </r>
       <r>   10.6452    0.0000 </r>
       <r>   10.8172    0.0000 </r>
       <r>   10.8582    0.0000 </r>
       <r>   11.4928    0.0000 </r>
       <r>   11.5594    0.0000 </r>
       <r>   12.0258    0.0000 </r>
       <r>   12.5776    0.0000 </r>
       <r>   12.7723    0.0000 </r>
       <r>   12.9124    0.0000 </r>
       <r>   13.2068    0.0000 </r>
       <r>   13.5373    0.0000 </r>
       <r>   13.8231    0.0000 </r>
       <r>   14.1975    0.0000 </r>
       <r>   14.7054    0.0000 </r>
      </set>
      <set comment="kpoint 12">
       <r>  -68.6560    1.0000 </r>
       <r>  -68.6456    1.0000 </r>
       <r>  -68.6328    1.0000 </r>
       <r>  -68.6285    1.0000 </r>
       <r>  -68.6226    1.0000 </r>
       <r>  -68.6137    1.0000 </r>
       <r>  -68.6066    1.0000 </r>
       <r>  -68.5962    1.0000 </r>
       <r>  -68.5770    1.0000 </r>
       <r>  -68.5730    1.0000 </r>
       <r>  -68.5600    1.0000 </r>
       <r>  -68.5570    1.0000 </r>
       <r>  -12.4556    1.0000 </r>
       <r>  -11.4662    1.0000 </r>
       <r>  -10.8630    1.0000 </r>
       <r>  -10.6896    1.0000 </r>
       <r>  -10.3732    1.0000 </r>
       <r>  -10.2454    1.0000 </r>
       <r>   -5.7627    1.0000 </r>
       <r>   -4.8069    1.0000 </r>
       <r>   -2.4460    1.0000 </r>
       <r>   -2.2323    1.0000 </r>
       <r>   -1.8505    1.0000 </r>
       <r>   -1.7099    1.0000 </r>
       <r>   -1.4325    1.0000 </r>
       <r>   -1.1885    1.0000 </r>
       <r>   -0.8916    1.0000 </r>
       <r>   -0.7458    1.0000 </r>
       <r>   -0.6065    1.0000 </r>
       <r>   -0.5238    1.0000 </r>
       <r>   -0.3123    1.0000 </r>
       <r>   -0.2479    1.0000 </r>
       <r>   -0.1759    1.0000 </r>
       <r>   -0.1230    1.0000 </r>
       <r>   -0.0536    1.0000 </r>
       <r>    0.0601    1.0000 </r>
       <r>    1.3015    1.0000 </r>
       <r>    1.3337    1.0000 </r>
       <r>    1.3681    1.0000 </r>
       <r>    1.4317    1.0000 </r>
       <r>    1.4430    1.0000 </r>
       <r>    1.4780    1.0000 </r>
       <r>    1.5205    1.0000 </r>
       <r>    1.5463    1.0000 </r>
       <r>    1.6447    1.0000 </r>
       <r>    1.8716    1.0000 </r>
       <r>    1.9786    1.0000 </r>
       <r>    2.0481    1.0000 </r>
       <r>    2.1938    1.0000 </r>
       <r>    2.4761    1.0000 </r>
       <r>    2.5941    1.0000 </r>
       <r>    2.8377    1.0000 </r>
       <r>    2.9637    1.0000 </r>
       <r>    3.1326    1.0000 </r>
       <r>    3.5679    1.0000 </r>
       <r>    3.7256    1.0000 </r>
       <r>    6.4394   -0.0000 </r>
       <r>    6.9496   -0.0000 </r>
       <r>    8.1690    0.0000 </r>
       <r>    8.2440    0.0000 </r>
       <r>    8.8377    0.0000 </r>
       <r>    9.1304    0.0000 </r>
       <r>    9.4644    0.0000 </r>
       <r>    9.7919    0.0000 </r>
       <r>   10.0826    0.0000 </r>
       <r>   10.3074    0.0000 </r>
       <r>   10.7399    0.0000 </r>
       <r>   11.0808    0.0000 </r>
       <r>   11.2871    0.0000 </r>
       <r>   11.4234    0.0000 </r>
       <r>   11.6291    0.0000 </r>
       <r>   11.7270    0.0000 </r>
       <r>   12.0897    0.0000 </r>
       <r>   12.2695    0.0000 </r>
       <r>   12.5348    0.0000 </r>
       <r>   12.6653    0.0000 </r>
       <r>   12.9569    0.0000 </r>
       <r>   13.0566    0.0000 </r>
       <r>   13.6453    0.0000 </r>
       <r>   14.6907    0.0000 </r>
      </set>
      <set comment="kpoint 13">
       <r>  -68.6558    1.0000 </r>
       <r>  -68.6455    1.0000 </r>
       <r>  -68.6327    1.0000 </r>
       <r>  -68.6284    1.0000 </r>
       <r>  -68.6225    1.0000 </r>
       <r>  -68.6135    1.0000 </r>
       <r>  -68.6065    1.0000 </r>
       <r>  -68.5961    1.0000 </r>
       <r>  -68.5769    1.0000 </r>
       <r>  -68.5729    1.0000 </r>
       <r>  -68.5599    1.0000 </r>
       <r>  -68.5569    1.0000 </r>
       <r>  -12.3531    1.0000 </r>
       <r>  -11.4130    1.0000 </r>
       <r>  -10.9529    1.0000 </r>
       <r>  -10.6828    1.0000 </r>
       <r>  -10.4783    1.0000 </r>
       <r>  -10.3349    1.0000 </r>
       <r>   -5.7483    1.0000 </r>
       <r>   -4.7264    1.0000 </r>
       <r>   -2.5223    1.0000 </r>
       <r>   -2.1854    1.0000 </r>
       <r>   -1.9507    1.0000 </r>
       <r>   -1.5316    1.0000 </r>
       <r>   -1.3002    1.0000 </r>
       <r>   -1.0982    1.0000 </r>
       <r>   -0.8711    1.0000 </r>
       <r>   -0.7584    1.0000 </r>
       <r>   -0.5502    1.0000 </r>
       <r>   -0.4453    1.0000 </r>
       <r>   -0.2908    1.0000 </r>
       <r>   -0.1823    1.0000 </r>
       <r>   -0.1447    1.0000 </r>
       <r>   -0.1099    1.0000 </r>
       <r>   -0.0454    1.0000 </r>
       <r>    0.0230    1.0000 </r>
       <r>    1.2712    1.0000 </r>
       <r>    1.2961    1.0000 </r>
       <r>    1.3492    1.0000 </r>
       <r>    1.4290    1.0000 </r>
       <r>    1.4503    1.0000 </r>
       <r>    1.4799    1.0000 </r>
       <r>    1.5002    1.0000 </r>
       <r>    1.5886    1.0000 </r>
       <r>    1.7192    1.0000 </r>
       <r>    1.9336    1.0000 </r>
       <r>    2.0766    1.0000 </r>
       <r>    2.1452    1.0000 </r>
       <r>    2.2673    1.0000 </r>
       <r>    2.4028    1.0000 </r>
       <r>    2.5671    1.0000 </r>
       <r>    2.5978    1.0000 </r>
       <r>    2.8960    1.0000 </r>
       <r>    3.0091    1.0000 </r>
       <r>    3.3573    1.0000 </r>
       <r>    3.9003    1.0000 </r>
       <r>    6.3653   -0.0000 </r>
       <r>    6.8901   -0.0000 </r>
       <r>    7.5730    0.0000 </r>
       <r>    8.0862    0.0000 </r>
       <r>    8.5484    0.0000 </r>
       <r>    8.8009    0.0000 </r>
       <r>    9.2711    0.0000 </r>
       <r>    9.6291    0.0000 </r>
       <r>    9.9323    0.0000 </r>
       <r>   10.2732    0.0000 </r>
       <r>   10.6575    0.0000 </r>
       <r>   10.9315    0.0000 </r>
       <r>   10.9739    0.0000 </r>
       <r>   11.2831    0.0000 </r>
       <r>   11.5168    0.0000 </r>
       <r>   11.7871    0.0000 </r>
       <r>   12.2450    0.0000 </r>
       <r>   12.5467    0.0000 </r>
       <r>   13.0960    0.0000 </r>
       <r>   13.5190    0.0000 </r>
       <r>   14.2902    0.0000 </r>
       <r>   14.5493    0.0000 </r>
       <r>   15.1284    0.0000 </r>
       <r>   16.2736    0.0000 </r>
      </set>
      <set comment="kpoint 14">
       <r>  -68.6561    1.0000 </r>
       <r>  -68.6457    1.0000 </r>
       <r>  -68.6328    1.0000 </r>
       <r>  -68.6285    1.0000 </r>
       <r>  -68.6226    1.0000 </r>
       <r>  -68.6136    1.0000 </r>
       <r>  -68.6066    1.0000 </r>
       <r>  -68.5962    1.0000 </r>
       <r>  -68.5770    1.0000 </r>
       <r>  -68.5730    1.0000 </r>
       <r>  -68.5600    1.0000 </r>
       <r>  -68.5571    1.0000 </r>
       <r>  -12.5386    1.0000 </r>
       <r>  -11.3355    1.0000 </r>
       <r>  -10.8754    1.0000 </r>
       <r>  -10.6041    1.0000 </r>
       <r>  -10.3986    1.0000 </r>
       <r>  -10.2833    1.0000 </r>
       <r>   -5.8208    1.0000 </r>
       <r>   -4.9771    1.0000 </r>
       <r>   -2.6655    1.0000 </r>
       <r>   -2.4514    1.0000 </r>
       <r>   -2.0384    1.0000 </r>
       <r>   -1.5761    1.0000 </r>
       <r>   -1.1696    1.0000 </r>
       <r>   -0.9829    1.0000 </r>
       <r>   -0.8006    1.0000 </r>
       <r>   -0.6563    1.0000 </r>
       <r>   -0.5150    1.0000 </r>
       <r>   -0.3895    1.0000 </r>
       <r>   -0.2687    1.0000 </r>
       <r>   -0.2574    1.0000 </r>
       <r>   -0.1926    1.0000 </r>
       <r>   -0.1454    1.0000 </r>
       <r>   -0.0480    1.0000 </r>
       <r>    0.0139    1.0000 </r>
       <r>    1.2895    1.0000 </r>
       <r>    1.3098    1.0000 </r>
       <r>    1.3878    1.0000 </r>
       <r>    1.4076    1.0000 </r>
       <r>    1.4316    1.0000 </r>
       <r>    1.4555    1.0000 </r>
       <r>    1.4912    1.0000 </r>
       <r>    1.5638    1.0000 </r>
       <r>    1.6863    1.0000 </r>
       <r>    1.9148    1.0000 </r>
       <r>    1.9853    1.0000 </r>
       <r>    2.1449    1.0000 </r>
       <r>    2.3343    1.0000 </r>
       <r>    2.5657    1.0000 </r>
       <r>    2.6179    1.0000 </r>
       <r>    2.8296    1.0000 </r>
       <r>    2.9717    1.0000 </r>
       <r>    3.2475    1.0000 </r>
       <r>    3.6824    1.0000 </r>
       <r>    3.9461    1.0003 </r>
       <r>    6.1782   -0.0000 </r>
       <r>    6.6338   -0.0000 </r>
       <r>    7.7672    0.0000 </r>
       <r>    7.9717    0.0000 </r>
       <r>    8.2147    0.0000 </r>
       <r>    8.5601    0.0000 </r>
       <r>    9.3775    0.0000 </r>
       <r>    9.5795    0.0000 </r>
       <r>    9.9048    0.0000 </r>
       <r>   10.2526    0.0000 </r>
       <r>   10.5439    0.0000 </r>
       <r>   10.7889    0.0000 </r>
       <r>   10.8469    0.0000 </r>
       <r>   11.0711    0.0000 </r>
       <r>   11.5636    0.0000 </r>
       <r>   12.0207    0.0000 </r>
       <r>   12.5193    0.0000 </r>
       <r>   12.7580    0.0000 </r>
       <r>   12.9503    0.0000 </r>
       <r>   13.3107    0.0000 </r>
       <r>   13.4130    0.0000 </r>
       <r>   13.7433    0.0000 </r>
       <r>   13.8449    0.0000 </r>
       <r>   14.7269    0.0000 </r>
      </set>
      <set comment="kpoint 15">
       <r>  -68.6560    1.0000 </r>
       <r>  -68.6456    1.0000 </r>
       <r>  -68.6328    1.0000 </r>
       <r>  -68.6285    1.0000 </r>
       <r>  -68.6226    1.0000 </r>
       <r>  -68.6137    1.0000 </r>
       <r>  -68.6066    1.0000 </r>
       <r>  -68.5962    1.0000 </r>
       <r>  -68.5770    1.0000 </r>
       <r>  -68.5730    1.0000 </r>
       <r>  -68.5600    1.0000 </r>
       <r>  -68.5570    1.0000 </r>
       <r>  -12.4558    1.0000 </r>
       <r>  -11.4648    1.0000 </r>
       <r>  -10.8659    1.0000 </r>
       <r>  -10.6882    1.0000 </r>
       <r>  -10.3733    1.0000 </r>
       <r>  -10.2452    1.0000 </r>
       <r>   -5.7619    1.0000 </r>
       <r>   -4.8068    1.0000 </r>
       <r>   -2.4450    1.0000 </r>
       <r>   -2.2325    1.0000 </r>
       <r>   -1.8508    1.0000 </r>
       <r>   -1.7121    1.0000 </r>
       <r>   -1.4330    1.0000 </r>
       <r>   -1.1900    1.0000 </r>
       <r>   -0.8885    1.0000 </r>
       <r>   -0.7439    1.0000 </r>
       <r>   -0.6067    1.0000 </r>
       <r>   -0.5310    1.0000 </r>
       <r>   -0.3106    1.0000 </r>
       <r>   -0.2441    1.0000 </r>
       <r>   -0.1737    1.0000 </r>
       <r>   -0.1250    1.0000 </r>
       <r>   -0.0543    1.0000 </r>
       <r>    0.0599    1.0000 </r>
       <r>    1.3000    1.0000 </r>
       <r>    1.3348    1.0000 </r>
       <r>    1.3673    1.0000 </r>
       <r>    1.4315    1.0000 </r>
       <r>    1.4457    1.0000 </r>
       <r>    1.4772    1.0000 </r>
       <r>    1.5207    1.0000 </r>
       <r>    1.5471    1.0000 </r>
       <r>    1.6439    1.0000 </r>
       <r>    1.8699    1.0000 </r>
       <r>    1.9806    1.0000 </r>
       <r>    2.0479    1.0000 </r>
       <r>    2.1934    1.0000 </r>
       <r>    2.4755    1.0000 </r>
       <r>    2.5945    1.0000 </r>
       <r>    2.8375    1.0000 </r>
       <r>    2.9635    1.0000 </r>
       <r>    3.1343    1.0000 </r>
       <r>    3.5692    1.0000 </r>
       <r>    3.7242    1.0000 </r>
       <r>    6.4374   -0.0000 </r>
       <r>    6.9505   -0.0000 </r>
       <r>    8.1692    0.0000 </r>
       <r>    8.2451    0.0000 </r>
       <r>    8.8321    0.0000 </r>
       <r>    9.1308    0.0000 </r>
       <r>    9.4677    0.0000 </r>
       <r>    9.7947    0.0000 </r>
       <r>   10.0910    0.0000 </r>
       <r>   10.2975    0.0000 </r>
       <r>   10.7402    0.0000 </r>
       <r>   11.0815    0.0000 </r>
       <r>   11.2914    0.0000 </r>
       <r>   11.4193    0.0000 </r>
       <r>   11.6336    0.0000 </r>
       <r>   11.7270    0.0000 </r>
       <r>   12.0851    0.0000 </r>
       <r>   12.2658    0.0000 </r>
       <r>   12.5408    0.0000 </r>
       <r>   12.6577    0.0000 </r>
       <r>   12.9550    0.0000 </r>
       <r>   13.0562    0.0000 </r>
       <r>   13.6577    0.0000 </r>
       <r>   14.6963    0.0000 </r>
      </set>
      <set comment="kpoint 16">
       <r>  -68.6559    1.0000 </r>
       <r>  -68.6455    1.0000 </r>
       <r>  -68.6326    1.0000 </r>
       <r>  -68.6283    1.0000 </r>
       <r>  -68.6225    1.0000 </r>
       <r>  -68.6135    1.0000 </r>
       <r>  -68.6064    1.0000 </r>
       <r>  -68.5961    1.0000 </r>
       <r>  -68.5768    1.0000 </r>
       <r>  -68.5728    1.0000 </r>
       <r>  -68.5599    1.0000 </r>
       <r>  -68.5569    1.0000 </r>
       <r>  -12.3234    1.0000 </r>
       <r>  -11.4751    1.0000 </r>
       <r>  -10.8621    1.0000 </r>
       <r>  -10.8570    1.0000 </r>
       <r>  -10.4059    1.0000 </r>
       <r>  -10.2880    1.0000 </r>
       <r>   -5.7439    1.0000 </r>
       <r>   -4.6951    1.0000 </r>
       <r>   -2.2426    1.0000 </r>
       <r>   -2.1366    1.0000 </r>
       <r>   -1.9255    1.0000 </r>
       <r>   -1.8513    1.0000 </r>
       <r>   -1.4573    1.0000 </r>
       <r>   -1.3954    1.0000 </r>
       <r>   -1.0378    1.0000 </r>
       <r>   -0.5176    1.0000 </r>
       <r>   -0.4669    1.0000 </r>
       <r>   -0.3473    1.0000 </r>
       <r>   -0.2501    1.0000 </r>
       <r>   -0.2183    1.0000 </r>
       <r>   -0.1626    1.0000 </r>
       <r>   -0.1151    1.0000 </r>
       <r>   -0.0904    1.0000 </r>
       <r>    0.0800    1.0000 </r>
       <r>    1.2594    1.0000 </r>
       <r>    1.3454    1.0000 </r>
       <r>    1.3985    1.0000 </r>
       <r>    1.4334    1.0000 </r>
       <r>    1.4523    1.0000 </r>
       <r>    1.5089    1.0000 </r>
       <r>    1.5336    1.0000 </r>
       <r>    1.5417    1.0000 </r>
       <r>    1.7539    1.0000 </r>
       <r>    1.8180    1.0000 </r>
       <r>    2.0415    1.0000 </r>
       <r>    2.1360    1.0000 </r>
       <r>    2.2848    1.0000 </r>
       <r>    2.3111    1.0000 </r>
       <r>    2.5210    1.0000 </r>
       <r>    2.7687    1.0000 </r>
       <r>    2.8976    1.0000 </r>
       <r>    3.2612    1.0000 </r>
       <r>    3.4962    1.0000 </r>
       <r>    3.8010    1.0000 </r>
       <r>    6.1805   -0.0000 </r>
       <r>    6.8348   -0.0000 </r>
       <r>    7.8240    0.0000 </r>
       <r>    8.0463    0.0000 </r>
       <r>    8.1887    0.0000 </r>
       <r>    8.7290    0.0000 </r>
       <r>    9.1520    0.0000 </r>
       <r>    9.3041    0.0000 </r>
       <r>   10.2181    0.0000 </r>
       <r>   10.4465    0.0000 </r>
       <r>   10.5910    0.0000 </r>
       <r>   11.0096    0.0000 </r>
       <r>   11.2396    0.0000 </r>
       <r>   11.4860    0.0000 </r>
       <r>   11.8131    0.0000 </r>
       <r>   12.1705    0.0000 </r>
       <r>   12.2088    0.0000 </r>
       <r>   12.5759    0.0000 </r>
       <r>   12.6927    0.0000 </r>
       <r>   13.1123    0.0000 </r>
       <r>   13.4158    0.0000 </r>
       <r>   13.8814    0.0000 </r>
       <r>   14.0108    0.0000 </r>
       <r>   14.5262    0.0000 </r>
      </set>
      <set comment="kpoint 17">
       <r>  -68.6558    1.0000 </r>
       <r>  -68.6454    1.0000 </r>
       <r>  -68.6327    1.0000 </r>
       <r>  -68.6284    1.0000 </r>
       <r>  -68.6225    1.0000 </r>
       <r>  -68.6136    1.0000 </r>
       <r>  -68.6065    1.0000 </r>
       <r>  -68.5961    1.0000 </r>
       <r>  -68.5768    1.0000 </r>
       <r>  -68.5729    1.0000 </r>
       <r>  -68.5598    1.0000 </r>
       <r>  -68.5569    1.0000 </r>
       <r>  -12.3699    1.0000 </r>
       <r>  -11.4735    1.0000 </r>
       <r>  -10.9372    1.0000 </r>
       <r>  -10.6518    1.0000 </r>
       <r>  -10.4191    1.0000 </r>
       <r>  -10.3054    1.0000 </r>
       <r>   -5.7969    1.0000 </r>
       <r>   -4.8381    1.0000 </r>
       <r>   -2.5279    1.0000 </r>
       <r>   -2.2427    1.0000 </r>
       <r>   -1.8718    1.0000 </r>
       <r>   -1.6419    1.0000 </r>
       <r>   -1.5061    1.0000 </r>
       <r>   -1.3048    1.0000 </r>
       <r>   -0.9020    1.0000 </r>
       <r>   -0.5392    1.0000 </r>
       <r>   -0.3780    1.0000 </r>
       <r>   -0.3474    1.0000 </r>
       <r>   -0.2234    1.0000 </r>
       <r>   -0.1805    1.0000 </r>
       <r>   -0.1664    1.0000 </r>
       <r>   -0.0764    1.0000 </r>
       <r>   -0.0264    1.0000 </r>
       <r>    0.0804    1.0000 </r>
       <r>    1.1876    1.0000 </r>
       <r>    1.3619    1.0000 </r>
       <r>    1.3958    1.0000 </r>
       <r>    1.4409    1.0000 </r>
       <r>    1.4633    1.0000 </r>
       <r>    1.5056    1.0000 </r>
       <r>    1.5170    1.0000 </r>
       <r>    1.5852    1.0000 </r>
       <r>    1.7371    1.0000 </r>
       <r>    1.8180    1.0000 </r>
       <r>    2.0360    1.0000 </r>
       <r>    2.2362    1.0000 </r>
       <r>    2.2691    1.0000 </r>
       <r>    2.3638    1.0000 </r>
       <r>    2.4864    1.0000 </r>
       <r>    2.6691    1.0000 </r>
       <r>    3.0543    1.0000 </r>
       <r>    3.4113    1.0000 </r>
       <r>    3.7295    1.0000 </r>
       <r>    3.8634    1.0000 </r>
       <r>    5.9323   -0.0000 </r>
       <r>    6.6106   -0.0000 </r>
       <r>    7.3514    0.0000 </r>
       <r>    7.9428    0.0000 </r>
       <r>    8.0645    0.0000 </r>
       <r>    8.7246    0.0000 </r>
       <r>    8.9030    0.0000 </r>
       <r>    9.1401    0.0000 </r>
       <r>    9.8417    0.0000 </r>
       <r>   10.3270    0.0000 </r>
       <r>   10.5589    0.0000 </r>
       <r>   10.9281    0.0000 </r>
       <r>   11.2206    0.0000 </r>
       <r>   11.4222    0.0000 </r>
       <r>   11.7491    0.0000 </r>
       <r>   12.0089    0.0000 </r>
       <r>   12.4918    0.0000 </r>
       <r>   12.8254    0.0000 </r>
       <r>   13.2066    0.0000 </r>
       <r>   14.1871    0.0000 </r>
       <r>   14.7126    0.0000 </r>
       <r>   15.1440    0.0000 </r>
       <r>   15.9084    0.0000 </r>
       <r>   16.5643    0.0000 </r>
      </set>
      <set comment="kpoint 18">
       <r>  -68.6560    1.0000 </r>
       <r>  -68.6456    1.0000 </r>
       <r>  -68.6328    1.0000 </r>
       <r>  -68.6285    1.0000 </r>
       <r>  -68.6226    1.0000 </r>
       <r>  -68.6136    1.0000 </r>
       <r>  -68.6066    1.0000 </r>
       <r>  -68.5963    1.0000 </r>
       <r>  -68.5769    1.0000 </r>
       <r>  -68.5729    1.0000 </r>
       <r>  -68.5600    1.0000 </r>
       <r>  -68.5570    1.0000 </r>
       <r>  -12.4968    1.0000 </r>
       <r>  -11.4229    1.0000 </r>
       <r>  -10.9507    1.0000 </r>
       <r>  -10.5798    1.0000 </r>
       <r>  -10.3758    1.0000 </r>
       <r>  -10.2073    1.0000 </r>
       <r>   -5.8241    1.0000 </r>
       <r>   -4.9412    1.0000 </r>
       <r>   -2.5739    1.0000 </r>
       <r>   -2.3640    1.0000 </r>
       <r>   -1.9163    1.0000 </r>
       <r>   -1.5959    1.0000 </r>
       <r>   -1.4152    1.0000 </r>
       <r>   -1.1214    1.0000 </r>
       <r>   -0.8186    1.0000 </r>
       <r>   -0.6754    1.0000 </r>
       <r>   -0.5329    1.0000 </r>
       <r>   -0.4723    1.0000 </r>
       <r>   -0.2562    1.0000 </r>
       <r>   -0.1965    1.0000 </r>
       <r>   -0.1681    1.0000 </r>
       <r>   -0.1216    1.0000 </r>
       <r>   -0.0348    1.0000 </r>
       <r>    0.0573    1.0000 </r>
       <r>    1.2798    1.0000 </r>
       <r>    1.3201    1.0000 </r>
       <r>    1.3429    1.0000 </r>
       <r>    1.4342    1.0000 </r>
       <r>    1.4516    1.0000 </r>
       <r>    1.4676    1.0000 </r>
       <r>    1.4931    1.0000 </r>
       <r>    1.5570    1.0000 </r>
       <r>    1.7255    1.0000 </r>
       <r>    1.8403    1.0000 </r>
       <r>    1.9695    1.0000 </r>
       <r>    2.0988    1.0000 </r>
       <r>    2.3362    1.0000 </r>
       <r>    2.4484    1.0000 </r>
       <r>    2.5416    1.0000 </r>
       <r>    2.8502    1.0000 </r>
       <r>    3.0530    1.0000 </r>
       <r>    3.2636    1.0000 </r>
       <r>    3.6725    1.0000 </r>
       <r>    3.7833    1.0000 </r>
       <r>    6.2609   -0.0000 </r>
       <r>    6.7951   -0.0000 </r>
       <r>    7.8138    0.0000 </r>
       <r>    8.1407    0.0000 </r>
       <r>    8.3328    0.0000 </r>
       <r>    8.9303    0.0000 </r>
       <r>    9.3380    0.0000 </r>
[...]
       <r>   11.7039    0.0000 </r>
       <r>   11.8940    0.0000 </r>
       <r>   12.3035    0.0000 </r>
       <r>   12.6620    0.0000 </r>
       <r>   13.0159    0.0000 </r>
       <r>   13.2300    0.0000 </r>
       <r>   13.6701    0.0000 </r>
       <r>   14.0672    0.0000 </r>
       <r>   14.3894    0.0000 </r>
       <r>   16.5073    0.0000 </r>
      </set>
      <set comment="kpoint 42">
       <r>  -68.6560    1.0000 </r>
       <r>  -68.6456    1.0000 </r>
       <r>  -68.6325    1.0000 </r>
       <r>  -68.6282    1.0000 </r>
       <r>  -68.6225    1.0000 </r>
       <r>  -68.6136    1.0000 </r>
       <r>  -68.6064    1.0000 </r>
       <r>  -68.5960    1.0000 </r>
       <r>  -68.5768    1.0000 </r>
       <r>  -68.5729    1.0000 </r>
       <r>  -68.5599    1.0000 </r>
       <r>  -68.5570    1.0000 </r>
       <r>  -12.1762    1.0000 </r>
       <r>  -11.7036    1.0000 </r>
       <r>  -10.7173    1.0000 </r>
       <r>  -10.6934    1.0000 </r>
       <r>  -10.5856    1.0000 </r>
       <r>  -10.3923    1.0000 </r>
       <r>   -5.4446    1.0000 </r>
       <r>   -5.0734    1.0000 </r>
       <r>   -2.5071    1.0000 </r>
       <r>   -2.3783    1.0000 </r>
       <r>   -1.9625    1.0000 </r>
       <r>   -1.3699    1.0000 </r>
       <r>   -1.3305    1.0000 </r>
       <r>   -1.0517    1.0000 </r>
       <r>   -0.8372    1.0000 </r>
       <r>   -0.7659    1.0000 </r>
       <r>   -0.4231    1.0000 </r>
       <r>   -0.3386    1.0000 </r>
       <r>   -0.2701    1.0000 </r>
       <r>   -0.2099    1.0000 </r>
       <r>   -0.1425    1.0000 </r>
       <r>   -0.1418    1.0000 </r>
       <r>   -0.0123    1.0000 </r>
       <r>    0.0259    1.0000 </r>
       <r>    1.1720    1.0000 </r>
       <r>    1.3705    1.0000 </r>
       <r>    1.3960    1.0000 </r>
       <r>    1.4503    1.0000 </r>
       <r>    1.4539    1.0000 </r>
       <r>    1.4994    1.0000 </r>
       <r>    1.5167    1.0000 </r>
       <r>    1.5471    1.0000 </r>
       <r>    1.7445    1.0000 </r>
       <r>    1.8195    1.0000 </r>
       <r>    1.9721    1.0000 </r>
       <r>    2.2243    1.0000 </r>
       <r>    2.3987    1.0000 </r>
       <r>    2.6135    1.0000 </r>
       <r>    2.6556    1.0000 </r>
       <r>    2.9170    1.0000 </r>
       <r>    3.0685    1.0000 </r>
       <r>    3.1175    1.0000 </r>
       <r>    3.2853    1.0000 </r>
       <r>    3.5800    1.0000 </r>
       <r>    6.2826   -0.0000 </r>
       <r>    6.3804   -0.0000 </r>
       <r>    7.3531    0.0000 </r>
       <r>    7.5264    0.0000 </r>
       <r>    8.3082    0.0000 </r>
       <r>    8.3324    0.0000 </r>
       <r>    9.1042    0.0000 </r>
       <r>    9.3631    0.0000 </r>
       <r>    9.7154    0.0000 </r>
       <r>    9.9484    0.0000 </r>
       <r>   10.5272    0.0000 </r>
       <r>   10.9888    0.0000 </r>
       <r>   11.4253    0.0000 </r>
       <r>   11.5670    0.0000 </r>
       <r>   12.0152    0.0000 </r>
       <r>   12.2862    0.0000 </r>
       <r>   12.4288    0.0000 </r>
       <r>   12.4754    0.0000 </r>
       <r>   13.0361    0.0000 </r>
       <r>   13.1470    0.0000 </r>
       <r>   14.1427    0.0000 </r>
       <r>   14.4403    0.0000 </r>
       <r>   15.1666    0.0000 </r>
       <r>   15.8736    0.0000 </r>
      </set>
     </set>
    </set>
   </array>
  </eigenvalues>
  <separator name="orbital magnetization" >
   <v name="MAGDIPOLOUT">      0.00000000      0.00000000      0.00000000</v>
  </separator>
  <dos>
   <i name="efermi">      4.22477995 </i>
   <total>
    <array>
     <dimension dim="1">gridpoints</dimension>
     <dimension dim="2">spin</dimension>
     <field>energy</field>
     <field>total</field>
     <field>integrated</field>
     <set>
      <set comment="spin 1">
       <r>   -72.8301     0.0000     0.0000 </r>
       <r>   -72.5238     0.0000     0.0000 </r>
       <r>   -72.2174     0.0000     0.0000 </r>
       <r>   -71.9110     0.0000     0.0000 </r>
       <r>   -71.6046     0.0000     0.0000 </r>
       <r>   -71.2982     0.0000     0.0000 </r>
       <r>   -70.9918     0.0000     0.0000 </r>
       <r>   -70.6855     0.0000     0.0000 </r>
       <r>   -70.3791     0.0000     0.0000 </r>
       <r>   -70.0727     0.0000     0.0000 </r>
       <r>   -69.7663     0.0000     0.0000 </r>
       <r>   -69.4599    -0.0000    -0.0000 </r>
       <r>   -69.1536    -0.0000    -0.0000 </r>
       <r>   -68.8472    -0.2400    -0.0735 </r>
       <r>   -68.5408    70.2513    21.4501 </r>
       <r>   -68.2344     8.3230    24.0001 </r>
       <r>   -67.9280    -0.0004    24.0000 </r>
       <r>   -67.6217     0.0000    24.0000 </r>
       <r>   -67.3153     0.0000    24.0000 </r>
       <r>   -67.0089     0.0000    24.0000 </r>
       <r>   -66.7025     0.0000    24.0000 </r>
       <r>   -66.3961     0.0000    24.0000 </r>
       <r>   -66.0898     0.0000    24.0000 </r>
       <r>   -65.7834     0.0000    24.0000 </r>
       <r>   -65.4770     0.0000    24.0000 </r>
       <r>   -65.1706     0.0000    24.0000 </r>
       <r>   -64.8642     0.0000    24.0000 </r>
       <r>   -64.5578     0.0000    24.0000 </r>
       <r>   -64.2515     0.0000    24.0000 </r>
       <r>   -63.9451     0.0000    24.0000 </r>
       <r>   -63.6387     0.0000    24.0000 </r>
       <r>   -63.3323     0.0000    24.0000 </r>
       <r>   -63.0259     0.0000    24.0000 </r>
       <r>   -62.7196     0.0000    24.0000 </r>
       <r>   -62.4132     0.0000    24.0000 </r>
       <r>   -62.1068     0.0000    24.0000 </r>
       <r>   -61.8004     0.0000    24.0000 </r>
       <r>   -61.4940     0.0000    24.0000 </r>
       <r>   -61.1877     0.0000    24.0000 </r>
       <r>   -60.8813     0.0000    24.0000 </r>
       <r>   -60.5749     0.0000    24.0000 </r>
       <r>   -60.2685     0.0000    24.0000 </r>
       <r>   -59.9621     0.0000    24.0000 </r>
       <r>   -59.6557     0.0000    24.0000 </r>
       <r>   -59.3494     0.0000    24.0000 </r>
       <r>   -59.0430     0.0000    24.0000 </r>
       <r>   -58.7366     0.0000    24.0000 </r>
       <r>   -58.4302     0.0000    24.0000 </r>
       <r>   -58.1238     0.0000    24.0000 </r>
       <r>   -57.8175     0.0000    24.0000 </r>
       <r>   -57.5111     0.0000    24.0000 </r>
       <r>   -57.2047     0.0000    24.0000 </r>
       <r>   -56.8983     0.0000    24.0000 </r>
       <r>   -56.5919     0.0000    24.0000 </r>
       <r>   -56.2856     0.0000    24.0000 </r>
       <r>   -55.9792     0.0000    24.0000 </r>
       <r>   -55.6728     0.0000    24.0000 </r>
       <r>   -55.3664     0.0000    24.0000 </r>
       <r>   -55.0600     0.0000    24.0000 </r>
       <r>   -54.7537     0.0000    24.0000 </r>
       <r>   -54.4473     0.0000    24.0000 </r>
       <r>   -54.1409     0.0000    24.0000 </r>
       <r>   -53.8345     0.0000    24.0000 </r>
       <r>   -53.5281     0.0000    24.0000 </r>
       <r>   -53.2217     0.0000    24.0000 </r>
       <r>   -52.9154     0.0000    24.0000 </r>
       <r>   -52.6090     0.0000    24.0000 </r>
       <r>   -52.3026     0.0000    24.0000 </r>
       <r>   -51.9962     0.0000    24.0000 </r>
       <r>   -51.6898     0.0000    24.0000 </r>
       <r>   -51.3835     0.0000    24.0000 </r>
       <r>   -51.0771     0.0000    24.0000 </r>
       <r>   -50.7707     0.0000    24.0000 </r>
       <r>   -50.4643     0.0000    24.0000 </r>
       <r>   -50.1579     0.0000    24.0000 </r>
       <r>   -49.8516     0.0000    24.0000 </r>
       <r>   -49.5452     0.0000    24.0000 </r>
       <r>   -49.2388     0.0000    24.0000 </r>
       <r>   -48.9324     0.0000    24.0000 </r>
       <r>   -48.6260     0.0000    24.0000 </r>
       <r>   -48.3197     0.0000    24.0000 </r>
       <r>   -48.0133     0.0000    24.0000 </r>
       <r>   -47.7069     0.0000    24.0000 </r>
       <r>   -47.4005     0.0000    24.0000 </r>
       <r>   -47.0941     0.0000    24.0000 </r>
       <r>   -46.7877     0.0000    24.0000 </r>
       <r>   -46.4814     0.0000    24.0000 </r>
       <r>   -46.1750     0.0000    24.0000 </r>
       <r>   -45.8686     0.0000    24.0000 </r>
       <r>   -45.5622     0.0000    24.0000 </r>
       <r>   -45.2558     0.0000    24.0000 </r>
       <r>   -44.9495     0.0000    24.0000 </r>
       <r>   -44.6431     0.0000    24.0000 </r>
       <r>   -44.3367     0.0000    24.0000 </r>
       <r>   -44.0303     0.0000    24.0000 </r>
       <r>   -43.7239     0.0000    24.0000 </r>
       <r>   -43.4176     0.0000    24.0000 </r>
       <r>   -43.1112     0.0000    24.0000 </r>
       <r>   -42.8048     0.0000    24.0000 </r>
       <r>   -42.4984     0.0000    24.0000 </r>
       <r>   -42.1920     0.0000    24.0000 </r>
       <r>   -41.8856     0.0000    24.0000 </r>
       <r>   -41.5793     0.0000    24.0000 </r>
       <r>   -41.2729     0.0000    24.0000 </r>
       <r>   -40.9665     0.0000    24.0000 </r>
       <r>   -40.6601     0.0000    24.0000 </r>
       <r>   -40.3537     0.0000    24.0000 </r>
       <r>   -40.0474     0.0000    24.0000 </r>
       <r>   -39.7410     0.0000    24.0000 </r>
       <r>   -39.4346     0.0000    24.0000 </r>
       <r>   -39.1282     0.0000    24.0000 </r>
       <r>   -38.8218     0.0000    24.0000 </r>
       <r>   -38.5155     0.0000    24.0000 </r>
       <r>   -38.2091     0.0000    24.0000 </r>
       <r>   -37.9027     0.0000    24.0000 </r>
       <r>   -37.5963     0.0000    24.0000 </r>
       <r>   -37.2899     0.0000    24.0000 </r>
       <r>   -36.9836     0.0000    24.0000 </r>
       <r>   -36.6772     0.0000    24.0000 </r>
       <r>   -36.3708     0.0000    24.0000 </r>
       <r>   -36.0644     0.0000    24.0000 </r>
       <r>   -35.7580     0.0000    24.0000 </r>
       <r>   -35.4516     0.0000    24.0000 </r>
       <r>   -35.1453     0.0000    24.0000 </r>
       <r>   -34.8389     0.0000    24.0000 </r>
       <r>   -34.5325     0.0000    24.0000 </r>
       <r>   -34.2261     0.0000    24.0000 </r>
       <r>   -33.9197     0.0000    24.0000 </r>
       <r>   -33.6134     0.0000    24.0000 </r>
       <r>   -33.3070     0.0000    24.0000 </r>
       <r>   -33.0006     0.0000    24.0000 </r>
       <r>   -32.6942     0.0000    24.0000 </r>
       <r>   -32.3878     0.0000    24.0000 </r>
       <r>   -32.0815     0.0000    24.0000 </r>
       <r>   -31.7751     0.0000    24.0000 </r>
       <r>   -31.4687     0.0000    24.0000 </r>
       <r>   -31.1623     0.0000    24.0000 </r>
       <r>   -30.8559     0.0000    24.0000 </r>
       <r>   -30.5496     0.0000    24.0000 </r>
       <r>   -30.2432     0.0000    24.0000 </r>
       <r>   -29.9368     0.0000    24.0000 </r>
       <r>   -29.6304     0.0000    24.0000 </r>
       <r>   -29.3240     0.0000    24.0000 </r>
       <r>   -29.0176     0.0000    24.0000 </r>
       <r>   -28.7113     0.0000    24.0000 </r>
       <r>   -28.4049     0.0000    24.0000 </r>
       <r>   -28.0985     0.0000    24.0000 </r>
       <r>   -27.7921     0.0000    24.0000 </r>
       <r>   -27.4857     0.0000    24.0000 </r>
       <r>   -27.1794     0.0000    24.0000 </r>
       <r>   -26.8730     0.0000    24.0000 </r>
       <r>   -26.5666     0.0000    24.0000 </r>
       <r>   -26.2602     0.0000    24.0000 </r>
       <r>   -25.9538     0.0000    24.0000 </r>
       <r>   -25.6475     0.0000    24.0000 </r>
       <r>   -25.3411     0.0000    24.0000 </r>
       <r>   -25.0347     0.0000    24.0000 </r>
       <r>   -24.7283     0.0000    24.0000 </r>
       <r>   -24.4219     0.0000    24.0000 </r>
       <r>   -24.1155     0.0000    24.0000 </r>
       <r>   -23.8092     0.0000    24.0000 </r>
       <r>   -23.5028     0.0000    24.0000 </r>
       <r>   -23.1964     0.0000    24.0000 </r>
       <r>   -22.8900     0.0000    24.0000 </r>
       <r>   -22.5836     0.0000    24.0000 </r>
       <r>   -22.2773     0.0000    24.0000 </r>
       <r>   -21.9709     0.0000    24.0000 </r>
       <r>   -21.6645     0.0000    24.0000 </r>
       <r>   -21.3581     0.0000    24.0000 </r>
       <r>   -21.0517     0.0000    24.0000 </r>
       <r>   -20.7454     0.0000    24.0000 </r>
       <r>   -20.4390     0.0000    24.0000 </r>
       <r>   -20.1326     0.0000    24.0000 </r>
       <r>   -19.8262     0.0000    24.0000 </r>
       <r>   -19.5198     0.0000    24.0000 </r>
       <r>   -19.2135     0.0000    24.0000 </r>
       <r>   -18.9071     0.0000    24.0000 </r>
       <r>   -18.6007     0.0000    24.0000 </r>
       <r>   -18.2943     0.0000    24.0000 </r>
       <r>   -17.9879     0.0000    24.0000 </r>
       <r>   -17.6815     0.0000    24.0000 </r>
       <r>   -17.3752     0.0000    24.0000 </r>
       <r>   -17.0688     0.0000    24.0000 </r>
       <r>   -16.7624     0.0000    24.0000 </r>
       <r>   -16.4560     0.0000    24.0000 </r>
       <r>   -16.1496     0.0000    24.0000 </r>
       <r>   -15.8433     0.0000    24.0000 </r>
       <r>   -15.5369     0.0000    24.0000 </r>
       <r>   -15.2305     0.0000    24.0000 </r>
       <r>   -14.9241     0.0000    24.0000 </r>
       <r>   -14.6177     0.0000    24.0000 </r>
       <r>   -14.3114     0.0000    24.0000 </r>
       <r>   -14.0050     0.0000    24.0000 </r>
       <r>   -13.6986    -0.0000    24.0000 </r>
       <r>   -13.3922    -0.0000    24.0000 </r>
       <r>   -13.0858    -0.0000    24.0000 </r>
       <r>   -12.7795    -0.0041    23.9987 </r>
       <r>   -12.4731     1.5086    24.4610 </r>
       <r>   -12.1667     3.5772    25.5569 </r>
       <r>   -11.8603     1.9230    26.1461 </r>
       <r>   -11.5539     2.1688    26.8106 </r>
       <r>   -11.2475     3.1939    27.7892 </r>
       <r>   -10.9412     2.5119    28.5588 </r>
       <r>   -10.6348     9.3120    31.4118 </r>
       <r>   -10.3284     9.4059    34.2936 </r>
       <r>   -10.0220     5.5877    36.0056 </r>
       <r>    -9.7156    -0.0181    36.0000 </r>
       <r>    -9.4093    -0.0000    36.0000 </r>
       <r>    -9.1029     0.0000    36.0000 </r>
       <r>    -8.7965     0.0000    36.0000 </r>
       <r>    -8.4901     0.0000    36.0000 </r>
       <r>    -8.1837     0.0000    36.0000 </r>
       <r>    -7.8774     0.0000    36.0000 </r>
       <r>    -7.5710     0.0000    36.0000 </r>
       <r>    -7.2646     0.0000    36.0000 </r>
       <r>    -6.9582    -0.0000    36.0000 </r>
       <r>    -6.6518    -0.0000    36.0000 </r>
       <r>    -6.3454    -0.0000    36.0000 </r>
       <r>    -6.0391     0.0451    36.0138 </r>
       <r>    -5.7327     3.4572    37.0730 </r>
       <r>    -5.4263     2.0749    37.7087 </r>
       <r>    -5.1199     1.9064    38.2928 </r>
       <r>    -4.8135     3.3097    39.3068 </r>
       <r>    -4.5072     2.2052    39.9825 </r>
       <r>    -4.2008     0.0572    40.0000 </r>
       <r>    -3.8944    -0.0000    40.0000 </r>
       <r>    -3.5880    -0.0000    40.0000 </r>
       <r>    -3.2816    -0.0000    40.0000 </r>
       <r>    -2.9753    -0.0004    39.9999 </r>
       <r>    -2.6689     0.3722    40.1139 </r>
       <r>    -2.3625     6.1374    41.9943 </r>
       <r>    -2.0561     6.6958    44.0458 </r>
       <r>    -1.7497     7.3543    46.2990 </r>
       <r>    -1.4434     6.4404    48.2722 </r>
       <r>    -1.1370     8.7504    50.9531 </r>
       <r>    -0.8306     9.0840    53.7363 </r>
       <r>    -0.5242    11.4038    57.2302 </r>
       <r>    -0.2178    18.2638    62.8259 </r>
       <r>     0.0886    28.8226    71.6566 </r>
       <r>     0.3949     1.1215    72.0002 </r>
       <r>     0.7013    -0.0006    72.0000 </r>
       <r>     1.0077    -0.0211    71.9935 </r>
       <r>     1.3141     7.5881    74.3184 </r>
       <r>     1.6205    44.6620    88.0020 </r>
       <r>     1.9268    13.8250    92.2377 </r>
       <r>     2.2332    13.1683    96.2722 </r>
       <r>     2.5396    12.8432   100.2071 </r>
       <r>     2.8460    11.1594   103.6261 </r>
       <r>     3.1524     9.0648   106.4034 </r>
       <r>     3.4587     7.9271   108.8321 </r>
       <r>     3.7651     6.9255   110.9540 </r>
       <r>     4.0715     3.1654   111.9238 </r>
       <r>     4.3779     0.2494   112.0002 </r>
       <r>     4.6843    -0.0006   112.0000 </r>
       <r>     4.9907    -0.0000   112.0000 </r>
       <r>     5.2970    -0.0002   112.0000 </r>
       <r>     5.6034     0.0776   112.0237 </r>
       <r>     5.9098     0.1657   112.0745 </r>
       <r>     6.2162     2.6591   112.8892 </r>
       <r>     6.5226     4.4288   114.2461 </r>
       <r>     6.8289     3.4261   115.2958 </r>
       <r>     7.1353     2.3717   116.0224 </r>
       <r>     7.4417     1.4382   116.4631 </r>
       <r>     7.7481     3.1820   117.4380 </r>
       <r>     8.0545     5.5606   119.1416 </r>
       <r>     8.3608     5.5551   120.8436 </r>
       <r>     8.6672     4.6001   122.2530 </r>
       <r>     8.9736     4.4709   123.6228 </r>
       <r>     9.2800     5.5960   125.3373 </r>
       <r>     9.5864     5.6829   127.0784 </r>
       <r>     9.8927     4.7924   128.5467 </r>
       <r>    10.1991     4.4219   129.9015 </r>
       <r>    10.5055     6.4864   131.8888 </r>
       <r>    10.8119     8.2252   134.4089 </r>
       <r>    11.1183     8.3396   136.9640 </r>
       <r>    11.4247     7.9519   139.4003 </r>
       <r>    11.7310     7.9247   141.8283 </r>
       <r>    12.0374     6.5910   143.8476 </r>
       <r>    12.3438     5.8513   145.6403 </r>
       <r>    12.6502     6.6459   147.6765 </r>
       <r>    12.9566     5.7852   149.4490 </r>
       <r>    13.2629     6.1732   151.3403 </r>
       <r>    13.5693     5.3894   152.9916 </r>
       <r>    13.8757     4.0184   154.2227 </r>
       <r>    14.1821     3.2081   155.2056 </r>
       <r>    14.4885     4.5973   156.6141 </r>
       <r>    14.7948     3.4772   157.6795 </r>
       <r>    15.1012     1.4340   158.1188 </r>
       <r>    15.4076     1.5742   158.6011 </r>
       <r>    15.7140     1.2033   158.9698 </r>
       <r>    16.0204     1.7015   159.4911 </r>
       <r>    16.3267     0.3270   159.5913 </r>
       <r>    16.6331     0.6923   159.8034 </r>
       <r>    16.9395     0.5145   159.9611 </r>
       <r>    17.2459     0.1271   160.0000 </r>
       <r>    17.5523    -0.0000   160.0000 </r>
       <r>    17.8587     0.0000   160.0000 </r>
       <r>    18.1650     0.0000   160.0000 </r>
       <r>    18.4714     0.0000   160.0000 </r>
       <r>    18.7778     0.0000   160.0000 </r>
       <r>    19.0842     0.0000   160.0000 </r>
      </set>
     </set>
    </array>
   </total>
  </dos>
 </calculation>
 <structure name="finalpos" >
  <crystal>
   <varray name="basis" >
    <v>       3.22479600      -5.64383000       0.03157200 </v>
    <v>       3.22479600       5.64383000       0.03157200 </v>
    <v>      -2.10194600       0.00000000       6.07553700 </v>
   </varray>
   <i name="volume">    221.90106089 </i>
   <varray name="rec_basis" >
    <v>       0.15452516      -0.08859232       0.05346088 </v>
    <v>       0.15452516       0.08859232       0.05346088 </v>
    <v>      -0.00160600       0.00000000       0.16403888 </v>
   </varray>
  </crystal>
  <varray name="positions" >
   <v>       0.61844300       0.12117100       0.11953300 </v>
   <v>       0.12117100       0.61844300       0.61953300 </v>
   <v>       0.96295700       0.79032200       0.11881300 </v>
   <v>       0.79032200       0.96295700       0.61881300 </v>
   <v>       0.43973200       0.26728100       0.59904700 </v>
   <v>       0.26728100       0.43973200       0.09904700 </v>
   <v>       0.07949800       0.91167500       0.49736300 </v>
   <v>       0.57140300       0.41082560       0.98018400 </v>
   <v>       0.73711100       0.25006200       0.49504900 </v>
   <v>       0.41236400       0.57140300       0.48018400 </v>
   <v>       0.91167500       0.07949800       0.99736300 </v>
   <v>       0.25006200       0.73711100       0.99504900 </v>
  </varray>
 </structure>
</modeling>
