   12   12    1    1
  0.1849176E+02  0.6500240E-09  0.6500240E-09  0.6428867E-09  0.5000000E-15
  1.000000000000000E-004
  CAR 
 CGS                                     
  112   42   80
 
  0.0000000E+00  0.0000000E+00  0.0000000E+00  0.1250000E-01
   1      -68.646389
   2      -68.643579
   3      -68.638769
   4      -68.627615
   5      -68.614249
   6      -68.608180
   7      -68.596909
   8      -68.590175
   9      -68.589643
  10      -68.572381
  11      -68.569942
  12      -68.554079
  13      -12.721510
  14      -11.130684
  15      -10.917120
  16      -10.603883
  17      -10.250797
  18      -10.234944
  19       -5.985742
  20       -4.984255
  21       -2.761110
  22       -2.209542
  23       -2.070027
  24       -1.922725
  25       -1.575200
  26       -0.981224
  27       -0.949299
  28       -0.684398
  29       -0.404348
  30       -0.276626
  31       -0.260602
  32       -0.233085
  33       -0.192663
  34       -0.151557
  35       -0.041739
  36        0.029164
  37        1.350799
  38        1.363637
  39        1.414703
  40        1.454434
  41        1.472017
  42        1.473584
  43        1.520917
  44        1.532208
  45        1.576250
  46        1.712393
  47        1.893016
  48        1.930206
  49        2.059419
  50        2.649776
  51        2.728396
  52        3.088479
  53        3.215191
  54        4.006678
  55        4.038069
  56        4.172835
  57        5.536452
  58        6.357395
  59        7.625985
  60        7.989421
  61        8.617986
  62        8.790699
  63        9.571313
  64        9.738498
  65        9.815453
  66       10.423236
  67       10.580195
  68       10.694942
  69       10.719944
  70       11.289314
  71       11.709482
  72       12.384776
  73       12.451722
  74       12.725987
  75       13.321023
  76       13.387130
  77       13.827038
  78       13.892227
  79       14.141618
  80       14.184452
 
  0.2500000E+00  0.7372575E-17  0.1387779E-16  0.2500000E-01
   1      -68.646365
   2      -68.643555
   3      -68.638723
   4      -68.627576
   5      -68.614143
   6      -68.608075
   7      -68.596910
   8      -68.590200
   9      -68.589572
  10      -68.572327
  11      -68.569906
  12      -68.554046
  13      -12.596547
  14      -11.127723
  15      -10.984137
  16      -10.676862
  17      -10.366037
  18      -10.277010
  19       -5.933784
  20       -4.773366
  21       -2.646694
  22       -2.251469
  23       -2.087785
  24       -1.689920
  25       -1.341748
  26       -1.000451
  27       -0.769730
  28       -0.624293
  29       -0.551297
  30       -0.440855
  31       -0.359087
  32       -0.240312
  33       -0.191194
  34       -0.167893
  35       -0.046675
  36        0.036579
  37        1.279992
  38        1.337583
  39        1.355182
  40        1.390186
  41        1.427406
  42        1.471365
  43        1.500086
  44        1.528056
  45        1.726308
  46        1.858772
  47        2.056900
  48        2.095284
  49        2.232905
  50        2.413235
  51        2.555202
  52        2.825853
  53        2.944048
  54        3.242851
  55        3.663366
  56        4.040930
  57        6.169210
  58        6.906533
  59        8.137473
  60        8.269809
  61        8.592648
  62        9.013798
  63        9.242836
  64        9.531110
  65        9.868574
  66       10.376749
  67       10.634884
  68       10.812223
  69       10.939490
  70       11.188187
  71       11.651449
  72       11.769900
  73       12.118052
  74       12.443690
  75       12.619255
  76       13.006307
  77       13.510801
  78       13.871625
  79       14.209616
  80       14.715538
 
  0.5000000E+00  0.1474515E-16  0.2775558E-16  0.1250000E-01
   1      -68.646194
   2      -68.643475
   3      -68.638610
   4      -68.627500
   5      -68.614129
   6      -68.608021
   7      -68.596844
   8      -68.590115
   9      -68.589519
  10      -68.572314
  11      -68.569786
  12      -68.553879
  13      -12.437205
  14      -11.249787
  15      -10.958674
  16      -10.764664
  17      -10.427176
  18      -10.356833
  19       -5.871184
  20       -4.547966
  21       -2.496220
  22       -2.242354
  23       -1.945849
  24       -1.467116
  25       -1.223885
  26       -1.106499
  27       -0.901336
  28       -0.863796
  29       -0.601767
  30       -0.536189
  31       -0.273111
  32       -0.202685
  33       -0.197575
  34       -0.146032
  35       -0.028836
  36        0.078741
  37        1.255244
  38        1.331005
  39        1.344416
  40        1.396696
  41        1.469530
  42        1.480238
  43        1.500596
  44        1.550197
  45        1.751233
  46        1.789353
  47        1.972218
  48        2.144712
  49        2.323273
  50        2.366260
  51        2.553920
  52        2.669797
  53        2.935142
  54        3.080449
  55        3.248929
  56        3.863326
  57        6.385122
  58        7.099253
  59        7.985220
  60        8.206691
  61        8.517550
  62        8.817192
  63        9.329077
  64        9.883354
  65       10.015120
  66       10.520545
  67       10.688171
  68       10.793872
  69       11.134767
  70       11.406025
  71       11.605473
  72       11.774733
  73       11.949582
  74       12.503223
  75       12.780503
  76       13.005670
  77       13.395819
  78       13.532807
  79       13.943557
  80       14.263654
 
  0.7372575E-17  0.2500000E+00  0.1387779E-16  0.2500000E-01
   1      -68.646343
   2      -68.643540
   3      -68.638743
   4      -68.627591
   5      -68.614139
   6      -68.608080
   7      -68.596937
   8      -68.590174
   9      -68.589585
  10      -68.572314
  11      -68.569908
  12      -68.554045
  13      -12.596553
  14      -11.128258
  15      -10.982662
  16      -10.678370
  17      -10.365183
  18      -10.277337
  19       -5.933433
  20       -4.773716
  21       -2.646687
  22       -2.253749
  23       -2.084908
  24       -1.688516
  25       -1.344795
  26       -1.002299
  27       -0.768190
  28       -0.620497
  29       -0.555265
  30       -0.435595
  31       -0.359127
  32       -0.242497
  33       -0.195094
  34       -0.165737
  35       -0.048158
  36        0.038357
  37        1.280059
  38        1.333146
  39        1.354117
  40        1.395391
  41        1.427903
  42        1.473119
  43        1.494811
  44        1.533104
  45        1.724522
  46        1.860027
  47        2.056549
  48        2.093151
  49        2.233934
  50        2.413500
  51        2.554320
  52        2.823078
  53        2.947861
  54        3.244376
  55        3.663006
  56        4.039517
  57        6.169035
  58        6.905578
  59        8.134966
  60        8.273060
  61        8.593709
  62        9.012083
  63        9.241663
  64        9.536459
  65        9.863872
  66       10.377710
  67       10.631730
  68       10.815251
  69       10.938456
  70       11.192615
  71       11.655864
  72       11.768165
  73       12.116879
  74       12.438421
  75       12.616437
  76       13.012651
  77       13.514736
  78       13.902645
  79       14.270505
  80       14.841757
 
  0.2500000E+00  0.2500000E+00  0.0000000E+00  0.2500000E-01
   1      -68.646363
   2      -68.643444
   3      -68.638745
   4      -68.627476
   5      -68.614275
   6      -68.608212
   7      -68.596813
   8      -68.590079
   9      -68.589700
  10      -68.572444
  11      -68.569925
  12      -68.554062
  13      -12.441039
  14      -11.191441
  15      -10.944368
  16      -10.878703
  17      -10.389646
  18      -10.350183
  19       -5.875907
  20       -4.521665
  21       -2.419633
  22       -2.245922
  23       -1.791814
  24       -1.681361
  25       -1.356556
  26       -1.295774
  27       -1.087162
  28       -0.684506
  29       -0.524501
  30       -0.295948
  31       -0.281934
  32       -0.224149
  33       -0.185249
  34       -0.126713
  35       -0.088696
  36        0.078313
  37        1.293308
  38        1.311238
  39        1.414811
  40        1.428391
  41        1.463878
  42        1.482499
  43        1.495197
  44        1.569084
  45        1.671788
  46        1.879972
  47        1.940668
  48        2.134526
  49        2.278914
  50        2.320081
  51        2.560540
  52        2.651660
  53        2.903164
  54        2.944130
  55        3.698934
  56        3.832200
  57        6.171522
  58        6.992571
  59        8.007416
  60        8.328512
  61        8.434203
  62        8.571546
  63        9.145170
  64        9.249188
  65       10.360611
  66       10.497444
  67       10.916143
  68       11.182354
  69       11.332393
  70       11.553985
  71       11.812279
  72       11.963232
  73       12.311391
  74       12.502180
  75       12.711706
  76       12.913460
  77       13.335291
  78       13.448544
  79       14.255528
  80       14.369229
 
  0.5000000E+00  0.2500000E+00 -0.2775558E-16  0.2500000E-01
   1      -68.646035
   2      -68.643584
   3      -68.638564
   4      -68.627559
   5      -68.614050
   6      -68.607975
   7      -68.596862
   8      -68.590118
   9      -68.589494
  10      -68.572260
  11      -68.569798
  12      -68.553903
  13      -12.441422
  14      -11.354613
  15      -10.939270
  16      -10.738583
  17      -10.388439
  18      -10.271057
  19       -5.948032
  20       -4.642994
  21       -2.391743
  22       -2.225686
  23       -2.057430
  24       -1.638903
  25       -1.359349
  26       -1.282363
  27       -1.028930
  28       -0.512156
  29       -0.482200
  30       -0.328062
  31       -0.284220
  32       -0.216626
  33       -0.151114
  34       -0.133894
  35       -0.008672
  36        0.110491
  37        1.247324
  38        1.313948
  39        1.385749
  40        1.436986
  41        1.463224
  42        1.489901
  43        1.497235
  44        1.546778
  45        1.746827
  46        1.829552
  47        1.924928
  48        2.131799
  49        2.222608
  50        2.386407
  51        2.560659
  52        2.790839
  53        2.976756
  54        3.312710
  55        3.604075
  56        3.750212
  57        6.085839
  58        6.941427
  59        7.609635
  60        8.070290
  61        8.412308
  62        8.616042
  63        8.981789
  64        9.152298
  65       10.087154
  66       10.337098
  67       10.735378
  68       11.105636
  69       11.459456
  70       11.592931
  71       11.797248
  72       12.083887
  73       12.473878
  74       12.909839
  75       13.033687
  76       13.813004
  77       14.188484
  78       14.641814
  79       15.423757
  80       15.637088
 
 -0.2500000E+00  0.2500000E+00  0.0000000E+00  0.2500000E-01
   1      -68.646355
   2      -68.643522
   3      -68.638734
   4      -68.627556
   5      -68.614074
   6      -68.608011
   7      -68.596907
   8      -68.590174
   9      -68.589523
  10      -68.572268
  11      -68.569909
  12      -68.554047
  13      -12.599495
  14      -11.251943
  15      -10.992345
  16      -10.570808
  17      -10.366467
  18      -10.179692
  19       -6.010674
  20       -4.895703
  21       -2.646535
  22       -2.313057
  23       -1.971616
  24       -1.646660
  25       -1.495025
  26       -1.183608
  27       -0.790996
  28       -0.581511
  29       -0.442753
  30       -0.333484
  31       -0.293120
  32       -0.234574
  33       -0.176787
  34       -0.134004
  35       -0.010603
  36        0.070030
  37        1.258988
  38        1.320222
  39        1.366085
  40        1.421161
  41        1.430545
  42        1.476370
  43        1.503439
  44        1.545245
  45        1.726407
  46        1.812834
  47        1.995074
  48        2.072172
  49        2.418257
  50        2.462056
  51        2.529178
  52        2.870572
  53        3.144174
  54        3.226812
  55        3.785129
  56        4.070497
  57        5.975933
  58        6.684026
  59        7.536258
  60        8.226044
  61        8.618002
  62        8.912518
  63        9.306030
  64        9.431713
  65        9.801791
  66       10.273958
  67       10.548192
  68       10.835702
  69       10.972503
  70       11.375969
  71       11.473959
  72       11.733875
  73       12.099397
  74       12.662569
  75       12.941183
  76       13.101370
  77       13.359041
  78       13.520483
  79       14.470328
  80       14.756958
 
  0.1474515E-16  0.5000000E+00  0.2775558E-16  0.1250000E-01
   1      -68.646220
   2      -68.643470
   3      -68.638569
   4      -68.627506
   5      -68.614086
   6      -68.608069
   7      -68.596850
   8      -68.590111
   9      -68.589571
  10      -68.572259
  11      -68.569744
  12      -68.553929
  13      -12.437221
  14      -11.249676
  15      -10.957952
  16      -10.765875
  17      -10.425529
  18      -10.358183
  19       -5.870590
  20       -4.548504
  21       -2.493678
  22       -2.247008
  23       -1.944584
  24       -1.466499
  25       -1.224666
  26       -1.101852
  27       -0.902290
  28       -0.870214
  29       -0.598261
  30       -0.532841
  31       -0.275352
  32       -0.206356
  33       -0.199460
  34       -0.143937
  35       -0.028104
  36        0.080362
  37        1.253428
  38        1.325640
  39        1.350803
  40        1.398482
  41        1.469869
  42        1.476250
  43        1.499771
  44        1.556891
  45        1.755016
  46        1.792014
  47        1.963158
  48        2.148826
  49        2.315942
  50        2.360093
  51        2.557431
  52        2.673733
  53        2.938925
  54        3.080402
  55        3.249838
  56        3.859993
  57        6.384941
  58        7.100082
  59        7.982100
  60        8.204369
  61        8.518504
  62        8.818462
  63        9.331576
  64        9.885606
  65       10.009936
  66       10.525579
  67       10.691492
  68       10.790045
  69       11.140303
  70       11.407547
  71       11.610032
  72       11.773636
  73       11.939130
  74       12.505698
  75       12.823046
  76       13.027207
  77       13.551800
  78       13.690271
  79       14.554220
  80       15.239559
 
  0.2500000E+00  0.5000000E+00 -0.2775558E-16  0.2500000E-01
   1      -68.646083
   2      -68.643555
   3      -68.638532
   4      -68.627537
   5      -68.614026
   6      -68.608021
   7      -68.596863
   8      -68.590143
   9      -68.589515
  10      -68.572229
  11      -68.569758
  12      -68.553938
  13      -12.441434
  14      -11.354518
  15      -10.939116
  16      -10.738759
  17      -10.388895
  18      -10.270706
  19       -5.947728
  20       -4.643301
  21       -2.391417
  22       -2.226552
  23       -2.056527
  24       -1.637814
  25       -1.364544
  26       -1.280155
  27       -1.027633
  28       -0.508228
  29       -0.485490
  30       -0.329974
  31       -0.284498
  32       -0.214083
  33       -0.150485
  34       -0.133403
  35       -0.011986
  36        0.112001
  37        1.245207
  38        1.316359
  39        1.380920
  40        1.437075
  41        1.461181
  42        1.492504
  43        1.498710
  44        1.551569
  45        1.751566
  46        1.827286
  47        1.920135
  48        2.133652
  49        2.219890
  50        2.383502
  51        2.564023
  52        2.789601
  53        2.979288
  54        3.314149
  55        3.603704
  56        3.748044
  57        6.086021
  58        6.940175
  59        7.608572
  60        8.072530
  61        8.411126
  62        8.616140
  63        8.986343
  64        9.149856
  65       10.086436
  66       10.335157
  67       10.734433
  68       11.105550
  69       11.462819
  70       11.575563
  71       11.787621
  72       12.031625
  73       12.525764
  74       12.680885
  75       12.916458
  76       13.209170
  77       14.231151
  78       14.770620
  79       15.237101
  80       15.905198
 
  0.5000000E+00  0.5000000E+00  0.0000000E+00  0.1250000E-01
   1      -68.645937
   2      -68.643319
   3      -68.638395
   4      -68.627355
   5      -68.613927
   6      -68.607903
   7      -68.596670
   8      -68.589924
   9      -68.589427
  10      -68.572145
  11      -68.569583
  12      -68.553712
  13      -12.433363
  14      -11.501851
  15      -10.914215
  16      -10.618334
  17      -10.397714
  18      -10.198626
  19       -6.026531
  20       -4.811757
  21       -2.310807
  22       -2.263614
  23       -2.092862
  24       -1.700634
  25       -1.247346
  26       -1.114740
  27       -0.841805
  28       -0.779581
  29       -0.722361
  30       -0.242927
  31       -0.199809
  32       -0.180853
  33       -0.155506
  34       -0.043329
  35       -0.002593
  36        0.183523
  37        1.264479
  38        1.318673
  39        1.376227
  40        1.412054
  41        1.431242
  42        1.493787
  43        1.508795
  44        1.551484
  45        1.788562
  46        1.848504
  47        1.995794
  48        2.150016
  49        2.251480
  50        2.338116
  51        2.558622
  52        2.761619
  53        2.774358
  54        3.373015
  55        3.764279
  56        4.007618
  57        5.850655
  58        6.758127
  59        7.088361
  60        8.409204
  61        8.564294
  62        8.773217
  63        9.143099
  64        9.241703
  65        9.957960
  66       10.287621
  67       10.731369
  68       10.826811
  69       10.874240
  70       11.274979
  71       11.761534
  72       11.908324
  73       11.976097
  74       12.368192
  75       12.543057
  76       13.450345
  77       14.286708
  78       14.673442
  79       16.743458
  80       16.753777
 
 -0.2168404E-18 -0.2168404E-18  0.2000000E+00  0.2500000E-01
   1      -68.646392
   2      -68.643548
   3      -68.638770
   4      -68.627584
   5      -68.614169
   6      -68.608106
   7      -68.596931
   8      -68.590195
   9      -68.589611
  10      -68.572353
  11      -68.569944
  12      -68.554082
  13      -12.618288
  14      -11.425861
  15      -10.779147
  16      -10.609047
  17      -10.249585
  18      -10.236975
  19       -5.831745
  20       -5.047368
  21       -2.601249
  22       -2.372219
  23       -1.961590
  24       -1.774887
  25       -1.443469
  26       -1.124822
  27       -1.063309
  28       -0.772409
  29       -0.473747
  30       -0.293967
  31       -0.238130
  32       -0.231552
  33       -0.189207
  34       -0.145349
  35       -0.020969
  36        0.023007
  37        1.333690
  38        1.382016
  39        1.417622
  40        1.439392
  41        1.460559
  42        1.469159
  43        1.514981
  44        1.545261
  45        1.632755
  46        1.760095
  47        1.787771
  48        1.951261
  49        2.088617
  50        2.659743
  51        2.718734
  52        3.193046
  53        3.250254
  54        3.520548
  55        3.895201
  56        3.976468
  57        6.045893
  58        6.417508
  59        7.828133
  60        7.905035
  61        8.362545
  62        8.816124
  63        9.773385
  64        9.795470
  65       10.063436
  66       10.590110
  67       10.647521
  68       10.817734
  69       10.856196
  70       11.495244
  71       11.555346
  72       12.022626
  73       12.583725
  74       12.775470
  75       12.910396
  76       13.203099
  77       13.532852
  78       13.823906
  79       14.199233
  80       14.705335
 
  0.2500000E+00  0.1517883E-17  0.2000000E+00  0.2500000E-01
   1      -68.646330
   2      -68.643533
   3      -68.638706
   4      -68.627570
   5      -68.614208
   6      -68.608151
   7      -68.596892
   8      -68.590160
   9      -68.589616
  10      -68.572361
  11      -68.569875
  12      -68.554023
  13      -12.459180
  14      -11.467336
  15      -10.865632
  16      -10.689514
  17      -10.373331
  18      -10.244631
  19       -5.766886
  20       -4.804028
  21       -2.447617
  22       -2.231721
  23       -1.850118
  24       -1.713116
  25       -1.431404
  26       -1.191156
  27       -0.894176
  28       -0.744989
  29       -0.607032
  30       -0.522166
  31       -0.311110
  32       -0.244288
  33       -0.170060
  34       -0.119257
  35       -0.052444
  36        0.058743
  37        1.303368
  38        1.335272
  39        1.369448
  40        1.434668
  41        1.445730
  42        1.480587
  43        1.519050
  44        1.547711
  45        1.641225
  46        1.867729
  47        1.982439
  48        2.047359
  49        2.194839
  50        2.475302
  51        2.594812
  52        2.839133
  53        2.962321
  54        3.131990
  55        3.567796
  56        3.725867
  57        6.442439
  58        6.958800
  59        8.174845
  60        8.247831
  61        8.828736
  62        9.129157
  63        9.467862
  64        9.794508
  65       10.085868
  66       10.298346
  67       10.740871
  68       11.074245
  69       11.291365
  70       11.418139
  71       11.633295
  72       11.721626
  73       12.087347
  74       12.269356
  75       12.541646
  76       12.658826
  77       12.956027
  78       13.061259
  79       13.638949
  80       14.691575
 
  0.5000000E+00  0.9107298E-17  0.2000000E+00  0.2500000E-01
   1      -68.645972
   2      -68.643600
   3      -68.638570
   4      -68.627496
   5      -68.614075
   6      -68.607996
   7      -68.596812
   8      -68.590054
   9      -68.589517
  10      -68.572250
  11      -68.569848
  12      -68.553935
  13      -12.356961
  14      -11.414612
  15      -10.953463
  16      -10.685338
  17      -10.477376
  18      -10.334033
  19       -5.752331
  20       -4.722279
  21       -2.523105
  22       -2.184942
  23       -1.953455
  24       -1.534183
  25       -1.304069
  26       -1.096259
  27       -0.869162
  28       -0.758677
  29       -0.548627
  30       -0.449407
  31       -0.287941
  32       -0.178370
  33       -0.142972
  34       -0.104620
  35       -0.044895
  36        0.020471
  37        1.274833
  38        1.297605
  39        1.350959
  40        1.429062
  41        1.451291
  42        1.481562
  43        1.502330
  44        1.586163
  45        1.718003
  46        1.929518
  47        2.078969
  48        2.144732
  49        2.269666
  50        2.405561
  51        2.568874
  52        2.596151
  53        2.896544
  54        3.010625
  55        3.360062
  56        3.901182
  57        6.364496
  58        6.896852
  59        7.577433
  60        8.087166
  61        8.544480
  62        8.796046
  63        9.276863
  64        9.628908
  65        9.934779
  66       10.275009
  67       10.660693
  68       10.925359
  69       10.971504
  70       11.278002
  71       11.518899
  72       11.789433
  73       12.247451
  74       12.553440
  75       13.094063
  76       13.517981
  77       14.295318
  78       14.564771
  79       15.125076
  80       16.263475
 
 -0.2500000E+00 -0.4098284E-16  0.2000000E+00  0.2500000E-01
   1      -68.646384
   2      -68.643522
   3      -68.638767
   4      -68.627560
   5      -68.614180
   6      -68.608108
   7      -68.596919
   8      -68.590182
   9      -68.589621
  10      -68.572379
  11      -68.569939
  12      -68.554071
  13      -12.542039
  14      -11.338404
  15      -10.873759
  16      -10.606213
  17      -10.398239
  18      -10.283090
  19       -5.825499
  20       -4.975393
  21       -2.665092
  22       -2.454744
  23       -2.038625
  24       -1.576213
  25       -1.168686
  26       -0.983018
  27       -0.793768
  28       -0.655305
  29       -0.516537
  30       -0.387984
  31       -0.270542
  32       -0.253785
  33       -0.195928
  34       -0.140839
  35       -0.046992
  36        0.012098
  37        1.291879
  38        1.309315
  39        1.391945
  40        1.405643
  41        1.434713
  42        1.453466
  43        1.492763
  44        1.566790
  45        1.688230
  46        1.916164
  47        1.987494
  48        2.145664
  49        2.335150
  50        2.564241
  51        2.618374
  52        2.829910
  53        2.969219
  54        3.247602
  55        3.685065
  56        3.945185
  57        6.176565
  58        6.634704
  59        7.769091
  60        7.974578
  61        8.212438
  62        8.560187
  63        9.379627
  64        9.578070
  65        9.912718
  66       10.252421
  67       10.545195
  68       10.790086
  69       10.839843
  70       11.067107
  71       11.560493
  72       12.019628
  73       12.527529
  74       12.750240
  75       12.957158
  76       13.311666
  77       13.422633
  78       13.739022
  79       13.840642
  80       14.728897
 
  0.1517883E-17  0.2500000E+00  0.2000000E+00  0.2500000E-01
   1      -68.646326
   2      -68.643535
   3      -68.638709
   4      -68.627570
   5      -68.614215
   6      -68.608143
   7      -68.596885
   8      -68.590158
   9      -68.589617
  10      -68.572368
  11      -68.569886
  12      -68.554014
  13      -12.459141
  14      -11.467622
  15      -10.864339
  16      -10.691031
  17      -10.372113
  18      -10.245382
  19       -5.767034
  20       -4.803886
  21       -2.445273
  22       -2.234445
  23       -1.849327
  24       -1.713231
  25       -1.432445
  26       -1.193332
  27       -0.890451
  28       -0.745260
  29       -0.604275
  30       -0.524293
  31       -0.307803
  32       -0.241930
  33       -0.173096
  34       -0.120720
  35       -0.057284
  36        0.061306
  37        1.302061
  38        1.338326
  39        1.370704
  40        1.427022
  41        1.447485
  42        1.478108
  43        1.522865
  44        1.544965
  45        1.644093
  46        1.874198
  47        1.972469
  48        2.050147
  49        2.196068
  50        2.476374
  51        2.593359
  52        2.839903
  53        2.964697
  54        3.131575
  55        3.568021
  56        3.723870
  57        6.442278
  58        6.959137
  59        8.171949
  60        8.249876
  61        8.832823
  62        9.127243
  63        9.462397
  64        9.798488
  65       10.087603
  66       10.299615
  67       10.736309
  68       11.078763
  69       11.290272
  70       11.420392
  71       11.629783
  72       11.726888
  73       12.082443
  74       12.264534
  75       12.541696
  76       12.661407
  77       12.953367
  78       13.059132
  79       13.658260
  80       14.696417
 
  0.2500000E+00  0.2500000E+00  0.2000000E+00  0.2500000E-01
   1      -68.646235
   2      -68.643388
   3      -68.638615
   4      -68.627419
   5      -68.614051
   6      -68.607988
   7      -68.596766
   8      -68.590039
   9      -68.589483
  10      -68.572232
  11      -68.569793
  12      -68.553929
  13      -12.327428
  14      -11.476439
  15      -10.864296
  16      -10.856929
  17      -10.406069
  18      -10.286777
  19       -5.748605
  20       -4.691636
  21       -2.242169
  22       -2.139125
  23       -1.929136
  24       -1.849979
  25       -1.454017
  26       -1.395265
  27       -1.040984
  28       -0.520089
  29       -0.462388
  30       -0.349835
  31       -0.248580
  32       -0.217591
  33       -0.159518
  34       -0.113217
  35       -0.085278
  36        0.077592
  37        1.261310
  38        1.347704
  39        1.397041
  40        1.435420
  41        1.453678
  42        1.510320
  43        1.535980
  44        1.545821
  45        1.752878
  46        1.818566
  47        2.039954
  48        2.133682
  49        2.284998
  50        2.309605
  51        2.521567
  52        2.766916
  53        2.900167
  54        3.262703
  55        3.496678
  56        3.801785
  57        6.183258
  58        6.842773
  59        7.828075
  60        8.046116
  61        8.187584
  62        8.729656
  63        9.153955
  64        9.307012
  65       10.218874
  66       10.436083
  67       10.593506
  68       11.008979
  69       11.235242
  70       11.492545
  71       11.809468
  72       12.170037
  73       12.205812
  74       12.577254
  75       12.689969
  76       13.110265
  77       13.416388
  78       13.881085
  79       14.004157
  80       14.529467
 
  0.5000000E+00  0.2500000E+00  0.2000000E+00  0.2500000E-01
   1      -68.645960
   2      -68.643619
   3      -68.638482
   4      -68.627562
   5      -68.614032
   6      -68.608041
   7      -68.596835
   8      -68.590086
   9      -68.589526
  10      -68.572249
  11      -68.569779
  12      -68.553898
  13      -12.374184
  14      -11.474814
  15      -10.937122
  16      -10.653876
  17      -10.418456
  18      -10.304608
  19       -5.801813
  20       -4.837051
  21       -2.526066
  22       -2.244241
  23       -1.870952
  24       -1.642152
  25       -1.505243
  26       -1.306711
  27       -0.903693
  28       -0.532941
  29       -0.376137
  30       -0.348114
  31       -0.224232
  32       -0.178705
  33       -0.162188
  34       -0.078813
  35       -0.024990
  36        0.077188
  37        1.188583
  38        1.365658
  39        1.399649
  40        1.440433
  41        1.462628
  42        1.504412
  43        1.520689
  44        1.584830
  45        1.739948
  46        1.821936
  47        2.035603
  48        2.234409
  49        2.271364
  50        2.362404
  51        2.485752
  52        2.671639
  53        3.051969
  54        3.410569
  55        3.731426
  56        3.865545
  57        5.929210
  58        6.610939
  59        7.353739
  60        7.944362
  61        8.066383
  62        8.723450
  63        8.907204
  64        9.140237
  65        9.847500
  66       10.324720
  67       10.556242
  68       10.924214
  69       11.227667
  70       11.415693
  71       11.748933
  72       12.002342
  73       12.497201
  74       12.833245
  75       13.209311
  76       14.191228
  77       14.712971
  78       15.148732
  79       15.910481
  80       16.567417
 
 -0.2500000E+00  0.2500000E+00  0.2000000E+00  0.2500000E-01
   1      -68.646330
   2      -68.643582
   3      -68.638670
   4      -68.627610
   5      -68.614125