<?xml version="1.0" encoding="ISO-8859-1"?>
<modeling>
 <generator>
  <i name="program" type="string">vasp </i>
  <i name="version" type="string">5.3.3  </i>
  <i name="subversion" type="string">18Dez12 (build Nov 13 2015 09:58:40) complex                          parallel </i>
  <i name="platform" type="string">LinuxIFC </i>
  <i name="date" type="string">2017 10 18 </i>
  <i name="time" type="string">13:11:31 </i>
 </generator>
 <incar>
  <i type="string" name="SYSTEM"> CGS</i>
  <i type="string" name="PREC">normal</i>
  <i type="string" name="ALGO"> D</i>
  <i type="logical" name="LDIAG"> T  </i>
  <i name="EDIFF">      0.00001000</i>
  <i name="ENCUT">    400.00000000</i>
  <i name="TIME">      0.40000000</i>
  <i type="int" name="ISMEAR">     1</i>
  <i name="SIGMA">      0.10000000</i>
  <i type="logical" name="LHFCALC"> T  </i>
  <i type="string" name="GGA"> PE</i>
  <i name="HFSCREEN">      0.20000000</i>
  <i name="AEXX">      0.25000000</i>
  <i type="string" name="PRECFOCK">fast</i>
 </incar>
 <kpoints>
  <generation param="Gamma">
   <v type="int" name="divisions">       4        4        5 </v>
   <v name="usershift">      0.00000000       0.00000000       0.00000000 </v>
   <v name="genvec1">      0.25000000       0.00000000       0.00000000 </v>
   <v name="genvec2">      0.00000000       0.25000000       0.00000000 </v>
   <v name="genvec3">      0.00000000       0.00000000       0.20000000 </v>
   <v name="shift">      0.00000000       0.00000000       0.00000000 </v>
  </generation>
  <varray name="kpointlist" >
   <v>       0.00000000       0.00000000       0.00000000 </v>
   <v>       0.25000000       0.00000000       0.00000000 </v>
   <v>       0.50000000       0.00000000       0.00000000 </v>
   <v>       0.00000000       0.25000000       0.00000000 </v>
   <v>       0.25000000       0.25000000       0.00000000 </v>
   <v>       0.50000000       0.25000000      -0.00000000 </v>
   <v>      -0.25000000       0.25000000       0.00000000 </v>
   <v>       0.00000000       0.50000000       0.00000000 </v>
   <v>       0.25000000       0.50000000      -0.00000000 </v>
   <v>       0.50000000       0.50000000       0.00000000 </v>
   <v>      -0.00000000      -0.00000000       0.20000000 </v>
   <v>       0.25000000       0.00000000       0.20000000 </v>
   <v>       0.50000000       0.00000000       0.20000000 </v>
   <v>      -0.25000000      -0.00000000       0.20000000 </v>
   <v>       0.00000000       0.25000000       0.20000000 </v>
   <v>       0.25000000       0.25000000       0.20000000 </v>
   <v>       0.50000000       0.25000000       0.20000000 </v>
   <v>      -0.25000000       0.25000000       0.20000000 </v>
   <v>       0.00000000       0.50000000       0.20000000 </v>
   <v>       0.25000000       0.50000000       0.20000000 </v>
   <v>       0.50000000       0.50000000       0.20000000 </v>
   <v>      -0.25000000       0.50000000       0.20000000 </v>
   <v>      -0.00000000      -0.25000000       0.20000000 </v>
   <v>       0.25000000      -0.25000000       0.20000000 </v>
   <v>       0.50000000      -0.25000000       0.20000000 </v>
   <v>      -0.25000000      -0.25000000       0.20000000 </v>
   <v>      -0.00000000      -0.00000000       0.40000000 </v>
   <v>       0.25000000       0.00000000       0.40000000 </v>
   <v>       0.50000000       0.00000000       0.40000000 </v>
   <v>      -0.25000000       0.00000000       0.40000000 </v>
   <v>       0.00000000       0.25000000       0.40000000 </v>
   <v>       0.25000000       0.25000000       0.40000000 </v>
   <v>       0.50000000       0.25000000       0.40000000 </v>
   <v>      -0.25000000       0.25000000       0.40000000 </v>
   <v>       0.00000000       0.50000000       0.40000000 </v>
   <v>       0.25000000       0.50000000       0.40000000 </v>
   <v>       0.50000000       0.50000000       0.40000000 </v>
   <v>      -0.25000000       0.50000000       0.40000000 </v>
   <v>       0.00000000      -0.25000000       0.40000000 </v>
   <v>       0.25000000      -0.25000000       0.40000000 </v>
   <v>       0.50000000      -0.25000000       0.40000000 </v>
   <v>      -0.25000000      -0.25000000       0.40000000 </v>
  </varray>
  <varray name="weights" >
   <v>       0.01250000 </v>
   <v>       0.02500000 </v>
   <v>       0.01250000 </v>
   <v>       0.02500000 </v>
   <v>       0.02500000 </v>
   <v>       0.02500000 </v>
   <v>       0.02500000 </v>
   <v>       0.01250000 </v>
   <v>       0.02500000 </v>
   <v>       0.01250000 </v>
   <v>       0.02500000 </v>
   <v>       0.02500000 </v>
   <v>       0.02500000 </v>
   <v>       0.02500000 </v>
   <v>       0.02500000 </v>
   <v>       0.02500000 </v>
   <v>       0.02500000 </v>
   <v>       0.02500000 </v>
   <v>       0.02500000 </v>
   <v>       0.02500000 </v>
   <v>       0.02500000 </v>
   <v>       0.02500000 </v>
   <v>       0.02500000 </v>
   <v>       0.02500000 </v>
   <v>       0.02500000 </v>
   <v>       0.02500000 </v>
   <v>       0.02500000 </v>
   <v>       0.02500000 </v>
   <v>       0.02500000 </v>
   <v>       0.02500000 </v>
   <v>       0.02500000 </v>
   <v>       0.02500000 </v>
   <v>       0.02500000 </v>
   <v>       0.02500000 </v>
   <v>       0.02500000 </v>
   <v>       0.02500000 </v>
   <v>       0.02500000 </v>
   <v>       0.02500000 </v>
   <v>       0.02500000 </v>
   <v>       0.02500000 </v>
   <v>       0.02500000 </v>
   <v>       0.02500000 </v>
  </varray>
 </kpoints>
 <parameters>
  <separator name="general" >
   <i type="string" name="SYSTEM">CGS</i>
   <i type="logical" name="LCOMPAT"> F  </i>
  </separator>
  <separator name="electronic" >
   <i type="string" name="PREC">normal</i>
   <i name="ENMAX">    400.00000000</i>
   <i name="ENAUG">    758.23300000</i>
   <i name="EDIFF">      0.00001000</i>
   <i type="int" name="IALGO">    53</i>
   <i type="int" name="IWAVPR">    10</i>
   <i type="int" name="NBANDS">    80</i>
   <i name="NELECT">    112.00000000</i>
   <i type="int" name="TURBO">     0</i>
   <i type="int" name="IRESTART">     0</i>
   <i type="int" name="NREBOOT">     0</i>
   <i type="int" name="NMIN">     0</i>
   <i name="EREF">      0.00000000</i>
   <separator name="electronic smearing" >
    <i type="int" name="ISMEAR">     1</i>
    <i name="SIGMA">      0.10000000</i>
    <i name="KSPACING">      0.50000000</i>
    <i type="logical" name="KGAMMA"> T  </i>
   </separator>
   <separator name="electronic projectors" >
    <i type="logical" name="LREAL"> F  </i>
    <v name="ROPT">      0.00000000      0.00000000      0.00000000</v>
    <i type="int" name="LMAXPAW">  -100</i>
    <i type="int" name="LMAXMIX">     2</i>
    <i type="logical" name="NLSPLINE"> F  </i>
   </separator>
   <separator name="electronic startup" >
    <i type="int" name="ISTART">     1</i>
    <i type="int" name="ICHARG">     0</i>
    <i type="int" name="INIWAV">     1</i>
   </separator>
   <separator name="electronic spin" >
    <i type="int" name="ISPIN">     1</i>
    <i type="logical" name="LNONCOLLINEAR"> F  </i>
    <v name="MAGMOM">      1.00000000      1.00000000      1.00000000      1.00000000      1.00000000      1.00000000      1.00000000      1.00000000      1.00000000      1.00000000      1.00000000      1.00000000</v>
    <i name="NUPDOWN">     -1.00000000</i>
    <i type="logical" name="LSORBIT"> F  </i>
    <v name="SAXIS">      0.00000000      0.00000000      1.00000000</v>
    <i type="logical" name="LSPIRAL"> F  </i>
    <v name="QSPIRAL">      0.00000000      0.00000000      0.00000000</v>
    <i type="logical" name="LZEROZ"> F  </i>
   </separator>
   <separator name="electronic exchange-correlation" >
    <i type="logical" name="LASPH"> F  </i>
    <i type="logical" name="LMETAGGA"> F  </i>
   </separator>
   <separator name="electronic convergence" >
    <i type="int" name="NELM">    60</i>
    <i type="int" name="NELMDL">     0</i>
    <i type="int" name="NELMIN">     2</i>
    <i name="ENINI">    400.00000000</i>
    <separator name="electronic convergence detail" >
     <i type="logical" name="LDIAG"> T  </i>
     <i type="logical" name="LSUBROT"> T  </i>
     <i name="WEIMIN">      0.00000000</i>
     <i name="EBREAK">      0.00000003</i>
     <i name="DEPER">      0.30000000</i>
     <i type="int" name="NRMM">     4</i>
     <i name="TIME">      0.40000000</i>
    </separator>
   </separator>
   <separator name="electronic mixer" >
    <i name="AMIX">      0.40000000</i>
    <i name="BMIX">      1.00000000</i>
    <i name="AMIN">      0.10000000</i>
    <i name="AMIX_MAG">      1.60000000</i>
    <i name="BMIX_MAG">      1.00000000</i>
    <separator name="electronic mixer details" >
     <i type="int" name="IMIX">     4</i>
     <i type="int" name="MAXMIX">   -45</i>
     <i name="WC">    100.00000000</i>
     <i type="int" name="INIMIX">     1</i>
     <i type="int" name="MIXPRE">     1</i>
     <i type="int" name="MREMOVE">     5</i>
    </separator>
   </separator>
   <separator name="electronic dipolcorrection" >
    <i type="logical" name="LDIPOL"> F  </i>
    <i type="logical" name="LMONO"> F  </i>
    <i type="int" name="IDIPOL">     0</i>
    <i name="EPSILON">      1.00000000</i>
    <v name="DIPOL">   -100.00000000   -100.00000000   -100.00000000</v>
    <i name="EFIELD">      0.00000000</i>
   </separator>
  </separator>
  <separator name="grids" >
   <i type="int" name="NGX">    32</i>
   <i type="int" name="NGY">    32</i>
   <i type="int" name="NGZ">    32</i>
   <i type="int" name="NGXF">    64</i>
   <i type="int" name="NGYF">    64</i>
   <i type="int" name="NGZF">    64</i>
   <i type="logical" name="ADDGRID"> F  </i>
  </separator>
  <separator name="ionic" >
   <i type="int" name="NSW">     0</i>
   <i type="int" name="IBRION">    -1</i>
   <i type="int" name="ISIF">     0</i>
   <i name="PSTRESS">      0.00000000</i>
   <i name="EDIFFG">      0.00010000</i>
   <i type="int" name="NFREE">     0</i>
   <i name="POTIM">      0.50000000</i>
   <i name="SMASS">     -3.00000000</i>
   <i name="SCALEE">      1.00000000</i>
  </separator>
  <separator name="ionic md" >
   <i name="TEBEG">      0.00010000</i>
   <i name="TEEND">      0.00010000</i>
   <i type="int" name="NBLOCK">     1</i>
   <i type="int" name="KBLOCK">     1</i>
   <i type="int" name="NPACO">   256</i>
   <i name="APACO">     16.00000000</i>
  </separator>
  <separator name="symmetry" >
   <i type="int" name="ISYM">     3</i>
   <i name="SYMPREC">      0.00001000</i>
  </separator>
  <separator name="dos" >
   <i type="logical" name="LORBIT"> F  </i>
   <v name="RWIGS">     -1.00000000     -1.00000000     -1.00000000</v>
   <i type="int" name="NEDOS">   301</i>
   <i name="EMIN">     10.00000000</i>
   <i name="EMAX">    -10.00000000</i>
   <i name="EFERMI">      0.00000000</i>
  </separator>
  <separator name="writing" >
   <i type="int" name="NWRITE">     2</i>
   <i type="logical" name="LWAVE"> T  </i>
   <i type="logical" name="LCHARG"> T  </i>
   <i type="logical" name="LPARD"> F  </i>
   <i type="logical" name="LVTOT"> F  </i>
   <i type="logical" name="LVHAR"> F  </i>
   <i type="logical" name="LELF"> F  </i>
   <i type="logical" name="LOPTICS"> F  </i>
   <v name="STM">      0.00000000      0.00000000      0.00000000      0.00000000      0.00000000      0.00000000      0.00000000</v>
  </separator>
  <separator name="performance" >
   <i type="int" name="NPAR">    16</i>
   <i type="int" name="NSIM">     4</i>
   <i type="int" name="NBLK">    -1</i>
   <i type="logical" name="LPLANE"> T  </i>
   <i type="logical" name="LSCALAPACK"> T  </i>
   <i type="logical" name="LSCAAWARE"> F  </i>
   <i type="logical" name="LSCALU"> F  </i>
   <i type="logical" name="LASYNC"> F  </i>
   <i type="logical" name="LORBITALREAL"> F  </i>
  </separator>
  <separator name="miscellaneous" >
   <i type="int" name="IDIOT">     3</i>
   <i type="logical" name="LMUSIC"> F  </i>
   <v name="POMASS">     63.54600000     72.61000000     32.06600000</v>
   <v name="DARWINR">      0.00000000      0.00000000      0.00000000</v>
   <v name="DARWINV">      1.00000000      1.00000000      1.00000000</v>
   <i type="logical" name="LCORR"> T  </i>
  </separator>
  <i type="logical" name="GGA_COMPAT"> T  </i>
  <i type="logical" name="LBERRY"> F  </i>
  <i type="int" name="ICORELEVEL">     0</i>
  <i type="logical" name="LDAU"> F  </i>
  <i type="int" name="I_CONSTRAINED_M">     0</i>
  <separator name="electronic exchange-correlation" >
   <i type="string" name="GGA">PE</i>
   <i type="int" name="VOSKOWN">     0</i>
   <i type="logical" name="LHFCALC"> T  </i>
   <i type="string" name="PRECFOCK">fast</i>
   <i type="logical" name="LSYMGRAD"> F  </i>
   <i type="logical" name="LHFONE"> F  </i>
   <i type="logical" name="LRHFCALC"> F  </i>
   <i type="logical" name="LTHOMAS"> F  </i>
   <i type="logical" name="LMODELHF"> F  </i>
   <i name="ENCUT4O">     -1.00000000</i>
   <i type="int" name="EXXOEP">     0</i>
   <i type="int" name="FOURORBIT">     0</i>
   <i name="AEXX">      0.25000000</i>
   <i name="HFALPHA">     -1.00000000</i>
   <i name="MCALPHA">      0.00000000</i>
   <i name="ALDAX">      0.75000000</i>
   <i name="AGGAX">      0.75000000</i>
   <i name="ALDAC">      1.00000000</i>
   <i name="AGGAC">      1.00000000</i>
   <i type="int" name="NKREDX">     1</i>
   <i type="int" name="NKREDY">     1</i>
   <i type="int" name="NKREDZ">     1</i>
   <i type="logical" name="SHIFTRED"> F  </i>
   <i type="logical" name="ODDONLY"> F  </i>
   <i type="logical" name="EVENONLY"> F  </i>
   <i type="int" name="LMAXFOCK">     4</i>
   <i type="int" name="NMAXFOCKAE">     1</i>
   <i type="logical" name="LFOCKAEDFT"> F  </i>
   <i name="HFSCREEN">      0.20000000</i>
   <i name="HFSCREENC">      0.20000000</i>
   <i type="int" name="NBANDSGWLOW">     1</i>
  </separator>
  <separator name="vdW DFT" >
   <i type="logical" name="LUSE_VDW"> F  </i>
   <i name="Zab_VDW">     -0.84910000</i>
   <i name="PARAM1">      0.12340000</i>
   <i name="PARAM2">      1.00000000</i>
   <i name="PARAM3">      0.00000000</i>
  </separator>
  <separator name="model GW" >
   <i type="int" name="MODEL_GW">     0</i>
   <i name="MODEL_EPS0">     11.09505304</i>
   <i name="MODEL_ALPHA">      1.00000000</i>
  </separator>
  <separator name="linear response parameters" >
   <i type="logical" name="LEPSILON"> F  </i>
   <i type="logical" name="LRPA"> F  </i>
   <i type="logical" name="LNABLA"> F  </i>
   <i type="logical" name="LVEL"> F  </i>
   <i type="int" name="KINTER">     0</i>
   <i name="CSHIFT">      0.10000000</i>
   <i name="OMEGAMAX">     -1.00000000</i>
   <i name="DEG_THRESHOLD">      0.00200000</i>
  </separator>
  <separator name="orbital magnetization" >
   <i type="logical" name="NUCIND"> F  </i>
   <v name="MAGPOS">      0.00000000      0.00000000      0.00000000</v>
   <i type="logical" name="LNICSALL"> T  </i>
   <i type="logical" name="ORBITALMAG"> F  </i>
   <i type="logical" name="LMAGBLOCH"> F  </i>
   <i type="logical" name="LCHIMAG"> F  </i>
   <i type="logical" name="LGAUGE"> T  </i>
   <i type="int" name="MAGATOM">     0</i>
   <v name="MAGDIPOL">      0.00000000      0.00000000      0.00000000</v>
   <v name="AVECCONST">      0.00000000      0.00000000      0.00000000</v>
  </separator>
  <separator name="response functions" >
   <i type="logical" name="LADDER"> F  </i>
   <i type="logical" name="LFXC"> F  </i>
   <i type="logical" name="LHARTREE"> T  </i>
   <i type="int" name="IBSE">     0</i>
   <i type="logical" name="LTCTE"> F  </i>
   <i type="logical" name="LTETE"> F  </i>
   <i type="logical" name="LTRIPLET"> F  </i>
   <i type="logical" name="LFXCEPS"> F  </i>
   <i type="logical" name="L2ORDER"> F  </i>
   <i type="logical" name="LUSEW"> F  </i>
   <i name="ENCUTGW">     -2.00000000</i>
   <i name="ENCUTGWSOFT">     -2.00000000</i>
   <i name="ENCUTLF">     -1.00000000</i>
   <i type="int" name="LMAXMP2">    -1</i>
   <i name="SCISSOR">      0.00000000</i>
   <i type="int" name="NOMEGA">     0</i>
   <i type="int" name="NOMEGAR">     0</i>
   <i type="int" name="NBANDSGW">    -1</i>
   <i type="int" name="NBANDSO">    -1</i>
   <i type="int" name="NBANDSV">    -1</i>
   <i type="int" name="NELM">     1</i>
   <i type="int" name="DIM">     3</i>
   <i type="int" name="ANTIRES">     0</i>
   <i name="OMEGAMAX">    -30.00000000</i>
   <i name="OMEGATL">   -200.00000000</i>
   <i type="int" name="OMEGAGRID">     0</i>
   <i name="CSHIFT">     -0.10000000</i>
   <i type="logical" name="SELFENERGY"> F  </i>
   <i type="logical" name="LSPECTRAL"> F  </i>
   <i type="logical" name="ODDONLYGW"> F  </i>
   <i type="logical" name="EVENONLYGW"> F  </i>
   <i type="int" name="NKREDLFX">     1</i>
   <i type="int" name="NKREDLFY">     1</i>
   <i type="int" name="NKREDLFZ">     1</i>
   <i type="int" name="MAXMEM">  1800</i>
   <i type="int" name="TELESCOPE">     0</i>
  </separator>
 </parameters>
 <atominfo>
  <atoms>      12 </atoms>
  <types>       3 </types>
  <array name="atoms" >
   <dimension dim="1">ion</dimension>
   <field type="string">element</field>
   <field type="int">atomtype</field>
   <set>
    <rc><c>Cu</c><c>   1</c></rc>
    <rc><c>Cu</c><c>   1</c></rc>
    <rc><c>Cu</c><c>   1</c></rc>
    <rc><c>Cu</c><c>   1</c></rc>
    <rc><c>Ge</c><c>   2</c></rc>
    <rc><c>Ge</c><c>   2</c></rc>
    <rc><c>S </c><c>   3</c></rc>
    <rc><c>S </c><c>   3</c></rc>
    <rc><c>S </c><c>   3</c></rc>
    <rc><c>S </c><c>   3</c></rc>
    <rc><c>S </c><c>   3</c></rc>
    <rc><c>S </c><c>   3</c></rc>
   </set>
  </array>
  <array name="atomtypes" >
   <dimension dim="1">type</dimension>
   <field type="int">atomspertype</field>
   <field type="string">element</field>
   <field>mass</field>
   <field>valence</field>
   <field type="string">pseudopotential</field>
   <set>
    <rc><c>   4</c><c>Cu</c><c>     63.54600000</c><c>     17.00000000</c><c>  PAW_PBE Cu_pv 06Sep2000               </c></rc>
    <rc><c>   2</c><c>Ge</c><c>     72.61000000</c><c>      4.00000000</c><c>  PAW_PBE Ge 05Jan2001                  </c></rc>
    <rc><c>   6</c><c>S </c><c>     32.06600000</c><c>      6.00000000</c><c>  PAW_PBE S 17Jan2003                   </c></rc>
   </set>
  </array>
 </atominfo>
 <structure name="initialpos" >
  <crystal>
   <varray name="basis" >
    <v>       3.22479600      -5.64383000       0.03157200 </v>
    <v>       3.22479600       5.64383000       0.03157200 </v>
    <v>      -2.10194600       0.00000000       6.07553700 </v>
   </varray>
   <i name="volume">    221.90106089 </i>
   <varray name="rec_basis" >
    <v>       0.15452516      -0.08859232       0.05346088 </v>
    <v>       0.15452516       0.08859232       0.05346088 </v>
    <v>      -0.00160600       0.00000000       0.16403888 </v>
   </varray>
  </crystal>
  <varray name="positions" >
   <v>       0.61844300       0.12117100       0.11953300 </v>
   <v>       0.12117100       0.61844300       0.61953300 </v>
   <v>       0.96295700       0.79032200       0.11881300 </v>
   <v>       0.79032200       0.96295700       0.61881300 </v>
   <v>       0.43973200       0.26728100       0.59904700 </v>
   <v>       0.26728100       0.43973200       0.09904700 </v>
   <v>       0.07949800       0.91167500       0.49580752 </v>
   <v>       0.57140300       0.41236400       0.98018400 </v>
   <v>       0.73711100       0.25006200       0.49504900 </v>
   <v>       0.41236400       0.57140300       0.48018400 </v>
   <v>       0.91167500       0.07949800       0.99736300 </v>
   <v>       0.25006200       0.73711100       0.99504900 </v>
  </varray>
 </structure>
 <calculation>
  <scstep>
   <time name="total">  243.39  243.80</time>
   <energy>
    <i name="alphaZ">    339.31929130 </i>
    <i name="ewald">  -9064.61101394 </i>
    <i name="hartreedc">  -8067.43708946 </i>
    <i name="XCdc">    369.90435063 </i>
    <i name="pawpsdc">  16899.50077452 </i>
    <i name="pawaedc"> -17392.31554104 </i>
    <i name="eentropy">     -0.00143606 </i>
    <i name="bandstr">  -1657.25747159 </i>
    <i name="atom">  18320.98302006 </i>
    <i name="e_fr_energy">     75.53685617 </i>
    <i name="e_wo_entrp">     75.53829223 </i>
    <i name="e_0_energy">     75.53733486 </i>
   </energy>
  </scstep>
  <scstep>
   <time name="total">  258.68  258.49</time>
   <energy>
    <i name="e_fr_energy">     -8.37981509 </i>
    <i name="e_wo_entrp">     -8.37890273 </i>
    <i name="e_0_energy">     -8.37951097 </i>
   </energy>
  </scstep>
  <scstep>
   <time name="total">  259.55  259.34</time>
   <energy>
    <i name="e_fr_energy">    -15.17417422 </i>
    <i name="e_wo_entrp">    -15.17433093 </i>
    <i name="e_0_energy">    -15.17422646 </i>
   </energy>
  </scstep>
  <scstep>
   <time name="total">  259.68  259.47</time>
   <energy>
    <i name="e_fr_energy">    -22.65179785 </i>
    <i name="e_wo_entrp">    -22.65215946 </i>
    <i name="e_0_energy">    -22.65191839 </i>
   </energy>
  </scstep>
  <scstep>
   <time name="total">  258.56  258.37</time>
   <energy>
    <i name="e_fr_energy">    -60.82633636 </i>
    <i name="e_wo_entrp">    -60.82698543 </i>
    <i name="e_0_energy">    -60.82655272 </i>
   </energy>
  </scstep>
  <scstep>
   <time name="total">  259.88  259.68</time>
   <energy>
    <i name="e_fr_energy">    -65.91474782 </i>
    <i name="e_wo_entrp">    -65.91541683 </i>
    <i name="e_0_energy">    -65.91497082 </i>
   </energy>
  </scstep>
  <scstep>
   <time name="total">  261.35  261.13</time>
   <energy>
    <i name="e_fr_energy">    -67.46125316 </i>
    <i name="e_wo_entrp">    -67.46169088 </i>
    <i name="e_0_energy">    -67.46139907 </i>
   </energy>
  </scstep>
  <scstep>
   <time name="total">  259.30  259.09</time>
   <energy>
    <i name="e_fr_energy">    -69.08422583 </i>
    <i name="e_wo_entrp">    -69.08495354 </i>
    <i name="e_0_energy">    -69.08446840 </i>
   </energy>
  </scstep>
  <scstep>
   <time name="total">  259.76  259.55</time>
   <energy>
    <i name="e_fr_energy">    -69.39399218 </i>
    <i name="e_wo_entrp">    -69.39485348 </i>
    <i name="e_0_energy">    -69.39427928 </i>
   </energy>
  </scstep>
  <scstep>
   <time name="total">  259.72  259.55</time>
   <energy>
    <i name="e_fr_energy">    -69.49853832 </i>
    <i name="e_wo_entrp">    -69.49925122 </i>
    <i name="e_0_energy">    -69.49877595 </i>
   </energy>
  </scstep>
  <scstep>
   <time name="total">  260.15  259.95</time>
   <energy>
    <i name="e_fr_energy">    -69.56846442 </i>
    <i name="e_wo_entrp">    -69.56906459 </i>
    <i name="e_0_energy">    -69.56866448 </i>
   </energy>
  </scstep>
  <scstep>
   <time name="total">  259.75  259.53</time>
   <energy>
    <i name="e_fr_energy">    -69.58078702 </i>
    <i name="e_wo_entrp">    -69.58133604 </i>
    <i name="e_0_energy">    -69.58097003 </i>
   </energy>
  </scstep>
  <scstep>
   <time name="total">  260.43  260.23</time>
   <energy>
    <i name="e_fr_energy">    -69.59050239 </i>
    <i name="e_wo_entrp">    -69.59103981 </i>
    <i name="e_0_energy">    -69.59068153 </i>
   </energy>
  </scstep>
  <scstep>
   <time name="total">  259.43  259.26</time>
   <energy>
    <i name="e_fr_energy">    -69.59295827 </i>
    <i name="e_wo_entrp">    -69.59351366 </i>
    <i name="e_0_energy">    -69.59314340 </i>
   </energy>
  </scstep>
  <scstep>
   <time name="total">  261.28  261.09</time>
   <energy>
    <i name="e_fr_energy">    -69.59447010 </i>
    <i name="e_wo_entrp">    -69.59503821 </i>
    <i name="e_0_energy">    -69.59465947 </i>
   </energy>
  </scstep>
  <scstep>
   <time name="total">  261.09  260.89</time>
   <energy>
    <i name="e_fr_energy">    -69.59504315 </i>
    <i name="e_wo_entrp">    -69.59561190 </i>
    <i name="e_0_energy">    -69.59523273 </i>
   </energy>
  </scstep>
  <scstep>
   <time name="total">  260.56  260.35</time>
   <energy>
    <i name="e_fr_energy">    -69.59521647 </i>
    <i name="e_wo_entrp">    -69.59578227 </i>
    <i name="e_0_energy">    -69.59540507 </i>
   </energy>
  </scstep>
  <scstep>
   <time name="total">  259.96  259.77</time>
   <energy>
    <i name="e_fr_energy">    -69.59533388 </i>
    <i name="e_wo_entrp">    -69.59589677 </i>
    <i name="e_0_energy">    -69.59552151 </i>
   </energy>
  </scstep>
  <scstep>
   <time name="total">  257.58  258.03</time>
   <energy>
    <i name="e_fr_energy">    -69.59536271 </i>
    <i name="e_wo_entrp">    -69.59592424 </i>
    <i name="e_0_energy">    -69.59554989 </i>
   </energy>
  </scstep>
  <scstep>
   <time name="total">  257.86  257.66</time>
   <energy>
    <i name="e_fr_energy">    -69.59538250 </i>
    <i name="e_wo_entrp">    -69.59594442 </i>
    <i name="e_0_energy">    -69.59556981 </i>
   </energy>
  </scstep>
  <scstep>
   <time name="total">  258.92  258.72</time>
   <energy>
    <i name="alphaZ">    339.31929130 </i>
    <i name="ewald">  -9064.61101394 </i>
    <i name="hartreedc">  -8149.49779260 </i>
    <i name="XCdc">    372.06843443 </i>
    <i name="pawpsdc">  15921.93772820 </i>
    <i name="pawaedc"> -16407.13038064 </i>
    <i name="eentropy">      0.00056251 </i>
    <i name="bandstr">  -1742.73113594 </i>
    <i name="atom">  18320.98302006 </i>
    <i name="e_fr_energy">    -69.59538988 </i>
    <i name="e_wo_entrp">    -69.59595239 </i>
    <i name="e_0_energy">    -69.59557739 </i>
   </energy>
  </scstep>
  <structure>
   <crystal>
    <varray name="basis" >
     <v>       3.22479600      -5.64383000       0.03157200 </v>
     <v>       3.22479600       5.64383000       0.03157200 </v>
     <v>      -2.10194600       0.00000000       6.07553700 </v>
    </varray>
    <i name="volume">    221.90106089 </i>
    <varray name="rec_basis" >
     <v>       0.15452516      -0.08859232       0.05346088 </v>
     <v>       0.15452516       0.08859232       0.05346088 </v>
     <v>      -0.00160600       0.00000000       0.16403888 </v>
    </varray>
   </crystal>
   <varray name="positions" >
    <v>       0.61844300       0.12117100       0.11953300 </v>
    <v>       0.12117100       0.61844300       0.61953300 </v>
    <v>       0.96295700       0.79032200       0.11881300 </v>
    <v>       0.79032200       0.96295700       0.61881300 </v>
    <v>       0.43973200       0.26728100       0.59904700 </v>
    <v>       0.26728100       0.43973200       0.09904700 </v>
    <v>       0.07949800       0.91167500       0.49580752 </v>
    <v>       0.57140300       0.41236400       0.98018400 </v>
    <v>       0.73711100       0.25006200       0.49504900 </v>
    <v>       0.41236400       0.57140300       0.48018400 </v>
    <v>       0.91167500       0.07949800       0.99736300 </v>
    <v>       0.25006200       0.73711100       0.99504900 </v>
   </varray>
  </structure>
  <varray name="forces" >
   <v>      -0.00272620      -0.00122468       0.00110999 </v>
   <v>       0.00333865       0.01420735      -0.00490430 </v>
   <v>       0.00320292      -0.00107515      -0.02959035 </v>
   <v>       0.00810729      -0.01380407      -0.00299904 </v>
   <v>       0.00795529       0.00586843      -0.00688161 </v>
   <v>      -0.00084249      -0.00588782       0.00368107 </v>
   <v>      -0.03133766       0.00234519       0.07512743 </v>
   <v>      -0.00570877      -0.00809603      -0.00657692 </v>
   <v>       0.00346662       0.00330991      -0.00020697 </v>
   <v>       0.00520219       0.00806195      -0.00010673 </v>
   <v>       0.00686172       0.00018065      -0.01691874 </v>
   <v>       0.00248043      -0.00388574      -0.01173383 </v>
  </varray>
  <energy>
   <i name="e_fr_energy">    -69.59538988 </i>
   <i name="e_wo_entrp">    -69.59557739 </i>
   <i name="e_0_energy">      0.00056251 </i>
  </energy>
  <time name="totalsc"> 5922.70 5920.75</time>
  <eigenvalues>
   <array>
    <dimension dim="1">band</dimension>
    <dimension dim="2">kpoint</dimension>
    <dimension dim="3">spin</dimension>
    <field>eigene</field>
    <field>occ</field>
    <set>
     <set comment="spin 1">
      <set comment="kpoint 1">
       <r>  -68.6464    1.0000 </r>
       <r>  -68.6436    1.0000 </r>
       <r>  -68.6388    1.0000 </r>
       <r>  -68.6276    1.0000 </r>
       <r>  -68.6142    1.0000 </r>
       <r>  -68.6082    1.0000 </r>
       <r>  -68.5969    1.0000 </r>
       <r>  -68.5902    1.0000 </r>
       <r>  -68.5896    1.0000 </r>
       <r>  -68.5724    1.0000 </r>
       <r>  -68.5699    1.0000 </r>
       <r>  -68.5541    1.0000 </r>
       <r>  -12.7215    1.0000 </r>
       <r>  -11.1307    1.0000 </r>
       <r>  -10.9171    1.0000 </r>
       <r>  -10.6039    1.0000 </r>
       <r>  -10.2508    1.0000 </r>
       <r>  -10.2349    1.0000 </r>
       <r>   -5.9857    1.0000 </r>
       <r>   -4.9843    1.0000 </r>
       <r>   -2.7611    1.0000 </r>
       <r>   -2.2095    1.0000 </r>
       <r>   -2.0700    1.0000 </r>
       <r>   -1.9227    1.0000 </r>
       <r>   -1.5752    1.0000 </r>
       <r>   -0.9812    1.0000 </r>
       <r>   -0.9493    1.0000 </r>
       <r>   -0.6844    1.0000 </r>
       <r>   -0.4043    1.0000 </r>
       <r>   -0.2766    1.0000 </r>
       <r>   -0.2606    1.0000 </r>
       <r>   -0.2331    1.0000 </r>
       <r>   -0.1927    1.0000 </r>
       <r>   -0.1516    1.0000 </r>
       <r>   -0.0417    1.0000 </r>
       <r>    0.0292    1.0000 </r>
       <r>    1.3508    1.0000 </r>
       <r>    1.3636    1.0000 </r>
       <r>    1.4147    1.0000 </r>
       <r>    1.4544    1.0000 </r>
       <r>    1.4720    1.0000 </r>
       <r>    1.4736    1.0000 </r>
       <r>    1.5209    1.0000 </r>
       <r>    1.5322    1.0000 </r>
       <r>    1.5763    1.0000 </r>
       <r>    1.7124    1.0000 </r>
       <r>    1.8930    1.0000 </r>
       <r>    1.9302    1.0000 </r>
       <r>    2.0594    1.0000 </r>
       <r>    2.6498    1.0000 </r>
       <r>    2.7284    1.0000 </r>
       <r>    3.0885    1.0000 </r>
       <r>    3.2152    1.0000 </r>
       <r>    4.0067    1.0048 </r>
       <r>    4.0381    1.0131 </r>
       <r>    4.1728    0.8625 </r>
       <r>    5.5365   -0.0000 </r>
       <r>    6.3574   -0.0000 </r>
       <r>    7.6260    0.0000 </r>
       <r>    7.9894    0.0000 </r>
       <r>    8.6180    0.0000 </r>
       <r>    8.7907    0.0000 </r>
       <r>    9.5713    0.0000 </r>
       <r>    9.7385    0.0000 </r>
       <r>    9.8155    0.0000 </r>
       <r>   10.4232    0.0000 </r>
       <r>   10.5802    0.0000 </r>
       <r>   10.6949    0.0000 </r>
       <r>   10.7199    0.0000 </r>
       <r>   11.2893    0.0000 </r>
       <r>   11.7095    0.0000 </r>
       <r>   12.3848    0.0000 </r>
       <r>   12.4517    0.0000 </r>
       <r>   12.7260    0.0000 </r>
       <r>   13.3210    0.0000 </r>
       <r>   13.3871    0.0000 </r>
       <r>   13.8270    0.0000 </r>
       <r>   13.8922    0.0000 </r>
       <r>   14.1416    0.0000 </r>
       <r>   14.1845    0.0000 </r>
      </set>
      <set comment="kpoint 2">
       <r>  -68.6464    1.0000 </r>
       <r>  -68.6436    1.0000 </r>
       <r>  -68.6387    1.0000 </r>
       <r>  -68.6276    1.0000 </r>
       <r>  -68.6141    1.0000 </r>
       <r>  -68.6081    1.0000 </r>
       <r>  -68.5969    1.0000 </r>
       <r>  -68.5902    1.0000 </r>
       <r>  -68.5896    1.0000 </r>
       <r>  -68.5723    1.0000 </r>
       <r>  -68.5699    1.0000 </r>
       <r>  -68.5540    1.0000 </r>
       <r>  -12.5965    1.0000 </r>
       <r>  -11.1277    1.0000 </r>
       <r>  -10.9841    1.0000 </r>
       <r>  -10.6769    1.0000 </r>
       <r>  -10.3660    1.0000 </r>
       <r>  -10.2770    1.0000 </r>
       <r>   -5.9338    1.0000 </r>
       <r>   -4.7734    1.0000 </r>
       <r>   -2.6467    1.0000 </r>
       <r>   -2.2515    1.0000 </r>
       <r>   -2.0878    1.0000 </r>
       <r>   -1.6899    1.0000 </r>
       <r>   -1.3417    1.0000 </r>
       <r>   -1.0005    1.0000 </r>
       <r>   -0.7697    1.0000 </r>
       <r>   -0.6243    1.0000 </r>
       <r>   -0.5513    1.0000 </r>
       <r>   -0.4409    1.0000 </r>
       <r>   -0.3591    1.0000 </r>
       <r>   -0.2403    1.0000 </r>
       <r>   -0.1912    1.0000 </r>
       <r>   -0.1679    1.0000 </r>
       <r>   -0.0467    1.0000 </r>
       <r>    0.0366    1.0000 </r>
       <r>    1.2800    1.0000 </r>
       <r>    1.3376    1.0000 </r>
       <r>    1.3552    1.0000 </r>
       <r>    1.3902    1.0000 </r>
       <r>    1.4274    1.0000 </r>
       <r>    1.4714    1.0000 </r>
       <r>    1.5001    1.0000 </r>
       <r>    1.5281    1.0000 </r>
       <r>    1.7263    1.0000 </r>
       <r>    1.8588    1.0000 </r>
       <r>    2.0569    1.0000 </r>
       <r>    2.0953    1.0000 </r>
       <r>    2.2329    1.0000 </r>
       <r>    2.4132    1.0000 </r>
       <r>    2.5552    1.0000 </r>
       <r>    2.8259    1.0000 </r>
       <r>    2.9440    1.0000 </r>
       <r>    3.2429    1.0000 </r>
       <r>    3.6634    1.0000 </r>
       <r>    4.0409    1.0142 </r>
       <r>    6.1692   -0.0000 </r>
       <r>    6.9065   -0.0000 </r>
       <r>    8.1375    0.0000 </r>
       <r>    8.2698    0.0000 </r>
       <r>    8.5926    0.0000 </r>
       <r>    9.0138    0.0000 </r>
       <r>    9.2428    0.0000 </r>
       <r>    9.5311    0.0000 </r>
       <r>    9.8686    0.0000 </r>
       <r>   10.3767    0.0000 </r>
       <r>   10.6349    0.0000 </r>
       <r>   10.8122    0.0000 </r>
       <r>   10.9395    0.0000 </r>
       <r>   11.1882    0.0000 </r>
       <r>   11.6514    0.0000 </r>
       <r>   11.7699    0.0000 </r>
       <r>   12.1181    0.0000 </r>
       <r>   12.4437    0.0000 </r>
       <r>   12.6193    0.0000 </r>
       <r>   13.0063    0.0000 </r>
       <r>   13.5108    0.0000 </r>
       <r>   13.8716    0.0000 </r>
       <r>   14.2096    0.0000 </r>
       <r>   14.7155    0.0000 </r>
      </set>
      <set comment="kpoint 3">
       <r>  -68.6462    1.0000 </r>
       <r>  -68.6435    1.0000 </r>
       <r>  -68.6386    1.0000 </r>
       <r>  -68.6275    1.0000 </r>
       <r>  -68.6141    1.0000 </r>
       <r>  -68.6080    1.0000 </r>
       <r>  -68.5968    1.0000 </r>
       <r>  -68.5901    1.0000 </r>
       <r>  -68.5895    1.0000 </r>
       <r>  -68.5723    1.0000 </r>
       <r>  -68.5698    1.0000 </r>
       <r>  -68.5539    1.0000 </r>
       <r>  -12.4372    1.0000 </r>
       <r>  -11.2498    1.0000 </r>
       <r>  -10.9587    1.0000 </r>
       <r>  -10.7647    1.0000 </r>
       <r>  -10.4272    1.0000 </r>
       <r>  -10.3568    1.0000 </r>
       <r>   -5.8712    1.0000 </r>
       <r>   -4.5480    1.0000 </r>
       <r>   -2.4962    1.0000 </r>
       <r>   -2.2424    1.0000 </r>
       <r>   -1.9458    1.0000 </r>
       <r>   -1.4671    1.0000 </r>
       <r>   -1.2239    1.0000 </r>
       <r>   -1.1065    1.0000 </r>
       <r>   -0.9013    1.0000 </r>
       <r>   -0.8638    1.0000 </r>
       <r>   -0.6018    1.0000 </r>
       <r>   -0.5362    1.0000 </r>
       <r>   -0.2731    1.0000 </r>
       <r>   -0.2027    1.0000 </r>
       <r>   -0.1976    1.0000 </r>
       <r>   -0.1460    1.0000 </r>
       <r>   -0.0288    1.0000 </r>
       <r>    0.0787    1.0000 </r>
       <r>    1.2552    1.0000 </r>
       <r>    1.3310    1.0000 </r>
       <r>    1.3444    1.0000 </r>
       <r>    1.3967    1.0000 </r>
       <r>    1.4695    1.0000 </r>
       <r>    1.4802    1.0000 </r>
       <r>    1.5006    1.0000 </r>
       <r>    1.5502    1.0000 </r>
       <r>    1.7512    1.0000 </r>
       <r>    1.7894    1.0000 </r>
       <r>    1.9722    1.0000 </r>
       <r>    2.1447    1.0000 </r>
       <r>    2.3233    1.0000 </r>
       <r>    2.3663    1.0000 </r>
       <r>    2.5539    1.0000 </r>
       <r>    2.6698    1.0000 </r>
       <r>    2.9351    1.0000 </r>
       <r>    3.0804    1.0000 </r>
       <r>    3.2489    1.0000 </r>
       <r>    3.8633    1.0000 </r>
       <r>    6.3851   -0.0000 </r>
       <r>    7.0993    0.0000 </r>
       <r>    7.9852    0.0000 </r>
       <r>    8.2067    0.0000 </r>
       <r>    8.5176    0.0000 </r>
       <r>    8.8172    0.0000 </r>
       <r>    9.3291    0.0000 </r>
       <r>    9.8834    0.0000 </r>
       <r>   10.0151    0.0000 </r>
       <r>   10.5205    0.0000 </r>
       <r>   10.6882    0.0000 </r>
       <r>   10.7939    0.0000 </r>
       <r>   11.1348    0.0000 </r>
       <r>   11.4060    0.0000 </r>
       <r>   11.6055    0.0000 </r>
       <r>   11.7747    0.0000 </r>
       <r>   11.9496    0.0000 </r>
       <r>   12.5032    0.0000 </r>
       <r>   12.7805    0.0000 </r>
       <r>   13.0057    0.0000 </r>
       <r>   13.3958    0.0000 </r>
       <r>   13.5328    0.0000 </r>
       <r>   13.9436    0.0000 </r>
       <r>   14.2637    0.0000 </r>
      </set>
      <set comment="kpoint 4">
       <r>  -68.6463    1.0000 </r>
       <r>  -68.6435    1.0000 </r>
       <r>  -68.6387    1.0000 </r>
       <r>  -68.6276    1.0000 </r>
       <r>  -68.6141    1.0000 </r>
       <r>  -68.6081    1.0000 </r>
       <r>  -68.5969    1.0000 </r>
       <r>  -68.5902    1.0000 </r>
       <r>  -68.5896    1.0000 </r>
       <r>  -68.5723    1.0000 </r>
       <r>  -68.5699    1.0000 </r>
       <r>  -68.5540    1.0000 </r>
       <r>  -12.5966    1.0000 </r>
       <r>  -11.1283    1.0000 </r>
       <r>  -10.9827    1.0000 </r>
       <r>  -10.6784    1.0000 </r>
       <r>  -10.3652    1.0000 </r>
       <r>  -10.2773    1.0000 </r>
       <r>   -5.9334    1.0000 </r>
       <r>   -4.7737    1.0000 </r>
       <r>   -2.6467    1.0000 </r>
       <r>   -2.2537    1.0000 </r>
       <r>   -2.0849    1.0000 </r>
       <r>   -1.6885    1.0000 </r>
       <r>   -1.3448    1.0000 </r>
       <r>   -1.0023    1.0000 </r>
       <r>   -0.7682    1.0000 </r>
       <r>   -0.6205    1.0000 </r>
       <r>   -0.5553    1.0000 </r>
       <r>   -0.4356    1.0000 </r>
       <r>   -0.3591    1.0000 </r>
       <r>   -0.2425    1.0000 </r>
       <r>   -0.1951    1.0000 </r>
       <r>   -0.1657    1.0000 </r>
       <r>   -0.0482    1.0000 </r>
       <r>    0.0384    1.0000 </r>
       <r>    1.2801    1.0000 </r>
       <r>    1.3331    1.0000 </r>
       <r>    1.3541    1.0000 </r>
       <r>    1.3954    1.0000 </r>
       <r>    1.4279    1.0000 </r>
       <r>    1.4731    1.0000 </r>
       <r>    1.4948    1.0000 </r>
       <r>    1.5331    1.0000 </r>
       <r>    1.7245    1.0000 </r>
       <r>    1.8600    1.0000 </r>
       <r>    2.0565    1.0000 </r>
       <r>    2.0932    1.0000 </r>
       <r>    2.2339    1.0000 </r>
       <r>    2.4135    1.0000 </r>
       <r>    2.5543    1.0000 </r>
       <r>    2.8231    1.0000 </r>
       <r>    2.9479    1.0000 </r>
       <r>    3.2444    1.0000 </r>
       <r>    3.6630    1.0000 </r>
       <r>    4.0395    1.0137 </r>
       <r>    6.1690   -0.0000 </r>
       <r>    6.9056   -0.0000 </r>
       <r>    8.1350    0.0000 </r>
       <r>    8.2731    0.0000 </r>
       <r>    8.5937    0.0000 </r>
       <r>    9.0121    0.0000 </r>
       <r>    9.2417    0.0000 </r>
       <r>    9.5365    0.0000 </r>
       <r>    9.8639    0.0000 </r>
       <r>   10.3777    0.0000 </r>
       <r>   10.6317    0.0000 </r>
       <r>   10.8153    0.0000 </r>
       <r>   10.9385    0.0000 </r>
       <r>   11.1926    0.0000 </r>
       <r>   11.6559    0.0000 </r>
       <r>   11.7682    0.0000 </r>
       <r>   12.1169    0.0000 </r>
       <r>   12.4384    0.0000 </r>
       <r>   12.6164    0.0000 </r>
       <r>   13.0127    0.0000 </r>
       <r>   13.5147    0.0000 </r>
       <r>   13.9026    0.0000 </r>
       <r>   14.2705    0.0000 </r>
       <r>   14.8418    0.0000 </r>
      </set>
      <set comment="kpoint 5">
       <r>  -68.6464    1.0000 </r>
       <r>  -68.6434    1.0000 </r>
       <r>  -68.6387    1.0000 </r>
       <r>  -68.6275    1.0000 </r>
       <r>  -68.6143    1.0000 </r>
       <r>  -68.6082    1.0000 </r>
       <r>  -68.5968    1.0000 </r>
       <r>  -68.5901    1.0000 </r>
       <r>  -68.5897    1.0000 </r>
       <r>  -68.5724    1.0000 </r>
       <r>  -68.5699    1.0000 </r>
       <r>  -68.5541    1.0000 </r>
       <r>  -12.4410    1.0000 </r>
       <r>  -11.1914    1.0000 </r>
       <r>  -10.9444    1.0000 </r>
       <r>  -10.8787    1.0000 </r>
       <r>  -10.3896    1.0000 </r>
       <r>  -10.3502    1.0000 </r>
       <r>   -5.8759    1.0000 </r>
       <r>   -4.5217    1.0000 </r>
       <r>   -2.4196    1.0000 </r>
       <r>   -2.2459    1.0000 </r>
       <r>   -1.7918    1.0000 </r>
       <r>   -1.6814    1.0000 </r>
       <r>   -1.3566    1.0000 </r>
       <r>   -1.2958    1.0000 </r>
       <r>   -1.0872    1.0000 </r>
       <r>   -0.6845    1.0000 </r>
       <r>   -0.5245    1.0000 </r>
       <r>   -0.2959    1.0000 </r>
       <r>   -0.2819    1.0000 </r>
       <r>   -0.2241    1.0000 </r>
       <r>   -0.1852    1.0000 </r>
       <r>   -0.1267    1.0000 </r>
       <r>   -0.0887    1.0000 </r>
       <r>    0.0783    1.0000 </r>
       <r>    1.2933    1.0000 </r>
       <r>    1.3112    1.0000 </r>
       <r>    1.4148    1.0000 </r>
       <r>    1.4284    1.0000 </r>
       <r>    1.4639    1.0000 </r>
       <r>    1.4825    1.0000 </r>
       <r>    1.4952    1.0000 </r>
       <r>    1.5691    1.0000 </r>
       <r>    1.6718    1.0000 </r>
       <r>    1.8800    1.0000 </r>
       <r>    1.9407    1.0000 </r>
       <r>    2.1345    1.0000 </r>
       <r>    2.2789    1.0000 </r>
       <r>    2.3201    1.0000 </r>
       <r>    2.5605    1.0000 </r>
       <r>    2.6517    1.0000 </r>
       <r>    2.9032    1.0000 </r>
       <r>    2.9441    1.0000 </r>
       <r>    3.6989    1.0000 </r>
       <r>    3.8322    1.0000 </r>
       <r>    6.1715   -0.0000 </r>
       <r>    6.9926    0.0000 </r>
       <r>    8.0074    0.0000 </r>
       <r>    8.3285    0.0000 </r>
       <r>    8.4342    0.0000 </r>
       <r>    8.5715    0.0000 </r>
       <r>    9.1452    0.0000 </r>
       <r>    9.2492    0.0000 </r>
       <r>   10.3606    0.0000 </r>
       <r>   10.4974    0.0000 </r>
       <r>   10.9161    0.0000 </r>
       <r>   11.1824    0.0000 </r>
       <r>   11.3324    0.0000 </r>
       <r>   11.5540    0.0000 </r>
       <r>   11.8123    0.0000 </r>
       <r>   11.9632    0.0000 </r>
       <r>   12.3114    0.0000 </r>
       <r>   12.5022    0.0000 </r>
       <r>   12.7117    0.0000 </r>
       <r>   12.9135    0.0000 </r>
       <r>   13.3353    0.0000 </r>
       <r>   13.4485    0.0000 </r>
       <r>   14.2555    0.0000 </r>
       <r>   14.3692    0.0000 </r>
      </set>
      <set comment="kpoint 6">
       <r>  -68.6460    1.0000 </r>
       <r>  -68.6436    1.0000 </r>
       <r>  -68.6386    1.0000 </r>
       <r>  -68.6276    1.0000 </r>
       <r>  -68.6140    1.0000 </r>
       <r>  -68.6080    1.0000 </r>
       <r>  -68.5969    1.0000 </r>
       <r>  -68.5901    1.0000 </r>
       <r>  -68.5895    1.0000 </r>
       <r>  -68.5723    1.0000 </r>
       <r>  -68.5698    1.0000 </r>
       <r>  -68.5539    1.0000 </r>
       <r>  -12.4414    1.0000 </r>
       <r>  -11.3546    1.0000 </r>
       <r>  -10.9393    1.0000 </r>
       <r>  -10.7386    1.0000 </r>
       <r>  -10.3884    1.0000 </r>
       <r>  -10.2711    1.0000 </r>
       <r>   -5.9480    1.0000 </r>
       <r>   -4.6430    1.0000 </r>
       <r>   -2.3917    1.0000 </r>
       <r>   -2.2257    1.0000 </r>
       <r>   -2.0574    1.0000 </r>
       <r>   -1.6389    1.0000 </r>
       <r>   -1.3593    1.0000 </r>
       <r>   -1.2824    1.0000 </r>
       <r>   -1.0289    1.0000 </r>
       <r>   -0.5122    1.0000 </r>
       <r>   -0.4822    1.0000 </r>
       <r>   -0.3281    1.0000 </r>
       <r>   -0.2842    1.0000 </r>
       <r>   -0.2166    1.0000 </r>
       <r>   -0.1511    1.0000 </r>
       <r>   -0.1339    1.0000 </r>
       <r>   -0.0087    1.0000 </r>
       <r>    0.1105    1.0000 </r>
       <r>    1.2473    1.0000 </r>
       <r>    1.3139    1.0000 </r>
       <r>    1.3857    1.0000 </r>
       <r>    1.4370    1.0000 </r>
       <r>    1.4632    1.0000 </r>
       <r>    1.4899    1.0000 </r>
       <r>    1.4972    1.0000 </r>
       <r>    1.5468    1.0000 </r>
       <r>    1.7468    1.0000 </r>
       <r>    1.8296    1.0000 </r>
       <r>    1.9249    1.0000 </r>
       <r>    2.1318    1.0000 </r>
       <r>    2.2226    1.0000 </r>
       <r>    2.3864    1.0000 </r>
       <r>    2.5607    1.0000 </r>
       <r>    2.7908    1.0000 </r>
       <r>    2.9768    1.0000 </r>
       <r>    3.3127    1.0000 </r>
       <r>    3.6041    1.0000 </r>
       <r>    3.7502    1.0000 </r>
       <r>    6.0858   -0.0000 </r>
       <r>    6.9414   -0.0000 </r>
       <r>    7.6096    0.0000 </r>
       <r>    8.0703    0.0000 </r>
       <r>    8.4123    0.0000 </r>
       <r>    8.6160    0.0000 </r>
       <r>    8.9818    0.0000 </r>
       <r>    9.1523    0.0000 </r>
       <r>   10.0872    0.0000 </r>
       <r>   10.3371    0.0000 </r>
       <r>   10.7354    0.0000 </r>
       <r>   11.1056    0.0000 </r>
       <r>   11.4595    0.0000 </r>
       <r>   11.5929    0.0000 </r>
       <r>   11.7972    0.0000 </r>
       <r>   12.0839    0.0000 </r>
       <r>   12.4739    0.0000 </r>
       <r>   12.9098    0.0000 </r>
       <r>   13.0337    0.0000 </r>
       <r>   13.8130    0.0000 </r>
       <r>   14.1885    0.0000 </r>
       <r>   14.6418    0.0000 </r>
       <r>   15.4238    0.0000 </r>
       <r>   15.6371    0.0000 </r>
      </set>
      <set comment="kpoint 7">
       <r>  -68.6464    1.0000 </r>
       <r>  -68.6435    1.0000 </r>
       <r>  -68.6387    1.0000 </r>
       <r>  -68.6276    1.0000 </r>
       <r>  -68.6141    1.0000 </r>
       <r>  -68.6080    1.0000 </r>
       <r>  -68.5969    1.0000 </r>
       <r>  -68.5902    1.0000 </r>
       <r>  -68.5895    1.0000 </r>
       <r>  -68.5723    1.0000 </r>
       <r>  -68.5699    1.0000 </r>
       <r>  -68.5540    1.0000 </r>
       <r>  -12.5995    1.0000 </r>
       <r>  -11.2519    1.0000 </r>
       <r>  -10.9923    1.0000 </r>
       <r>  -10.5708    1.0000 </r>
       <r>  -10.3665    1.0000 </r>
       <r>  -10.1797    1.0000 </r>
       <r>   -6.0107    1.0000 </r>
       <r>   -4.8957    1.0000 </r>
       <r>   -2.6465    1.0000 </r>
       <r>   -2.3131    1.0000 </r>
       <r>   -1.9716    1.0000 </r>
       <r>   -1.6467    1.0000 </r>
       <r>   -1.4950    1.0000 </r>
       <r>   -1.1836    1.0000 </r>
       <r>   -0.7910    1.0000 </r>
       <r>   -0.5815    1.0000 </r>
       <r>   -0.4428    1.0000 </r>
       <r>   -0.3335    1.0000 </r>
       <r>   -0.2931    1.0000 </r>
       <r>   -0.2346    1.0000 </r>
       <r>   -0.1768    1.0000 </r>
       <r>   -0.1340    1.0000 </r>
       <r>   -0.0106    1.0000 </r>
       <r>    0.0700    1.0000 </r>
       <r>    1.2590    1.0000 </r>
       <r>    1.3202    1.0000 </r>
       <r>    1.3661    1.0000 </r>
       <r>    1.4212    1.0000 </r>
       <r>    1.4305    1.0000 </r>
       <r>    1.4764    1.0000 </r>
       <r>    1.5034    1.0000 </r>
       <r>    1.5452    1.0000 </r>
       <r>    1.7264    1.0000 </r>
       <r>    1.8128    1.0000 </r>
       <r>    1.9951    1.0000 </r>
       <r>    2.0722    1.0000 </r>
       <r>    2.4183    1.0000 </r>
       <r>    2.4621    1.0000 </r>
       <r>    2.5292    1.0000 </r>
       <r>    2.8706    1.0000 </r>
       <r>    3.1442    1.0000 </r>
       <r>    3.2268    1.0000 </r>
       <r>    3.7851    1.0000 </r>
       <r>    4.0705    1.0272 </r>
       <r>    5.9759   -0.0000 </r>
       <r>    6.6840   -0.0000 </r>
       <r>    7.5363    0.0000 </r>
       <r>    8.2260    0.0000 </r>
       <r>    8.6180    0.0000 </r>
       <r>    8.9125    0.0000 </r>
       <r>    9.3060    0.0000 </r>
       <r>    9.4317    0.0000 </r>
       <r>    9.8018    0.0000 </r>
       <r>   10.2740    0.0000 </r>
       <r>   10.5482    0.0000 </r>
       <r>   10.8357    0.0000 </r>
       <r>   10.9725    0.0000 </r>
       <r>   11.3760    0.0000 </r>
       <r>   11.4740    0.0000 </r>
       <r>   11.7339    0.0000 </r>
       <r>   12.0994    0.0000 </r>
       <r>   12.6626    0.0000 </r>
       <r>   12.9412    0.0000 </r>
       <r>   13.1014    0.0000 </r>
       <r>   13.3590    0.0000 </r>
       <r>   13.5205    0.0000 </r>
       <r>   14.4703    0.0000 </r>
       <r>   14.7570    0.0000 </r>
      </set>
      <set comment="kpoint 8">
       <r>  -68.6462    1.0000 </r>
       <r>  -68.6435    1.0000 </r>
       <r>  -68.6386    1.0000 </r>
       <r>  -68.6275    1.0000 </r>
       <r>  -68.6141    1.0000 </r>
       <r>  -68.6081    1.0000 </r>
       <r>  -68.5969    1.0000 </r>
       <r>  -68.5901    1.0000 </r>
       <r>  -68.5896    1.0000 </r>
       <r>  -68.5723    1.0000 </r>
       <r>  -68.5697    1.0000 </r>
       <r>  -68.5539    1.0000 </r>
       <r>  -12.4372    1.0000 </r>
       <r>  -11.2497    1.0000 </r>
       <r>  -10.9580    1.0000 </r>
       <r>  -10.7659    1.0000 </r>
       <r>  -10.4255    1.0000 </r>
       <r>  -10.3582    1.0000 </r>
       <r>   -5.8706    1.0000 </r>
       <r>   -4.5485    1.0000 </r>
       <r>   -2.4937    1.0000 </r>
       <r>   -2.2470    1.0000 </r>
       <r>   -1.9446    1.0000 </r>
       <r>   -1.4665    1.0000 </r>
       <r>   -1.2247    1.0000 </r>
       <r>   -1.1019    1.0000 </r>
       <r>   -0.9023    1.0000 </r>
       <r>   -0.8702    1.0000 </r>
       <r>   -0.5983    1.0000 </r>
       <r>   -0.5328    1.0000 </r>
       <r>   -0.2754    1.0000 </r>
       <r>   -0.2064    1.0000 </r>
       <r>   -0.1995    1.0000 </r>
       <r>   -0.1439    1.0000 </r>
       <r>   -0.0281    1.0000 </r>
       <r>    0.0804    1.0000 </r>
       <r>    1.2534    1.0000 </r>
       <r>    1.3256    1.0000 </r>
       <r>    1.3508    1.0000 </r>
       <r>    1.3985    1.0000 </r>
       <r>    1.4699    1.0000 </r>
       <r>    1.4763    1.0000 </r>
       <r>    1.4998    1.0000 </r>
       <r>    1.5569    1.0000 </r>
       <r>    1.7550    1.0000 </r>
       <r>    1.7920    1.0000 </r>
       <r>    1.9632    1.0000 </r>
       <r>    2.1488    1.0000 </r>
       <r>    2.3159    1.0000 </r>
       <r>    2.3601    1.0000 </r>
       <r>    2.5574    1.0000 </r>
       <r>    2.6737    1.0000 </r>
       <r>    2.9389    1.0000 </r>
       <r>    3.0804    1.0000 </r>
       <r>    3.2498    1.0000 </r>
       <r>    3.8600    1.0000 </r>
       <r>    6.3849   -0.0000 </r>
       <r>    7.1001    0.0000 </r>
       <r>    7.9821    0.0000 </r>
       <r>    8.2044    0.0000 </r>
       <r>    8.5185    0.0000 </r>
       <r>    8.8185    0.0000 </r>
       <r>    9.3316    0.0000 </r>
       <r>    9.8856    0.0000 </r>
       <r>   10.0099    0.0000 </r>
       <r>   10.5256    0.0000 </r>
       <r>   10.6915    0.0000 </r>
       <r>   10.7900    0.0000 </r>
       <r>   11.1403    0.0000 </r>
       <r>   11.4075    0.0000 </r>
       <r>   11.6100    0.0000 </r>
       <r>   11.7736    0.0000 </r>
       <r>   11.9391    0.0000 </r>
       <r>   12.5057    0.0000 </r>
       <r>   12.8230    0.0000 </r>
       <r>   13.0272    0.0000 </r>
       <r>   13.5518    0.0000 </r>
       <r>   13.6903    0.0000 </r>
       <r>   14.5542    0.0000 </r>
       <r>   15.2396    0.0000 </r>
      </set>
      <set comment="kpoint 9">
       <r>  -68.6461    1.0000 </r>
       <r>  -68.6436    1.0000 </r>
       <r>  -68.6385    1.0000 </r>
       <r>  -68.6275    1.0000 </r>
       <r>  -68.6140    1.0000 </r>
       <r>  -68.6080    1.0000 </r>
       <r>  -68.5969    1.0000 </r>
       <r>  -68.5901    1.0000 </r>
       <r>  -68.5895    1.0000 </r>
       <r>  -68.5722    1.0000 </r>
       <r>  -68.5698    1.0000 </r>
       <r>  -68.5539    1.0000 </r>
       <r>  -12.4414    1.0000 </r>
       <r>  -11.3545    1.0000 </r>
       <r>  -10.9391    1.0000 </r>
       <r>  -10.7388    1.0000 </r>
       <r>  -10.3889    1.0000 </r>
       <r>  -10.2707    1.0000 </r>
       <r>   -5.9477    1.0000 </r>
       <r>   -4.6433    1.0000 </r>
       <r>   -2.3914    1.0000 </r>
       <r>   -2.2266    1.0000 </r>
       <r>   -2.0565    1.0000 </r>
       <r>   -1.6378    1.0000 </r>
       <r>   -1.3645    1.0000 </r>
       <r>   -1.2802    1.0000 </r>
       <r>   -1.0276    1.0000 </r>
       <r>   -0.5082    1.0000 </r>
       <r>   -0.4855    1.0000 </r>
       <r>   -0.3300    1.0000 </r>
       <r>   -0.2845    1.0000 </r>
       <r>   -0.2141    1.0000 </r>
       <r>   -0.1505    1.0000 </r>
       <r>   -0.1334    1.0000 </r>
       <r>   -0.0120    1.0000 </r>
       <r>    0.1120    1.0000 </r>
       <r>    1.2452    1.0000 </r>
       <r>    1.3164    1.0000 </r>
       <r>    1.3809    1.0000 </r>
       <r>    1.4371    1.0000 </r>
       <r>    1.4612    1.0000 </r>
       <r>    1.4925    1.0000 </r>
       <r>    1.4987    1.0000 </r>
       <r>    1.5516    1.0000 </r>
       <r>    1.7516    1.0000 </r>
       <r>    1.8273    1.0000 </r>
       <r>    1.9201    1.0000 </r>
       <r>    2.1337    1.0000 </r>
       <r>    2.2199    1.0000 </r>
       <r>    2.3835    1.0000 </r>
       <r>    2.5640    1.0000 </r>
       <r>    2.7896    1.0000 </r>
       <r>    2.9793    1.0000 </r>
       <r>    3.3141    1.0000 </r>
       <r>    3.6037    1.0000 </r>
       <r>    3.7480    1.0000 </r>
       <r>    6.0860   -0.0000 </r>
       <r>    6.9402   -0.0000 </r>
       <r>    7.6086    0.0000 </r>
       <r>    8.0725    0.0000 </r>
       <r>    8.4111    0.0000 </r>
       <r>    8.6161    0.0000 </r>
       <r>    8.9863    0.0000 </r>
       <r>    9.1499    0.0000 </r>
       <r>   10.0864    0.0000 </r>
       <r>   10.3352    0.0000 </r>
       <r>   10.7344    0.0000 </r>
       <r>   11.1056    0.0000 </r>
       <r>   11.4628    0.0000 </r>
       <r>   11.5756    0.0000 </r>
       <r>   11.7876    0.0000 </r>
       <r>   12.0316    0.0000 </r>
       <r>   12.5258    0.0000 </r>
       <r>   12.6809    0.0000 </r>
       <r>   12.9165    0.0000 </r>
       <r>   13.2092    0.0000 </r>
       <r>   14.2312    0.0000 </r>
       <r>   14.7706    0.0000 </r>
       <r>   15.2371    0.0000 </r>
       <r>   15.9052    0.0000 </r>
      </set>
      <set comment="kpoint 10">
       <r>  -68.6459    1.0000 </r>
       <r>  -68.6433    1.0000 </r>
       <r>  -68.6384    1.0000 </r>
       <r>  -68.6274    1.0000 </r>
       <r>  -68.6139    1.0000 </r>
       <r>  -68.6079    1.0000 </r>
       <r>  -68.5967    1.0000 </r>
       <r>  -68.5899    1.0000 </r>
       <r>  -68.5894    1.0000 </r>
       <r>  -68.5721    1.0000 </r>
       <r>  -68.5696    1.0000 </r>
       <r>  -68.5537    1.0000 </r>
       <r>  -12.4334    1.0000 </r>
       <r>  -11.5019    1.0000 </r>
       <r>  -10.9142    1.0000 </r>
       <r>  -10.6183    1.0000 </r>
       <r>  -10.3977    1.0000 </r>
       <r>  -10.1986    1.0000 </r>
       <r>   -6.0265    1.0000 </r>
       <r>   -4.8118    1.0000 </r>
       <r>   -2.3108    1.0000 </r>
       <r>   -2.2636    1.0000 </r>
       <r>   -2.0929    1.0000 </r>
       <r>   -1.7006    1.0000 </r>
       <r>   -1.2473    1.0000 </r>
       <r>   -1.1147    1.0000 </r>
       <r>   -0.8418    1.0000 </r>
       <r>   -0.7796    1.0000 </r>
       <r>   -0.7224    1.0000 </r>
       <r>   -0.2429    1.0000 </r>
       <r>   -0.1998    1.0000 </r>
       <r>   -0.1809    1.0000 </r>
       <r>   -0.1555    1.0000 </r>
       <r>   -0.0433    1.0000 </r>
       <r>   -0.0026    1.0000 </r>
       <r>    0.1835    1.0000 </r>
       <r>    1.2645    1.0000 </r>
       <r>    1.3187    1.0000 </r>
       <r>    1.3762    1.0000 </r>
       <r>    1.4121    1.0000 </r>
       <r>    1.4312    1.0000 </r>
       <r>    1.4938    1.0000 </r>
       <r>    1.5088    1.0000 </r>
       <r>    1.5515    1.0000 </r>
       <r>    1.7886    1.0000 </r>
       <r>    1.8485    1.0000 </r>
       <r>    1.9958    1.0000 </r>
       <r>    2.1500    1.0000 </r>
       <r>    2.2515    1.0000 </r>
       <r>    2.3381    1.0000 </r>
       <r>    2.5586    1.0000 </r>
       <r>    2.7616    1.0000 </r>
       <r>    2.7744    1.0000 </r>
       <r>    3.3730    1.0000 </r>
       <r>    3.7643    1.0000 </r>
       <r>    4.0076    1.0050 </r>
       <r>    5.8507   -0.0000 </r>
       <r>    6.7581   -0.0000 </r>
       <r>    7.0884    0.0000 </r>
       <r>    8.4092    0.0000 </r>
       <r>    8.5643    0.0000 </r>
       <r>    8.7732    0.0000 </r>
       <r>    9.1431    0.0000 </r>
       <r>    9.2417    0.0000 </r>
       <r>    9.9580    0.0000 </r>
       <r>   10.2876    0.0000 </r>
       <r>   10.7314    0.0000 </r>
       <r>   10.8268    0.0000 </r>
       <r>   10.8742    0.0000 </r>
       <r>   11.2750    0.0000 </r>
       <r>   11.7615    0.0000 </r>
       <r>   11.9083    0.0000 </r>
       <r>   11.9761    0.0000 </r>
       <r>   12.3682    0.0000 </r>
       <r>   12.5431    0.0000 </r>
       <r>   13.4503    0.0000 </r>
       <r>   14.2867    0.0000 </r>
       <r>   14.6734    0.0000 </r>
       <r>   16.7435    0.0000 </r>
       <r>   16.7538    0.0000 </r>
      </set>
      <set comment="kpoint 11">
       <r>  -68.6464    1.0000 </r>
       <r>  -68.6435    1.0000 </r>
       <r>  -68.6388    1.0000 </r>
       <r>  -68.6276    1.0000 </r>
       <r>  -68.6142    1.0000 </r>
       <r>  -68.6081    1.0000 </r>
       <r>  -68.5969    1.0000 </r>
       <r>  -68.5902    1.0000 </r>
       <r>  -68.5896    1.0000 </r>
       <r>  -68.5724    1.0000 </r>
       <r>  -68.5699    1.0000 </r>
       <r>  -68.5541    1.0000 </r>
       <r>  -12.6183    1.0000 </r>
       <r>  -11.4259    1.0000 </r>
       <r>  -10.7791    1.0000 </r>
       <r>  -10.6090    1.0000 </r>
       <r>  -10.2496    1.0000 </r>
       <r>  -10.2370    1.0000 </r>
       <r>   -5.8317    1.0000 </r>
       <r>   -5.0474    1.0000 </r>
       <r>   -2.6012    1.0000 </r>
       <r>   -2.3722    1.0000 </r>
       <r>   -1.9616    1.0000 </r>
       <r>   -1.7749    1.0000 </r>
       <r>   -1.4435    1.0000 </r>
       <r>   -1.1248    1.0000 </r>
       <r>   -1.0633    1.0000 </r>
       <r>   -0.7724    1.0000 </r>
       <r>   -0.4737    1.0000 </r>
       <r>   -0.2940    1.0000 </r>
       <r>   -0.2381    1.0000 </r>
       <r>   -0.2316    1.0000 </r>
       <r>   -0.1892    1.0000 </r>
       <r>   -0.1453    1.0000 </r>
       <r>   -0.0210    1.0000 </r>
       <r>    0.0230    1.0000 </r>
       <r>    1.3337    1.0000 </r>
       <r>    1.3820    1.0000 </r>
       <r>    1.4176    1.0000 </r>
       <r>    1.4394    1.0000 </r>
       <r>    1.4606    1.0000 </r>
       <r>    1.4692    1.0000 </r>
       <r>    1.5150    1.0000 </r>
       <r>    1.5453    1.0000 </r>
       <r>    1.6328    1.0000 </r>
       <r>    1.7601    1.0000 </r>
       <r>    1.7878    1.0000 </r>
       <r>    1.9513    1.0000 </r>
       <r>    2.0886    1.0000 </r>
       <r>    2.6597    1.0000 </r>
       <r>    2.7187    1.0000 </r>
       <r>    3.1930    1.0000 </r>
       <r>    3.2503    1.0000 </r>
       <r>    3.5205    1.0000 </r>
       <r>    3.8952    1.0000 </r>
       <r>    3.9765    1.0014 </r>
       <r>    6.0459   -0.0000 </r>
       <r>    6.4175   -0.0000 </r>
       <r>    7.8281    0.0000 </r>
       <r>    7.9050    0.0000 </r>
       <r>    8.3625    0.0000 </r>
       <r>    8.8161    0.0000 </r>
       <r>    9.7734    0.0000 </r>
       <r>    9.7955    0.0000 </r>
       <r>   10.0634    0.0000 </r>
       <r>   10.5901    0.0000 </r>
       <r>   10.6475    0.0000 </r>
       <r>   10.8177    0.0000 </r>
       <r>   10.8562    0.0000 </r>
       <r>   11.4952    0.0000 </r>
       <r>   11.5553    0.0000 </r>
       <r>   12.0226    0.0000 </r>
       <r>   12.5837    0.0000 </r>
       <r>   12.7755    0.0000 </r>
       <r>   12.9104    0.0000 </r>
       <r>   13.2031    0.0000 </r>
       <r>   13.5329    0.0000 </r>
       <r>   13.8239    0.0000 </r>
       <r>   14.1992    0.0000 </r>
       <r>   14.7053    0.0000 </r>
      </set>
      <set comment="kpoint 12">
       <r>  -68.6463    1.0000 </r>
       <r>  -68.6435    1.0000 </r>
       <r>  -68.6387    1.0000 </r>
       <r>  -68.6276    1.0000 </r>
       <r>  -68.6142    1.0000 </r>
       <r>  -68.6082    1.0000 </r>
       <r>  -68.5969    1.0000 </r>
       <r>  -68.5902    1.0000 </r>
       <r>  -68.5896    1.0000 </r>
       <r>  -68.5724    1.0000 </r>
       <r>  -68.5699    1.0000 </r>
       <r>  -68.5540    1.0000 </r>
       <r>  -12.4592    1.0000 </r>
       <r>  -11.4673    1.0000 </r>
       <r>  -10.8656    1.0000 </r>
       <r>  -10.6895    1.0000 </r>
       <r>  -10.3733    1.0000 </r>
       <r>  -10.2446    1.0000 </r>
       <r>   -5.7669    1.0000 </r>
       <r>   -4.8040    1.0000 </r>
       <r>   -2.4476    1.0000 </r>
       <r>   -2.2317    1.0000 </r>
       <r>   -1.8501    1.0000 </r>
       <r>   -1.7131    1.0000 </r>
       <r>   -1.4314    1.0000 </r>
       <r>   -1.1912    1.0000 </r>
       <r>   -0.8942    1.0000 </r>
       <r>   -0.7450    1.0000 </r>
       <r>   -0.6070    1.0000 </r>
       <r>   -0.5222    1.0000 </r>
       <r>   -0.3111    1.0000 </r>
       <r>   -0.2443    1.0000 </r>
       <r>   -0.1701    1.0000 </r>
       <r>   -0.1193    1.0000 </r>
       <r>   -0.0524    1.0000 </r>
       <r>    0.0587    1.0000 </r>
       <r>    1.3034    1.0000 </r>
       <r>    1.3353    1.0000 </r>
       <r>    1.3694    1.0000 </r>
       <r>    1.4347    1.0000 </r>
       <r>    1.4457    1.0000 </r>
       <r>    1.4806    1.0000 </r>
       <r>    1.5190    1.0000 </r>
       <r>    1.5477    1.0000 </r>
       <r>    1.6412    1.0000 </r>
       <r>    1.8677    1.0000 </r>
       <r>    1.9824    1.0000 </r>
       <r>    2.0474    1.0000 </r>
       <r>    2.1948    1.0000 </r>
       <r>    2.4753    1.0000 </r>
       <r>    2.5948    1.0000 </r>
       <r>    2.8391    1.0000 </r>
       <r>    2.9623    1.0000 </r>
       <r>    3.1320    1.0000 </r>
       <r>    3.5678    1.0000 </r>
       <r>    3.7259    1.0000 </r>
       <r>    6.4424   -0.0000 </r>
       <r>    6.9588    0.0000 </r>
       <r>    8.1748    0.0000 </r>
       <r>    8.2478    0.0000 </r>
       <r>    8.8287    0.0000 </r>
       <r>    9.1292    0.0000 </r>
       <r>    9.4679    0.0000 </r>
       <r>    9.7945    0.0000 </r>
       <r>   10.0859    0.0000 </r>
       <r>   10.2983    0.0000 </r>
       <r>   10.7409    0.0000 </r>
       <r>   11.0742    0.0000 </r>
       <r>   11.2914    0.0000 </r>
       <r>   11.4181    0.0000 </r>
       <r>   11.6333    0.0000 </r>
       <r>   11.7216    0.0000 </r>
       <r>   12.0873    0.0000 </r>
       <r>   12.2694    0.0000 </r>
       <r>   12.5416    0.0000 </r>
       <r>   12.6588    0.0000 </r>
       <r>   12.9560    0.0000 </r>
       <r>   13.0613    0.0000 </r>
       <r>   13.6389    0.0000 </r>
       <r>   14.6916    0.0000 </r>
      </set>
      <set comment="kpoint 13">
       <r>  -68.6460    1.0000 </r>
       <r>  -68.6436    1.0000 </r>
       <r>  -68.6386    1.0000 </r>
       <r>  -68.6275    1.0000 </r>
       <r>  -68.6141    1.0000 </r>
       <r>  -68.6080    1.0000 </r>
       <r>  -68.5968    1.0000 </r>
       <r>  -68.5901    1.0000 </r>
       <r>  -68.5895    1.0000 </r>
       <r>  -68.5722    1.0000 </r>
       <r>  -68.5698    1.0000 </r>
       <r>  -68.5539    1.0000 </r>
       <r>  -12.3570    1.0000 </r>
       <r>  -11.4146    1.0000 </r>
       <r>  -10.9535    1.0000 </r>
       <r>  -10.6853    1.0000 </r>
       <r>  -10.4774    1.0000 </r>
       <r>  -10.3340    1.0000 </r>
       <r>   -5.7523    1.0000 </r>
       <r>   -4.7223    1.0000 </r>
       <r>   -2.5231    1.0000 </r>
       <r>   -2.1849    1.0000 </r>
       <r>   -1.9535    1.0000 </r>
       <r>   -1.5342    1.0000 </r>
       <r>   -1.3041    1.0000 </r>
       <r>   -1.0963    1.0000 </r>
       <r>   -0.8692    1.0000 </r>
       <r>   -0.7587    1.0000 </r>
       <r>   -0.5486    1.0000 </r>
       <r>   -0.4494    1.0000 </r>
       <r>   -0.2879    1.0000 </r>
       <r>   -0.1784    1.0000 </r>
       <r>   -0.1430    1.0000 </r>
       <r>   -0.1046    1.0000 </r>
       <r>   -0.0449    1.0000 </r>
       <r>    0.0205    1.0000 </r>
       <r>    1.2748    1.0000 </r>
       <r>    1.2976    1.0000 </r>
       <r>    1.3510    1.0000 </r>
       <r>    1.4291    1.0000 </r>
       <r>    1.4513    1.0000 </r>
       <r>    1.4816    1.0000 </r>
       <r>    1.5023    1.0000 </r>
       <r>    1.5862    1.0000 </r>
       <r>    1.7180    1.0000 </r>
       <r>    1.9295    1.0000 </r>
       <r>    2.0790    1.0000 </r>
       <r>    2.1447    1.0000 </r>
       <r>    2.2697    1.0000 </r>
       <r>    2.4056    1.0000 </r>
       <r>    2.5689    1.0000 </r>
       <r>    2.5962    1.0000 </r>
       <r>    2.8965    1.0000 </r>
       <r>    3.0106    1.0000 </r>
       <r>    3.3601    1.0000 </r>
       <r>    3.9012    1.0000 </r>
       <r>    6.3645   -0.0000 </r>
       <r>    6.8969   -0.0000 </r>
       <r>    7.5774    0.0000 </r>
       <r>    8.0872    0.0000 </r>
       <r>    8.5445    0.0000 </r>
       <r>    8.7960    0.0000 </r>
       <r>    9.2769    0.0000 </r>
       <r>    9.6289    0.0000 </r>
       <r>    9.9348    0.0000 </r>
       <r>   10.2750    0.0000 </r>
       <r>   10.6607    0.0000 </r>
       <r>   10.9254    0.0000 </r>
       <r>   10.9715    0.0000 </r>
       <r>   11.2780    0.0000 </r>
       <r>   11.5189    0.0000 </r>
       <r>   11.7894    0.0000 </r>
       <r>   12.2475    0.0000 </r>
       <r>   12.5534    0.0000 </r>
       <r>   13.0941    0.0000 </r>
       <r>   13.5180    0.0000 </r>
       <r>   14.2953    0.0000 </r>
       <r>   14.5648    0.0000 </r>
       <r>   15.1251    0.0000 </r>
       <r>   16.2635    0.0000 </r>
      </set>
      <set comment="kpoint 14">
       <r>  -68.6464    1.0000 </r>
       <r>  -68.6435    1.0000 </r>
       <r>  -68.6388    1.0000 </r>
       <r>  -68.6276    1.0000 </r>
       <r>  -68.6142    1.0000 </r>
       <r>  -68.6081    1.0000 </r>
       <r>  -68.5969    1.0000 </r>
       <r>  -68.5902    1.0000 </r>
       <r>  -68.5896    1.0000 </r>
       <r>  -68.5724    1.0000 </r>
       <r>  -68.5699    1.0000 </r>
       <r>  -68.5541    1.0000 </r>
       <r>  -12.5420    1.0000 </r>
       <r>  -11.3384    1.0000 </r>
       <r>  -10.8738    1.0000 </r>
       <r>  -10.6062    1.0000 </r>
       <r>  -10.3982    1.0000 </r>
       <r>  -10.2831    1.0000 </r>
       <r>   -5.8255    1.0000 </r>
       <r>   -4.9754    1.0000 </r>
       <r>   -2.6651    1.0000 </r>
       <r>   -2.4547    1.0000 </r>
       <r>   -2.0386    1.0000 </r>
       <r>   -1.5762    1.0000 </r>
       <r>   -1.1687    1.0000 </r>
       <r>   -0.9830    1.0000 </r>
       <r>   -0.7938    1.0000 </r>
       <r>   -0.6553    1.0000 </r>
       <r>   -0.5165    1.0000 </r>
       <r>   -0.3880    1.0000 </r>
       <r>   -0.2705    1.0000 </r>
       <r>   -0.2538    1.0000 </r>
       <r>   -0.1959    1.0000 </r>
       <r>   -0.1408    1.0000 </r>
       <r>   -0.0470    1.0000 </r>
       <r>    0.0121    1.0000 </r>
       <r>    1.2919    1.0000 </r>
       <r>    1.3093    1.0000 </r>
       <r>    1.3919    1.0000 </r>
       <r>    1.4056    1.0000 </r>
       <r>    1.4347    1.0000 </r>
       <r>    1.4535    1.0000 </r>
       <r>    1.4928    1.0000 </r>
       <r>    1.5668    1.0000 </r>
       <r>    1.6882    1.0000 </r>
       <r>    1.9162    1.0000 </r>
       <r>    1.9875    1.0000 </r>
       <r>    2.1457    1.0000 </r>
       <r>    2.3352    1.0000 </r>
       <r>    2.5642    1.0000 </r>
       <r>    2.6184    1.0000 </r>
       <r>    2.8299    1.0000 </r>
       <r>    2.9692    1.0000 </r>
       <r>    3.2476    1.0000 </r>
       <r>    3.6851    1.0000 </r>
       <r>    3.9452    1.0003 </r>
       <r>    6.1766   -0.0000 </r>
       <r>    6.6347   -0.0000 </r>
       <r>    7.7691    0.0000 </r>
       <r>    7.9746    0.0000 </r>
       <r>    8.2124    0.0000 </r>
       <r>    8.5602    0.0000 </r>
       <r>    9.3796    0.0000 </r>
       <r>    9.5781    0.0000 </r>
       <r>    9.9127    0.0000 </r>
       <r>   10.2524    0.0000 </r>
       <r>   10.5452    0.0000 </r>
       <r>   10.7901    0.0000 </r>
       <r>   10.8398    0.0000 </r>
       <r>   11.0671    0.0000 </r>
       <r>   11.5605    0.0000 </r>
       <r>   12.0196    0.0000 </r>
       <r>   12.5275    0.0000 </r>
       <r>   12.7502    0.0000 </r>
       <r>   12.9572    0.0000 </r>
       <r>   13.3117    0.0000 </r>
       <r>   13.4226    0.0000 </r>
       <r>   13.7390    0.0000 </r>
       <r>   13.8406    0.0000 </r>
       <r>   14.7289    0.0000 </r>
      </set>
      <set comment="kpoint 15">
       <r>  -68.6463    1.0000 </r>
       <r>  -68.6435    1.0000 </r>
       <r>  -68.6387    1.0000 </r>
       <r>  -68.6276    1.0000 </r>
       <r>  -68.6142    1.0000 </r>
       <r>  -68.6081    1.0000 </r>
       <r>  -68.5969    1.0000 </r>
       <r>  -68.5902    1.0000 </r>
       <r>  -68.5896    1.0000 </r>
       <r>  -68.5724    1.0000 </r>
       <r>  -68.5699    1.0000 </r>
       <r>  -68.5540    1.0000 </r>
       <r>  -12.4591    1.0000 </r>
       <r>  -11.4676    1.0000 </r>
       <r>  -10.8643    1.0000 </r>
       <r>  -10.6910    1.0000 </r>
       <r>  -10.3721    1.0000 </r>
       <r>  -10.2454    1.0000 </r>
       <r>   -5.7670    1.0000 </r>
       <r>   -4.8039    1.0000 </r>
       <r>   -2.4453    1.0000 </r>
       <r>   -2.2344    1.0000 </r>
       <r>   -1.8493    1.0000 </r>
       <r>   -1.7132    1.0000 </r>
       <r>   -1.4324    1.0000 </r>
       <r>   -1.1933    1.0000 </r>
       <r>   -0.8905    1.0000 </r>
       <r>   -0.7453    1.0000 </r>
       <r>   -0.6043    1.0000 </r>
       <r>   -0.5243    1.0000 </r>
       <r>   -0.3078    1.0000 </r>
       <r>   -0.2419    1.0000 </r>
       <r>   -0.1731    1.0000 </r>
       <r>   -0.1207    1.0000 </r>
       <r>   -0.0573    1.0000 </r>
       <r>    0.0613    1.0000 </r>
       <r>    1.3021    1.0000 </r>
       <r>    1.3383    1.0000 </r>
       <r>    1.3707    1.0000 </r>
       <r>    1.4270    1.0000 </r>
       <r>    1.4475    1.0000 </r>
       <r>    1.4781    1.0000 </r>
       <r>    1.5229    1.0000 </r>
       <r>    1.5450    1.0000 </r>
       <r>    1.6441    1.0000 </r>
       <r>    1.8742    1.0000 </r>
       <r>    1.9725    1.0000 </r>
       <r>    2.0501    1.0000 </r>
       <r>    2.1961    1.0000 </r>
       <r>    2.4764    1.0000 </r>
       <r>    2.5934    1.0000 </r>
       <r>    2.8399    1.0000 </r>
       <r>    2.9647    1.0000 </r>
       <r>    3.1316    1.0000 </r>
       <r>    3.5680    1.0000 </r>
       <r>    3.7239    1.0000 </r>
       <r>    6.4423   -0.0000 </r>
       <r>    6.9591    0.0000 </r>
       <r>    8.1719    0.0000 </r>
       <r>    8.2499    0.0000 </r>
       <r>    8.8328    0.0000 </r>
       <r>    9.1272    0.0000 </r>
       <r>    9.4624    0.0000 </r>
       <r>    9.7985    0.0000 </r>
       <r>   10.0876    0.0000 </r>
       <r>   10.2996    0.0000 </r>
       <r>   10.7363    0.0000 </r>
       <r>   11.0788    0.0000 </r>
       <r>   11.2903    0.0000 </r>
       <r>   11.4204    0.0000 </r>
       <r>   11.6298    0.0000 </r>
       <r>   11.7269    0.0000 </r>
       <r>   12.0824    0.0000 </r>
       <r>   12.2645    0.0000 </r>
       <r>   12.5417    0.0000 </r>
       <r>   12.6614    0.0000 </r>
       <r>   12.9534    0.0000 </r>
       <r>   13.0591    0.0000 </r>
       <r>   13.6583    0.0000 </r>
       <r>   14.6964    0.0000 </r>
      </set>
      <set comment="kpoint 16">
       <r>  -68.6462    1.0000 </r>
       <r>  -68.6434    1.0000 </r>
       <r>  -68.6386    1.0000 </r>
       <r>  -68.6274    1.0000 </r>
       <r>  -68.6141    1.0000 </r>
       <r>  -68.6080    1.0000 </r>
       <r>  -68.5968    1.0000 </r>
       <r>  -68.5900    1.0000 </r>
       <r>  -68.5895    1.0000 </r>
       <r>  -68.5722    1.0000 </r>
       <r>  -68.5698    1.0000 </r>
       <r>  -68.5539    1.0000 </r>
       <r>  -12.3274    1.0000 </r>
       <r>  -11.4764    1.0000 </r>
       <r>  -10.8643    1.0000 </r>
       <r>  -10.8569    1.0000 </r>
       <r>  -10.4061    1.0000 </r>
       <r>  -10.2868    1.0000 </r>
       <r>   -5.7486    1.0000 </r>
       <r>   -4.6916    1.0000 </r>
       <r>   -2.2422    1.0000 </r>
       <r>   -2.1391    1.0000 </r>
       <r>   -1.9291    1.0000 </r>
       <r>   -1.8500    1.0000 </r>
       <r>   -1.4540    1.0000 </r>
       <r>   -1.3953    1.0000 </r>
       <r>   -1.0410    1.0000 </r>
       <r>   -0.5201    1.0000 </r>
       <r>   -0.4624    1.0000 </r>
       <r>   -0.3498    1.0000 </r>
       <r>   -0.2486    1.0000 </r>
       <r>   -0.2176    1.0000 </r>
       <r>   -0.1595    1.0000 </r>
       <r>   -0.1132    1.0000 </r>
       <r>   -0.0853    1.0000 </r>
       <r>    0.0776    1.0000 </r>
       <r>    1.2613    1.0000 </r>
       <r>    1.3477    1.0000 </r>
       <r>    1.3970    1.0000 </r>
       <r>    1.4354    1.0000 </r>
       <r>    1.4537    1.0000 </r>
       <r>    1.5103    1.0000 </r>
       <r>    1.5360    1.0000 </r>
       <r>    1.5458    1.0000 </r>
       <r>    1.7529    1.0000 </r>
       <r>    1.8186    1.0000 </r>
       <r>    2.0400    1.0000 </r>
       <r>    2.1337    1.0000 </r>
       <r>    2.2850    1.0000 </r>
       <r>    2.3096    1.0000 </r>
       <r>    2.5216    1.0000 </r>
       <r>    2.7669    1.0000 </r>
       <r>    2.9002    1.0000 </r>
       <r>    3.2627    1.0000 </r>
       <r>    3.4967    1.0000 </r>
       <r>    3.8018    1.0000 </r>
       <r>    6.1833   -0.0000 </r>
       <r>    6.8428   -0.0000 </r>
       <r>    7.8281    0.0000 </r>
       <r>    8.0461    0.0000 </r>
       <r>    8.1876    0.0000 </r>
       <r>    8.7297    0.0000 </r>
       <r>    9.1540    0.0000 </r>
       <r>    9.3070    0.0000 </r>
       <r>   10.2189    0.0000 </r>
       <r>   10.4361    0.0000 </r>
       <r>   10.5935    0.0000 </r>
       <r>   11.0090    0.0000 </r>
       <r>   11.2352    0.0000 </r>
       <r>   11.4925    0.0000 </r>
       <r>   11.8095    0.0000 </r>
       <r>   12.1700    0.0000 </r>
       <r>   12.2058    0.0000 </r>
       <r>   12.5773    0.0000 </r>
       <r>   12.6900    0.0000 </r>
       <r>   13.1103    0.0000 </r>
       <r>   13.4164    0.0000 </r>
       <r>   13.8811    0.0000 </r>
       <r>   14.0042    0.0000 </r>
       <r>   14.5295    0.0000 </r>
      </set>
      <set comment="kpoint 17">
       <r>  -68.6460    1.0000 </r>
       <r>  -68.6436    1.0000 </r>
       <r>  -68.6385    1.0000 </r>
       <r>  -68.6276    1.0000 </r>
       <r>  -68.6140    1.0000 </r>
       <r>  -68.6080    1.0000 </r>
       <r>  -68.5968    1.0000 </r>
       <r>  -68.5901    1.0000 </r>
       <r>  -68.5895    1.0000 </r>
       <r>  -68.5722    1.0000 </r>
       <r>  -68.5698    1.0000 </r>
       <r>  -68.5539    1.0000 </r>
       <r>  -12.3742    1.0000 </r>
       <r>  -11.4748    1.0000 </r>
       <r>  -10.9371    1.0000 </r>
       <r>  -10.6539    1.0000 </r>
       <r>  -10.4185    1.0000 </r>
       <r>  -10.3046    1.0000 </r>
       <r>   -5.8018    1.0000 </r>
       <r>   -4.8371    1.0000 </r>
       <r>   -2.5261    1.0000 </r>
       <r>   -2.2442    1.0000 </r>
       <r>   -1.8710    1.0000 </r>
       <r>   -1.6422    1.0000 </r>
       <r>   -1.5052    1.0000 </r>
       <r>   -1.3067    1.0000 </r>
       <r>   -0.9037    1.0000 </r>
       <r>   -0.5329    1.0000 </r>
       <r>   -0.3761    1.0000 </r>
       <r>   -0.3481    1.0000 </r>
       <r>   -0.2242    1.0000 </r>
       <r>   -0.1787    1.0000 </r>
       <r>   -0.1622    1.0000 </r>
       <r>   -0.0788    1.0000 </r>
       <r>   -0.0250    1.0000 </r>
       <r>    0.0772    1.0000 </r>
       <r>    1.1886    1.0000 </r>
       <r>    1.3657    1.0000 </r>
       <r>    1.3996    1.0000 </r>
       <r>    1.4404    1.0000 </r>
       <r>    1.4626    1.0000 </r>
       <r>    1.5044    1.0000 </r>
       <r>    1.5207    1.0000 </r>
       <r>    1.5848    1.0000 </r>
       <r>    1.7399    1.0000 </r>
       <r>    1.8219    1.0000 </r>
       <r>    2.0356    1.0000 </r>
       <r>    2.2344    1.0000 </r>
       <r>    2.2714    1.0000 </r>
       <r>    2.3624    1.0000 </r>
       <r>    2.4858    1.0000 </r>
       <r>    2.6716    1.0000 </r>
       <r>    3.0520    1.0000 </r>
       <r>    3.4106    1.0000 </r>
       <r>    3.7314    1.0000 </r>
       <r>    3.8655    1.0000 </r>
       <r>    5.9292   -0.0000 </r>
       <r>    6.6109   -0.0000 </r>
       <r>    7.3537    0.0000 </r>
       <r>    7.9444    0.0000 </r>
       <r>    8.0664    0.0000 </r>
       <r>    8.7234    0.0000 </r>
       <r>    8.9072    0.0000 </r>
       <r>    9.1402    0.0000 </r>
       <r>    9.8475    0.0000 </r>
       <r>   10.3247    0.0000 </r>
       <r>   10.5562    0.0000 </r>
       <r>   10.9242    0.0000 </r>
       <r>   11.2277    0.0000 </r>
       <r>   11.4157    0.0000 </r>
       <r>   11.7489    0.0000 </r>
       <r>   12.0023    0.0000 </r>
       <r>   12.4972    0.0000 </r>
       <r>   12.8332    0.0000 </r>
       <r>   13.2093    0.0000 </r>
       <r>   14.1912    0.0000 </r>
       <r>   14.7130    0.0000 </r>
       <r>   15.1487    0.0000 </r>
       <r>   15.9105    0.0000 </r>
       <r>   16.5674    0.0000 </r>
      </set>
      <set comment="kpoint 18">
       <r>  -68.6463    1.0000 </r>
       <r>  -68.6436    1.0000 </r>
       <r>  -68.6387    1.0000 </r>
       <r>  -68.6276    1.0000 </r>
       <r>  -68.6141    1.0000 </r>
       <r>  -68.6081    1.0000 </r>
       <r>  -68.5969    1.0000 </r>
       <r>  -68.5902    1.0000 </r>
       <r>  -68.5896    1.0000 </r>
       <r>  -68.5723    1.0000 </r>
       <r>  -68.5698    1.0000 </r>
       <r>  -68.5540    1.0000 </r>
       <r>  -12.5004    1.0000 </r>
       <r>  -11.4262    1.0000 </r>
       <r>  -10.9485    1.0000 </r>
       <r>  -10.5822    1.0000 </r>
       <r>  -10.3748    1.0000 </r>
       <r>  -10.2072    1.0000 </r>
       <r>   -5.8293    1.0000 </r>
       <r>   -4.9407    1.0000 </r>
       <r>   -2.5717    1.0000 </r>
       <r>   -2.3654    1.0000 </r>
       <r>   -1.9171    1.0000 </r>
       <r>   -1.5961    1.0000 </r>
       <r>   -1.4158    1.0000 </r>
       <r>   -1.1196    1.0000 </r>
       <r>   -0.8194    1.0000 </r>
       <r>   -0.6715    1.0000 </r>
       <r>   -0.5324    1.0000 </r>
       <r>   -0.4704    1.0000 </r>
       <r>   -0.2549    1.0000 </r>
       <r>   -0.1912    1.0000 </r>
       <r>   -0.1669    1.0000 </r>
       <r>   -0.1211    1.0000 </r>
       <r>   -0.0400    1.0000 </r>
       <r>    0.0584    1.0000 </r>
       <r>    1.2803    1.0000 </r>
       <r>    1.3235    1.0000 </r>
       <r>    1.3435    1.0000 </r>
       <r>    1.4362    1.0000 </r>
       <r>    1.4497    1.0000 </r>
       <r>    1.4687    1.0000 </r>
       <r>    1.4927    1.0000 </r>
       <r>    1.5593    1.0000 </r>
       <r>    1.7271    1.0000 </r>
       <r>    1.8417    1.0000 </r>
       <r>    1.9703    1.0000 </r>
       <r>    2.1003    1.0000 </r>
       <r>    2.3353    1.0000 </r>
       <r>    2.4503    1.0000 </r>
       <r>    2.5416    1.0000 </r>
       <r>    2.8511    1.0000 </r>
       <r>    3.0505    1.0000 </r>
       <r>    3.2630    1.0000 </r>
       <r>    3.6741    1.0000 </r>
       <r>    3.7829    1.0000 </r>
       <r>    6.2603   -0.0000 </r>
       <r>    6.7980   -0.0000 </r>
       <r>    7.8134    0.0000 </r>
       <r>    8.1379    0.0000 </r>
       <r>    8.3392    0.0000 </r>
       <r>    8.9290    0.0000 </r>
       <r>    9.3397    0.0000 </r>
[...]
       <r>   11.7030    0.0000 </r>
       <r>   11.8894    0.0000 </r>
       <r>   12.3033    0.0000 </r>
       <r>   12.6590    0.0000 </r>
       <r>   13.0091    0.0000 </r>
       <r>   13.2293    0.0000 </r>
       <r>   13.6594    0.0000 </r>
       <r>   14.0761    0.0000 </r>
       <r>   14.3947    0.0000 </r>
       <r>   16.5130    0.0000 </r>
      </set>
      <set comment="kpoint 42">
       <r>  -68.6463    1.0000 </r>
       <r>  -68.6433    1.0000 </r>
       <r>  -68.6387    1.0000 </r>
       <r>  -68.6273    1.0000 </r>
       <r>  -68.6140    1.0000 </r>
       <r>  -68.6081    1.0000 </r>
       <r>  -68.5967    1.0000 </r>
       <r>  -68.5900    1.0000 </r>
       <r>  -68.5895    1.0000 </r>
       <r>  -68.5722    1.0000 </r>
       <r>  -68.5699    1.0000 </r>
       <r>  -68.5540    1.0000 </r>
       <r>  -12.1797    1.0000 </r>
       <r>  -11.7067    1.0000 </r>
       <r>  -10.7169    1.0000 </r>
       <r>  -10.6942    1.0000 </r>
       <r>  -10.5853    1.0000 </r>
       <r>  -10.3923    1.0000 </r>
       <r>   -5.4453    1.0000 </r>
       <r>   -5.0732    1.0000 </r>
       <r>   -2.5088    1.0000 </r>
       <r>   -2.3826    1.0000 </r>
       <r>   -1.9638    1.0000 </r>
       <r>   -1.3657    1.0000 </r>
       <r>   -1.3299    1.0000 </r>
       <r>   -1.0520    1.0000 </r>
       <r>   -0.8339    1.0000 </r>
       <r>   -0.7655    1.0000 </r>
       <r>   -0.4264    1.0000 </r>
       <r>   -0.3392    1.0000 </r>
       <r>   -0.2727    1.0000 </r>
       <r>   -0.2091    1.0000 </r>
       <r>   -0.1416    1.0000 </r>
       <r>   -0.1374    1.0000 </r>
       <r>   -0.0139    1.0000 </r>
       <r>    0.0280    1.0000 </r>
       <r>    1.1730    1.0000 </r>
       <r>    1.3712    1.0000 </r>
       <r>    1.3975    1.0000 </r>
       <r>    1.4527    1.0000 </r>
       <r>    1.4552    1.0000 </r>
       <r>    1.4982    1.0000 </r>
       <r>    1.5183    1.0000 </r>
       <r>    1.5513    1.0000 </r>
       <r>    1.7435    1.0000 </r>
       <r>    1.8214    1.0000 </r>
       <r>    1.9760    1.0000 </r>
       <r>    2.2264    1.0000 </r>
       <r>    2.3968    1.0000 </r>
       <r>    2.6106    1.0000 </r>
       <r>    2.6555    1.0000 </r>
       <r>    2.9174    1.0000 </r>
       <r>    3.0699    1.0000 </r>
       <r>    3.1166    1.0000 </r>
       <r>    3.2866    1.0000 </r>
       <r>    3.5841    1.0000 </r>
       <r>    6.2883   -0.0000 </r>
       <r>    6.3773   -0.0000 </r>
       <r>    7.3620    0.0000 </r>
       <r>    7.5236    0.0000 </r>
       <r>    8.3040    0.0000 </r>
       <r>    8.3336    0.0000 </r>
       <r>    9.1068    0.0000 </r>
       <r>    9.3599    0.0000 </r>
       <r>    9.7186    0.0000 </r>
       <r>    9.9539    0.0000 </r>
       <r>   10.5255    0.0000 </r>
       <r>   10.9888    0.0000 </r>
       <r>   11.4205    0.0000 </r>
       <r>   11.5623    0.0000 </r>
       <r>   12.0163    0.0000 </r>
       <r>   12.2817    0.0000 </r>
       <r>   12.4267    0.0000 </r>
       <r>   12.4821    0.0000 </r>
       <r>   13.0432    0.0000 </r>
       <r>   13.1878    0.0000 </r>
       <r>   14.1527    0.0000 </r>
       <r>   14.4316    0.0000 </r>
       <r>   15.1625    0.0000 </r>
       <r>   15.8671    0.0000 </r>
      </set>
     </set>
    </set>
   </array>
  </eigenvalues>
  <separator name="orbital magnetization" >
   <v name="MAGDIPOLOUT">      0.00000000      0.00000000      0.00000000</v>
  </separator>
  <dos>
   <i name="efermi">      4.22143934 </i>
   <total>
    <array>
     <dimension dim="1">gridpoints</dimension>
     <dimension dim="2">spin</dimension>
     <field>energy</field>
     <field>total</field>
     <field>integrated</field>
     <set>
      <set comment="spin 1">
       <r>   -72.8301     0.0000     0.0000 </r>
       <r>   -72.5238     0.0000     0.0000 </r>
       <r>   -72.2174     0.0000     0.0000 </r>
       <r>   -71.9110     0.0000     0.0000 </r>
       <r>   -71.6046     0.0000     0.0000 </r>
       <r>   -71.2982     0.0000     0.0000 </r>
       <r>   -70.9918     0.0000     0.0000 </r>
       <r>   -70.6855     0.0000     0.0000 </r>
       <r>   -70.3791     0.0000     0.0000 </r>
       <r>   -70.0727     0.0000     0.0000 </r>
       <r>   -69.7663     0.0000     0.0000 </r>
       <r>   -69.4599    -0.0000    -0.0000 </r>
       <r>   -69.1536    -0.0000    -0.0000 </r>
       <r>   -68.8472    -0.2134    -0.0654 </r>
       <r>   -68.5408    70.2812    21.4674 </r>
       <r>   -68.2344     8.2665    24.0001 </r>
       <r>   -67.9280    -0.0004    24.0000 </r>
       <r>   -67.6217     0.0000    24.0000 </r>
       <r>   -67.3153     0.0000    24.0000 </r>
       <r>   -67.0089     0.0000    24.0000 </r>
       <r>   -66.7025     0.0000    24.0000 </r>
       <r>   -66.3961     0.0000    24.0000 </r>
       <r>   -66.0898     0.0000    24.0000 </r>
       <r>   -65.7834     0.0000    24.0000 </r>
       <r>   -65.4770     0.0000    24.0000 </r>
       <r>   -65.1706     0.0000    24.0000 </r>
       <r>   -64.8642     0.0000    24.0000 </r>
       <r>   -64.5578     0.0000    24.0000 </r>
       <r>   -64.2515     0.0000    24.0000 </r>
       <r>   -63.9451     0.0000    24.0000 </r>
       <r>   -63.6387     0.0000    24.0000 </r>
       <r>   -63.3323     0.0000    24.0000 </r>
       <r>   -63.0259     0.0000    24.0000 </r>
       <r>   -62.7196     0.0000    24.0000 </r>
       <r>   -62.4132     0.0000    24.0000 </r>
       <r>   -62.1068     0.0000    24.0000 </r>
       <r>   -61.8004     0.0000    24.0000 </r>
       <r>   -61.4940     0.0000    24.0000 </r>
       <r>   -61.1877     0.0000    24.0000 </r>
       <r>   -60.8813     0.0000    24.0000 </r>
       <r>   -60.5749     0.0000    24.0000 </r>
       <r>   -60.2685     0.0000    24.0000 </r>
       <r>   -59.9621     0.0000    24.0000 </r>
       <r>   -59.6557     0.0000    24.0000 </r>
       <r>   -59.3494     0.0000    24.0000 </r>
       <r>   -59.0430     0.0000    24.0000 </r>
       <r>   -58.7366     0.0000    24.0000 </r>
       <r>   -58.4302     0.0000    24.0000 </r>
       <r>   -58.1238     0.0000    24.0000 </r>
       <r>   -57.8175     0.0000    24.0000 </r>
       <r>   -57.5111     0.0000    24.0000 </r>
       <r>   -57.2047     0.0000    24.0000 </r>
       <r>   -56.8983     0.0000    24.0000 </r>
       <r>   -56.5919     0.0000    24.0000 </r>
       <r>   -56.2856     0.0000    24.0000 </r>
       <r>   -55.9792     0.0000    24.0000 </r>
       <r>   -55.6728     0.0000    24.0000 </r>
       <r>   -55.3664     0.0000    24.0000 </r>
       <r>   -55.0600     0.0000    24.0000 </r>
       <r>   -54.7537     0.0000    24.0000 </r>
       <r>   -54.4473     0.0000    24.0000 </r>
       <r>   -54.1409     0.0000    24.0000 </r>
       <r>   -53.8345     0.0000    24.0000 </r>
       <r>   -53.5281     0.0000    24.0000 </r>
       <r>   -53.2217     0.0000    24.0000 </r>
       <r>   -52.9154     0.0000    24.0000 </r>
       <r>   -52.6090     0.0000    24.0000 </r>
       <r>   -52.3026     0.0000    24.0000 </r>
       <r>   -51.9962     0.0000    24.0000 </r>
       <r>   -51.6898     0.0000    24.0000 </r>
       <r>   -51.3835     0.0000    24.0000 </r>
       <r>   -51.0771     0.0000    24.0000 </r>
       <r>   -50.7707     0.0000    24.0000 </r>
       <r>   -50.4643     0.0000    24.0000 </r>
       <r>   -50.1579     0.0000    24.0000 </r>
       <r>   -49.8516     0.0000    24.0000 </r>
       <r>   -49.5452     0.0000    24.0000 </r>
       <r>   -49.2388     0.0000    24.0000 </r>
       <r>   -48.9324     0.0000    24.0000 </r>
       <r>   -48.6260     0.0000    24.0000 </r>
       <r>   -48.3197     0.0000    24.0000 </r>
       <r>   -48.0133     0.0000    24.0000 </r>
       <r>   -47.7069     0.0000    24.0000 </r>
       <r>   -47.4005     0.0000    24.0000 </r>
       <r>   -47.0941     0.0000    24.0000 </r>
       <r>   -46.7877     0.0000    24.0000 </r>
       <r>   -46.4814     0.0000    24.0000 </r>
       <r>   -46.1750     0.0000    24.0000 </r>
       <r>   -45.8686     0.0000    24.0000 </r>
       <r>   -45.5622     0.0000    24.0000 </r>
       <r>   -45.2558     0.0000    24.0000 </r>
       <r>   -44.9495     0.0000    24.0000 </r>
       <r>   -44.6431     0.0000    24.0000 </r>
       <r>   -44.3367     0.0000    24.0000 </r>
       <r>   -44.0303     0.0000    24.0000 </r>
       <r>   -43.7239     0.0000    24.0000 </r>
       <r>   -43.4176     0.0000    24.0000 </r>
       <r>   -43.1112     0.0000    24.0000 </r>
       <r>   -42.8048     0.0000    24.0000 </r>
       <r>   -42.4984     0.0000    24.0000 </r>
       <r>   -42.1920     0.0000    24.0000 </r>
       <r>   -41.8856     0.0000    24.0000 </r>
       <r>   -41.5793     0.0000    24.0000 </r>
       <r>   -41.2729     0.0000    24.0000 </r>
       <r>   -40.9665     0.0000    24.0000 </r>
       <r>   -40.6601     0.0000    24.0000 </r>
       <r>   -40.3537     0.0000    24.0000 </r>
       <r>   -40.0474     0.0000    24.0000 </r>
       <r>   -39.7410     0.0000    24.0000 </r>
       <r>   -39.4346     0.0000    24.0000 </r>
       <r>   -39.1282     0.0000    24.0000 </r>
       <r>   -38.8218     0.0000    24.0000 </r>
       <r>   -38.5155     0.0000    24.0000 </r>
       <r>   -38.2091     0.0000    24.0000 </r>
       <r>   -37.9027     0.0000    24.0000 </r>
       <r>   -37.5963     0.0000    24.0000 </r>
       <r>   -37.2899     0.0000    24.0000 </r>
       <r>   -36.9836     0.0000    24.0000 </r>
       <r>   -36.6772     0.0000    24.0000 </r>
       <r>   -36.3708     0.0000    24.0000 </r>
       <r>   -36.0644     0.0000    24.0000 </r>
       <r>   -35.7580     0.0000    24.0000 </r>
       <r>   -35.4516     0.0000    24.0000 </r>
       <r>   -35.1453     0.0000    24.0000 </r>
       <r>   -34.8389     0.0000    24.0000 </r>
       <r>   -34.5325     0.0000    24.0000 </r>
       <r>   -34.2261     0.0000    24.0000 </r>
       <r>   -33.9197     0.0000    24.0000 </r>
       <r>   -33.6134     0.0000    24.0000 </r>
       <r>   -33.3070     0.0000    24.0000 </r>
       <r>   -33.0006     0.0000    24.0000 </r>
       <r>   -32.6942     0.0000    24.0000 </r>
       <r>   -32.3878     0.0000    24.0000 </r>
       <r>   -32.0815     0.0000    24.0000 </r>
       <r>   -31.7751     0.0000    24.0000 </r>
       <r>   -31.4687     0.0000    24.0000 </r>
       <r>   -31.1623     0.0000    24.0000 </r>
       <r>   -30.8559     0.0000    24.0000 </r>
       <r>   -30.5496     0.0000    24.0000 </r>
       <r>   -30.2432     0.0000    24.0000 </r>
       <r>   -29.9368     0.0000    24.0000 </r>
       <r>   -29.6304     0.0000    24.0000 </r>
       <r>   -29.3240     0.0000    24.0000 </r>
       <r>   -29.0176     0.0000    24.0000 </r>
       <r>   -28.7113     0.0000    24.0000 </r>
       <r>   -28.4049     0.0000    24.0000 </r>
       <r>   -28.0985     0.0000    24.0000 </r>
       <r>   -27.7921     0.0000    24.0000 </r>
       <r>   -27.4857     0.0000    24.0000 </r>
       <r>   -27.1794     0.0000    24.0000 </r>
       <r>   -26.8730     0.0000    24.0000 </r>
       <r>   -26.5666     0.0000    24.0000 </r>
       <r>   -26.2602     0.0000    24.0000 </r>
       <r>   -25.9538     0.0000    24.0000 </r>
       <r>   -25.6475     0.0000    24.0000 </r>
       <r>   -25.3411     0.0000    24.0000 </r>
       <r>   -25.0347     0.0000    24.0000 </r>
       <r>   -24.7283     0.0000    24.0000 </r>
       <r>   -24.4219     0.0000    24.0000 </r>
       <r>   -24.1155     0.0000    24.0000 </r>
       <r>   -23.8092     0.0000    24.0000 </r>
       <r>   -23.5028     0.0000    24.0000 </r>
       <r>   -23.1964     0.0000    24.0000 </r>
       <r>   -22.8900     0.0000    24.0000 </r>
       <r>   -22.5836     0.0000    24.0000 </r>
       <r>   -22.2773     0.0000    24.0000 </r>
       <r>   -21.9709     0.0000    24.0000 </r>
       <r>   -21.6645     0.0000    24.0000 </r>
       <r>   -21.3581     0.0000    24.0000 </r>
       <r>   -21.0517     0.0000    24.0000 </r>
       <r>   -20.7454     0.0000    24.0000 </r>
       <r>   -20.4390     0.0000    24.0000 </r>
       <r>   -20.1326     0.0000    24.0000 </r>
       <r>   -19.8262     0.0000    24.0000 </r>
       <r>   -19.5198     0.0000    24.0000 </r>
       <r>   -19.2135     0.0000    24.0000 </r>
       <r>   -18.9071     0.0000    24.0000 </r>
       <r>   -18.6007     0.0000    24.0000 </r>
       <r>   -18.2943     0.0000    24.0000 </r>
       <r>   -17.9879     0.0000    24.0000 </r>
       <r>   -17.6815     0.0000    24.0000 </r>
       <r>   -17.3752     0.0000    24.0000 </r>
       <r>   -17.0688     0.0000    24.0000 </r>
       <r>   -16.7624     0.0000    24.0000 </r>
       <r>   -16.4560     0.0000    24.0000 </r>
       <r>   -16.1496     0.0000    24.0000 </r>
       <r>   -15.8433     0.0000    24.0000 </r>
       <r>   -15.5369     0.0000    24.0000 </r>
       <r>   -15.2305     0.0000    24.0000 </r>
       <r>   -14.9241     0.0000    24.0000 </r>
       <r>   -14.6177     0.0000    24.0000 </r>
       <r>   -14.3114     0.0000    24.0000 </r>
       <r>   -14.0050     0.0000    24.0000 </r>
       <r>   -13.6986    -0.0000    24.0000 </r>
       <r>   -13.3922    -0.0000    24.0000 </r>
       <r>   -13.0858    -0.0000    24.0000 </r>
       <r>   -12.7795    -0.0039    23.9988 </r>
       <r>   -12.4731     1.5548    24.4752 </r>
       <r>   -12.1667     3.5692    25.5687 </r>
       <r>   -11.8603     1.9058    26.1526 </r>
       <r>   -11.5539     2.1452    26.8099 </r>
       <r>   -11.2475     3.1921    27.7879 </r>
       <r>   -10.9412     2.5559    28.5710 </r>
       <r>   -10.6348     9.3048    31.4218 </r>
       <r>   -10.3284     9.3518    34.2870 </r>
       <r>   -10.0220     5.6093    36.0056 </r>
       <r>    -9.7156    -0.0182    36.0000 </r>
       <r>    -9.4093    -0.0000    36.0000 </r>
       <r>    -9.1029     0.0000    36.0000 </r>
       <r>    -8.7965     0.0000    36.0000 </r>
       <r>    -8.4901     0.0000    36.0000 </r>
       <r>    -8.1837     0.0000    36.0000 </r>
       <r>    -7.8774     0.0000    36.0000 </r>
       <r>    -7.5710     0.0000    36.0000 </r>
       <r>    -7.2646     0.0000    36.0000 </r>
       <r>    -6.9582    -0.0000    36.0000 </r>
       <r>    -6.6518    -0.0000    36.0000 </r>
       <r>    -6.3454    -0.0000    36.0000 </r>
       <r>    -6.0391     0.0585    36.0179 </r>
       <r>    -5.7327     3.4942    37.0885 </r>
       <r>    -5.4263     2.0512    37.7169 </r>
       <r>    -5.1199     1.8728    38.2907 </r>
       <r>    -4.8135     3.3054    39.3034 </r>
       <r>    -4.5072     2.2079    39.9799 </r>
       <r>    -4.2008     0.0657    40.0000 </r>
       <r>    -3.8944    -0.0000    40.0000 </r>
       <r>    -3.5880    -0.0000    40.0000 </r>
       <r>    -3.2816    -0.0000    40.0000 </r>
       <r>    -2.9753    -0.0004    39.9999 </r>
       <r>    -2.6689     0.3847    40.1177 </r>
       <r>    -2.3625     6.1487    42.0016 </r>
       <r>    -2.0561     6.6995    44.0542 </r>
       <r>    -1.7497     7.3347    46.3014 </r>
       <r>    -1.4434     6.4198    48.2683 </r>
       <r>    -1.1370     8.7393    50.9459 </r>
       <r>    -0.8306     9.0945    53.7322 </r>
       <r>    -0.5242    11.3518    57.2102 </r>
       <r>    -0.2178    18.1208    62.7621 </r>
       <r>     0.0886    29.0339    71.6575 </r>
       <r>     0.3949     1.1185    72.0002 </r>
       <r>     0.7013    -0.0006    72.0000 </r>
       <r>     1.0077    -0.0205    71.9937 </r>
       <r>     1.3141     7.3877    74.2571 </r>
       <r>     1.6205    44.8655    88.0031 </r>
       <r>     1.9268    13.8009    92.2314 </r>
       <r>     2.2332    13.1655    96.2651 </r>
       <r>     2.5396    12.8502   100.2021 </r>
       <r>     2.8460    11.1750   103.6260 </r>
       <r>     3.1524     9.0706   106.4050 </r>
       <r>     3.4587     7.9086   108.8281 </r>
       <r>     3.7651     6.9303   110.9514 </r>
       <r>     4.0715     3.1748   111.9241 </r>
       <r>     4.3779     0.2483   112.0002 </r>
       <r>     4.6843    -0.0006   112.0000 </r>
       <r>     4.9907    -0.0000   112.0000 </r>
       <r>     5.2970    -0.0001   112.0000 </r>
       <r>     5.6034     0.0775   112.0237 </r>
       <r>     5.9098     0.1799   112.0788 </r>
       <r>     6.2162     2.6476   112.8900 </r>
       <r>     6.5226     4.3694   114.2287 </r>
       <r>     6.8289     3.4228   115.2774 </r>
       <r>     7.1353     2.4190   116.0185 </r>
       <r>     7.4417     1.4112   116.4509 </r>
       <r>     7.7481     3.1864   117.4271 </r>
       <r>     8.0545     5.5520   119.1281 </r>
       <r>     8.3608     5.5906   120.8410 </r>
       <r>     8.6672     4.6050   122.2519 </r>
       <r>     8.9736     4.4510   123.6156 </r>
       <r>     9.2800     5.6096   125.3343 </r>
       <r>     9.5864     5.6863   127.0764 </r>
       <r>     9.8927     4.7832   128.5419 </r>
       <r>    10.1991     4.4516   129.9058 </r>
       <r>    10.5055     6.4938   131.8954 </r>
       <r>    10.8119     8.2627   134.4269 </r>
       <r>    11.1183     8.3037   136.9710 </r>
       <r>    11.4247     7.9557   139.4085 </r>
       <r>    11.7310     7.9139   141.8332 </r>
       <r>    12.0374     6.5828   143.8500 </r>
       <r>    12.3438     5.8685   145.6480 </r>
       <r>    12.6502     6.6104   147.6733 </r>
       <r>    12.9566     5.8095   149.4533 </r>
       <r>    13.2629     6.1790   151.3464 </r>
       <r>    13.5693     5.3787   152.9943 </r>
       <r>    13.8757     4.0926   154.2482 </r>
       <r>    14.1821     3.1483   155.2128 </r>
       <r>    14.4885     4.5844   156.6174 </r>
       <r>    14.7948     3.4655   157.6791 </r>
       <r>    15.1012     1.4224   158.1149 </r>
       <r>    15.4076     1.5853   158.6006 </r>
       <r>    15.7140     1.2194   158.9742 </r>
       <r>    16.0204     1.6915   159.4925 </r>
       <r>    16.3267     0.3314   159.5940 </r>
       <r>    16.6331     0.6865   159.8043 </r>
       <r>    16.9395     0.5125   159.9614 </r>
       <r>    17.2459     0.1262   160.0000 </r>
       <r>    17.5523    -0.0000   160.0000 </r>
       <r>    17.8587     0.0000   160.0000 </r>
       <r>    18.1650     0.0000   160.0000 </r>
       <r>    18.4714     0.0000   160.0000 </r>
       <r>    18.7778     0.0000   160.0000 </r>
       <r>    19.0842     0.0000   160.0000 </r>
      </set>
     </set>
    </array>
   </total>
  </dos>
 </calculation>
 <structure name="finalpos" >
  <crystal>
   <varray name="basis" >
    <v>       3.22479600      -5.64383000       0.03157200 </v>
    <v>       3.22479600       5.64383000       0.03157200 </v>
    <v>      -2.10194600       0.00000000       6.07553700 </v>
   </varray>
   <i name="volume">    221.90106089 </i>
   <varray name="rec_basis" >
    <v>       0.15452516      -0.08859232       0.05346088 </v>
    <v>       0.15452516       0.08859232       0.05346088 </v>
    <v>      -0.00160600       0.00000000       0.16403888 </v>
   </varray>
  </crystal>
  <varray name="positions" >
   <v>       0.61844300       0.12117100       0.11953300 </v>
   <v>       0.12117100       0.61844300       0.61953300 </v>
   <v>       0.96295700       0.79032200       0.11881300 </v>
   <v>       0.79032200       0.96295700       0.61881300 </v>
   <v>       0.43973200       0.26728100       0.59904700 </v>
   <v>       0.26728100       0.43973200       0.09904700 </v>
   <v>       0.07949800       0.91167500       0.49580752 </v>
   <v>       0.57140300       0.41236400       0.98018400 </v>
   <v>       0.73711100       0.25006200       0.49504900 </v>
   <v>       0.41236400       0.57140300       0.48018400 </v>
   <v>       0.91167500       0.07949800       0.99736300 </v>
   <v>       0.25006200       0.73711100       0.99504900 </v>
  </varray>
 </structure>
</modeling>
