   12   12    1    1
  0.1849176E+02  0.6500240E-09  0.6500240E-09  0.6428867E-09  0.5000000E-15
  1.000000000000000E-004
  CAR 
 CGS                                     
  112   42   80
 
  0.0000000E+00  0.0000000E+00  0.0000000E+00  0.1250000E-01
   1      -68.645108
   2      -68.637287
   3      -68.635785
   4      -68.633925
   5      -68.613113
   6      -68.605121
   7      -68.595720
   8      -68.587634
   9      -68.582132
  10      -68.578243
  11      -68.565571
  12      -68.561396
  13      -12.722951
  14      -11.133070
  15      -10.917104
  16      -10.603510
  17      -10.254889
  18      -10.235757
  19       -5.983815
  20       -4.985068
  21       -2.762296
  22       -2.208928
  23       -2.071433
  24       -1.920827
  25       -1.579234
  26       -0.979310
  27       -0.952918
  28       -0.683765
  29       -0.400711
  30       -0.273432
  31       -0.261011
  32       -0.235616
  33       -0.188350
  34       -0.153767
  35       -0.042442
  36        0.034076
  37        1.351396
  38        1.364769
  39        1.415344
  40        1.456280
  41        1.470908
  42        1.473956
  43        1.520899
  44        1.532421
  45        1.576849
  46        1.711894
  47        1.893104
  48        1.930744
  49        2.058009
  50        2.648553
  51        2.729733
  52        3.093094
  53        3.215286
  54        4.004904
  55        4.035858
  56        4.170837
  57        5.540507
  58        6.364755
  59        7.627339
  60        7.989411
  61        8.616268
  62        8.793043
  63        9.569019
  64        9.744635
  65        9.818385
  66       10.420181
  67       10.585602
  68       10.690629
  69       10.716880
  70       11.286138
  71       11.702806
  72       12.383579
  73       12.452807
  74       12.729444
  75       13.326997
  76       13.385139
  77       13.830679
  78       13.888413
  79       14.141207
  80       14.176924
 
  0.2500000E+00  0.7372575E-17  0.1387779E-16  0.2500000E-01
   1      -68.645084
   2      -68.637249
   3      -68.635741
   4      -68.633901
   5      -68.613007
   6      -68.605014
   7      -68.595721
   8      -68.587659
   9      -68.582079
  10      -68.578175
  11      -68.565531
  12      -68.561362
  13      -12.597954
  14      -11.129926
  15      -10.982202
  16      -10.680609
  17      -10.367726
  18      -10.278380
  19       -5.931733
  20       -4.773884
  21       -2.646807
  22       -2.251734
  23       -2.087895
  24       -1.689405
  25       -1.347414
  26       -1.000552
  27       -0.769756
  28       -0.620038
  29       -0.553108
  30       -0.439078
  31       -0.360086
  32       -0.239178
  33       -0.189238
  34       -0.168890
  35       -0.047663
  36        0.042304
  37        1.280286
  38        1.335366
  39        1.355370
  40        1.393580
  41        1.428434
  42        1.472640
  43        1.498607
  44        1.530750
  45        1.724848
  46        1.861695
  47        2.055578
  48        2.095642
  49        2.231639
  50        2.413588
  51        2.554810
  52        2.826155
  53        2.946939
  54        3.243634
  55        3.659906
  56        4.039037
  57        6.172582
  58        6.913263
  59        8.137929
  60        8.270521
  61        8.594273
  62        9.013014
  63        9.242402
  64        9.531805
  65        9.869489
  66       10.373687
  67       10.635234
  68       10.815109
  69       10.939175
  70       11.187375
  71       11.655553
  72       11.767828
  73       12.118983
  74       12.446952
  75       12.616384
  76       13.004127
  77       13.506903
  78       13.875113
  79       14.212760
  80       14.710750
 
  0.5000000E+00  0.1474515E-16  0.2775558E-16  0.1250000E-01
   1      -68.644915
   2      -68.637190
   3      -68.635619
   4      -68.633810
   5      -68.612993
   6      -68.604956
   7      -68.595654
   8      -68.587576
   9      -68.582073
  10      -68.578119
  11      -68.565359
  12      -68.561246
  13      -12.438590
  14      -11.249779
  15      -10.956952
  16      -10.771846
  17      -10.428004
  18      -10.357797
  19       -5.868921
  20       -4.548006
  21       -2.493347
  22       -2.247101
  23       -1.946899
  24       -1.467596
  25       -1.225018
  26       -1.104432
  27       -0.901094
  28       -0.866967
  29       -0.599144
  30       -0.533667
  31       -0.270411
  32       -0.203580
  33       -0.201672
  34       -0.144010
  35       -0.031365
  36        0.085452
  37        1.254374
  38        1.328657
  39        1.349183
  40        1.397700
  41        1.472594
  42        1.477107
  43        1.500796
  44        1.552558
  45        1.753315
  46        1.791064
  47        1.967495
  48        2.147534
  49        2.321366
  50        2.363945
  51        2.555384
  52        2.670634
  53        2.936598
  54        3.078909
  55        3.249779
  56        3.861501
  57        6.387267
  58        7.103285
  59        7.981586
  60        8.204436
  61        8.518489
  62        8.824769
  63        9.327896
  64        9.889950
  65       10.015854
  66       10.518393
  67       10.688956
  68       10.796550
  69       11.138117
  70       11.409828
  71       11.600789
  72       11.774723
  73       11.947974
  74       12.508105
  75       12.779617
  76       13.002047
  77       13.390902
  78       13.539226
  79       13.939470
  80       14.268292
 
  0.7372575E-17  0.2500000E+00  0.1387779E-16  0.2500000E-01
   1      -68.645062
   2      -68.637262
   3      -68.635758
   4      -68.633886
   5      -68.613003
   6      -68.605019
   7      -68.595747
   8      -68.587636
   9      -68.582060
  10      -68.578189
  11      -68.565538
  12      -68.561363
  13      -12.598024
  14      -11.132017
  15      -10.981901
  16      -10.677403
  17      -10.366330
  18      -10.280731
  19       -5.932405
  20       -4.774713
  21       -2.647116
  22       -2.252160
  23       -2.087535
  24       -1.690060
  25       -1.344785
  26       -1.001457
  27       -0.769864
  28       -0.618954
  29       -0.553263
  30       -0.435554
  31       -0.361060
  32       -0.239047
  33       -0.192341
  34       -0.169641
  35       -0.046628
  36        0.042282
  37        1.281099
  38        1.335874
  39        1.354777
  40        1.392759
  41        1.429415
  42        1.473308
  43        1.498698
  44        1.531279
  45        1.725876
  46        1.859921
  47        2.055930
  48        2.095349
  49        2.232237
  50        2.413539
  51        2.555438
  52        2.823891
  53        2.946743
  54        3.242667
  55        3.662609
  56        4.038006
  57        6.171661
  58        6.912584
  59        8.136978
  60        8.269617
  61        8.594334
  62        9.013928
  63        9.241082
  64        9.540238
  65        9.864387
  66       10.375186
  67       10.629817
  68       10.814396
  69       10.942988
  70       11.189273
  71       11.651404
  72       11.770177
  73       12.115832
  74       12.441428
  75       12.618049
  76       13.006276
  77       13.516698
  78       13.903782
  79       14.267932
  80       14.828455
 
  0.2500000E+00  0.2500000E+00  0.0000000E+00  0.2500000E-01
   1      -68.645085
   2      -68.637144
   3      -68.635772
   4      -68.633782
   5      -68.613140
   6      -68.605150
   7      -68.595623
   8      -68.587536
   9      -68.582191
  10      -68.578307
  11      -68.565556
  12      -68.561379
  13      -12.442469
  14      -11.193466
  15      -10.943400
  16      -10.880752
  17      -10.391938
  18      -10.351544
  19       -5.874782
  20       -4.522314
  21       -2.419279
  22       -2.245496
  23       -1.794093
  24       -1.681445
  25       -1.356552
  26       -1.300190
  27       -1.082886
  28       -0.683363
  29       -0.524673
  30       -0.294542
  31       -0.280549
  32       -0.222685
  33       -0.186541
  34       -0.126487
  35       -0.090984
  36        0.083429
  37        1.294398
  38        1.311648
  39        1.416519
  40        1.428283
  41        1.465023
  42        1.482837
  43        1.494669
  44        1.569226
  45        1.672162
  46        1.882105
  47        1.939434
  48        2.135306
  49        2.279675
  50        2.320055
  51        2.561876
  52        2.651992
  53        2.902121
  54        2.944382
  55        3.696228
  56        3.830575
  57        6.173237
  58        6.997296
  59        8.008344
  60        8.325116
  61        8.439755
  62        8.570707
  63        9.145359
  64        9.252636
  65       10.360621
  66       10.494772
  67       10.918401
  68       11.186056
  69       11.326318
  70       11.554140
  71       11.815526
  72       11.959698
  73       12.317835
  74       12.502907
  75       12.715920
  76       12.906314
  77       13.336482
  78       13.447452
  79       14.259189
  80       14.363411
 
  0.5000000E+00  0.2500000E+00 -0.2775558E-16  0.2500000E-01
   1      -68.644833
   2      -68.637091
   3      -68.635663
   4      -68.633910
   5      -68.612916
   6      -68.604909
   7      -68.595677
   8      -68.587552
   9      -68.582027
  10      -68.578104
  11      -68.565396
  12      -68.561249
  13      -12.443027
  14      -11.355147
  15      -10.938134
  16      -10.742126
  17      -10.390195
  18      -10.273426
  19       -5.945893
  20       -4.642828
  21       -2.392730
  22       -2.227298
  23       -2.057069
  24       -1.640295
  25       -1.361838
  26       -1.282171
  27       -1.026967
  28       -0.511221
  29       -0.486562
  30       -0.325404
  31       -0.281581
  32       -0.214577
  33       -0.150510
  34       -0.131743
  35       -0.010050
  36        0.113323
  37        1.247616
  38        1.315826
  39        1.384158
  40        1.437323
  41        1.463195
  42        1.492651
  43        1.496302
  44        1.550021
  45        1.750683
  46        1.827601
  47        1.922085
  48        2.133417
  49        2.222965
  50        2.385523
  51        2.561124
  52        2.790026
  53        2.976439
  54        3.310313
  55        3.604234
  56        3.748947
  57        6.089580
  58        6.947637
  59        7.611309
  60        8.074286
  61        8.408989
  62        8.614462
  63        8.983638
  64        9.157937
  65       10.083895
  66       10.333720
  67       10.736444
  68       11.104770
  69       11.462089
  70       11.594743
  71       11.798098
  72       12.087991
  73       12.477176
  74       12.919739
  75       13.034536
  76       13.837697
  77       14.189399
  78       14.655982
  79       15.439969
  80       15.643033
 
 -0.2500000E+00  0.2500000E+00  0.0000000E+00  0.2500000E-01
   1      -68.645075
   2      -68.637226
   3      -68.635753
   4      -68.633866
   5      -68.612939
   6      -68.604950
   7      -68.595718
   8      -68.587631
   9      -68.582021
  10      -68.578129
  11      -68.565535
  12      -68.561364
  13      -12.601072
  14      -11.253703
  15      -10.991433
  16      -10.572213
  17      -10.368043
  18      -10.182828
  19       -6.008661
  20       -4.895895
  21       -2.648172
  22       -2.314142
  23       -1.972199
  24       -1.647236
  25       -1.495409
  26       -1.183310
  27       -0.791263
  28       -0.584119
  29       -0.442829
  30       -0.334368
  31       -0.292089
  32       -0.231948
  33       -0.174126
  34       -0.131660
  35       -0.008007
  36        0.071113
  37        1.260555
  38        1.321274
  39        1.367761
  40        1.423189
  41        1.429805
  42        1.476011
  43        1.503478
  44        1.546580
  45        1.726464
  46        1.812761
  47        1.994665
  48        2.072095
  49        2.416326
  50        2.464655
  51        2.529000
  52        2.870487
  53        3.142677
  54        3.226653
  55        3.783154
  56        4.068423
  57        5.981317
  58        6.695276
  59        7.533869
  60        8.226397
  61        8.617838
  62        8.912315
  63        9.310642
  64        9.433898
  65        9.804311
  66       10.270309
  67       10.542420
  68       10.832053
  69       10.973340
  70       11.375583
  71       11.474726
  72       11.730245
  73       12.101353
  74       12.660651
  75       12.942921
  76       13.104154
  77       13.351820
  78       13.519300
  79       14.480473
  80       14.753186
 
  0.1474515E-16  0.5000000E+00  0.2775558E-16  0.1250000E-01
   1      -68.644940
   2      -68.637171
   3      -68.635602
   4      -68.633804
   5      -68.612951
   6      -68.605010
   7      -68.595661
   8      -68.587569
   9      -68.581998
  10      -68.578176
  11      -68.565433
  12      -68.561196
  13      -12.438699
  14      -11.253766
  15      -10.957012
  16      -10.764325
  17      -10.426969
  18      -10.361424
  19       -5.870390
  20       -4.550109
  21       -2.494803
  22       -2.245128
  23       -1.945242
  24       -1.464132
  25       -1.227207
  26       -1.103463
  27       -0.903935
  28       -0.865346
  29       -0.599640
  30       -0.533623
  31       -0.273449
  32       -0.204300
  33       -0.201031
  34       -0.143364
  35       -0.026191
  36        0.083112
  37        1.255467
  38        1.328090
  39        1.348273
  40        1.399755
  41        1.470833
  42        1.478186
  43        1.501335
  44        1.554123
  45        1.755181
  46        1.791958
  47        1.967000
  48        2.147095
  49        2.320366
  50        2.362054
  51        2.558235
  52        2.670869
  53        2.932997
  54        3.079784
  55        3.250014
  56        3.858650
  57        6.386493
  58        7.108494
  59        7.984644
  60        8.205348
  61        8.511634
  62        8.820523
  63        9.334329
  64        9.887464
  65       10.008822
  66       10.517477
  67       10.690441
  68       10.794802
  69       11.133121
  70       11.406647
  71       11.609321
  72       11.777622
  73       11.943740
  74       12.505464
  75       12.824414
  76       13.031212
  77       13.553514
  78       13.686956
  79       14.552439
  80       15.250348
 
  0.2500000E+00  0.5000000E+00 -0.2775558E-16  0.2500000E-01
   1      -68.644858
   2      -68.637064
   3      -68.635669
   4      -68.633871
   5      -68.612894
   6      -68.604954
   7      -68.595677
   8      -68.587567
   9      -68.581985
  10      -68.578132
  11      -68.565439
  12      -68.561215
  13      -12.443110
  14      -11.356105
  15      -10.938596
  16      -10.739764
  17      -10.389372
  18      -10.274722
  19       -5.946576
  20       -4.643592
  21       -2.393283
  22       -2.226477
  23       -2.058238
  24       -1.640696
  25       -1.363141
  26       -1.281427
  27       -1.023694
  28       -0.508576
  29       -0.481668
  30       -0.332858
  31       -0.280692
  32       -0.214526
  33       -0.152825
  34       -0.133142
  35       -0.007150
  36        0.113007
  37        1.247271
  38        1.317692
  39        1.383026
  40        1.438482
  41        1.464001
  42        1.491911
  43        1.498393
  44        1.548952
  45        1.749845
  46        1.828515
  47        1.921932
  48        2.134207
  49        2.221993
  50        2.385625
  51        2.560188
  52        2.787859
  53        2.978030
  54        3.312381
  55        3.604212
  56        3.746093
  57        6.089103
  58        6.946410
  59        7.612061
  60        8.071443
  61        8.410902
  62        8.617649
  63        8.986915
  64        9.152975
  65       10.084303
  66       10.334536
  67       10.733222
  68       11.108661
  69       11.462320
  70       11.574701
  71       11.783508
  72       12.028166
  73       12.513046
  74       12.679094
  75       12.921955
  76       13.209311
  77       14.234222
  78       14.767650
  79       15.252813
  80       15.909882
 
  0.5000000E+00  0.5000000E+00  0.0000000E+00  0.1250000E-01
   1      -68.644688
   2      -68.636914
   3      -68.635456
   4      -68.633703
   5      -68.612797
   6      -68.604833
   7      -68.595481
   8      -68.587396
   9      -68.581900
  10      -68.578012
  11      -68.565209
  12      -68.561034
  13      -12.435259
  14      -11.502210
  15      -10.913697
  16      -10.620445
  17      -10.398489
  18      -10.202723
  19       -6.024494
  20       -4.811355
  21       -2.314155
  22       -2.265285
  23       -2.092560
  24       -1.701344
  25       -1.246428
  26       -1.113488
  27       -0.839570
  28       -0.784224
  29       -0.725113
  30       -0.241444
  31       -0.197544
  32       -0.179598
  33       -0.152122
  34       -0.039583
  35       -0.001021
  36        0.182530
  37        1.265383
  38        1.320038
  39        1.376359
  40        1.413384
  41        1.433244
  42        1.495078
  43        1.509576
  44        1.552416
  45        1.786779
  46        1.847845
  47        1.997000
  48        2.151160
  49        2.250678
  50        2.338089
  51        2.559446
  52        2.759526
  53        2.774101
  54        3.368973
  55        3.762774
  56        4.006635
  57        5.856142
  58        6.770086
  59        7.086104
  60        8.414447
  61        8.567250
  62        8.767667
  63        9.149704
  64        9.242073
  65        9.953607
  66       10.283067
  67       10.724825
  68       10.828221
  69       10.880856
  70       11.270111
  71       11.756231
  72       11.916371
  73       11.971052
  74       12.359199
  75       12.542123
  76       13.453145
  77       14.290180
  78       14.673386
  79       16.747146
  80       16.756400
 
 -0.2168404E-18 -0.2168404E-18  0.2000000E+00  0.2500000E-01
   1      -68.645110
   2      -68.637261
   3      -68.635781
   4      -68.633895
   5      -68.613034
   6      -68.605044
   7      -68.595742
   8      -68.587655
   9      -68.582104
  10      -68.578216
  11      -68.565572
  12      -68.561399
  13      -12.619773
  14      -11.427792
  15      -10.779348
  16      -10.608686
  17      -10.253472
  18      -10.237981
  19       -5.830398
  20       -5.048083
  21       -2.601849
  22       -2.373304
  23       -1.961172
  24       -1.775058
  25       -1.445964
  26       -1.126390
  27       -1.061462
  28       -0.771063
  29       -0.470653
  30       -0.291716
  31       -0.237264
  32       -0.233307
  33       -0.189737
  34       -0.146377
  35       -0.019805
  36        0.026366
  37        1.334062
  38        1.383168
  39        1.418864
  40        1.440354
  41        1.464097
  42        1.466241
  43        1.514558
  44        1.545110
  45        1.634154
  46        1.758363
  47        1.788621
  48        1.951507
  49        2.088100
  50        2.660316
  51        2.717482
  52        3.196890
  53        3.250784
  54        3.519266
  55        3.893882
  56        3.974776
  57        6.048424
  58        6.423251
  59        7.826691
  60        7.906639
  61        8.364542
  62        8.820992
  63        9.778937
  64        9.797281
  65       10.060826
  66       10.590614
  67       10.643824
  68       10.815779
  69       10.851876
  70       11.492864
  71       11.554851
  72       12.028120
  73       12.578884
  74       12.772005
  75       12.907446
  76       13.205094
  77       13.538698
  78       13.823154
  79       14.194785
  80       14.710753
 
  0.2500000E+00  0.1517883E-17  0.2000000E+00  0.2500000E-01
   1      -68.645048
   2      -68.637239
   3      -68.635724
   4      -68.633879
   5      -68.613072
   6      -68.605090
   7      -68.595703
   8      -68.587609
   9      -68.582106
  10      -68.578232
  11      -68.565518
  12      -68.561330
  13      -12.460660
  14      -11.468910
  15      -10.864541
  16      -10.692154
  17      -10.374776
  18      -10.246873
  19       -5.765419
  20       -4.804450
  21       -2.445063
  22       -2.234892
  23       -1.849931
  24       -1.715312
  25       -1.435749
  26       -1.188961
  27       -0.891580
  28       -0.742877
  29       -0.607174
  30       -0.520656
  31       -0.309773
  32       -0.243021
  33       -0.169825
  34       -0.121889
  35       -0.053731
  36        0.062862
  37        1.304102
  38        1.337863
  39        1.370691
  40        1.429650
  41        1.446742
  42        1.481937
  43        1.521093
  44        1.547329
  45        1.641924
  46        1.870961
  47        1.978839
  48        2.047870
  49        2.195339
  50        2.475999
  51        2.594489
  52        2.839888
  53        2.963338
  54        3.132875
  55        3.565871
  56        3.724212
  57        6.444688
  58        6.963676
  59        8.172462
  60        8.246880
  61        8.835067
  62        9.129300
  63        9.469929
  64        9.794046
  65       10.084700
  66       10.302889
  67       10.742517
  68       11.076535
  69       11.286215
  70       11.421998
  71       11.632577
  72       11.726947
  73       12.082114
  74       12.264956
  75       12.538298
  76       12.662384
  77       12.954885
  78       13.057210
  79       13.641125
  80       14.691510
 
  0.5000000E+00  0.9107298E-17  0.2000000E+00  0.2500000E-01
   1      -68.644831
   2      -68.637023
   3      -68.635689
   4      -68.633844
   5      -68.612941
   6      -68.604930
   7      -68.595627
   8      -68.587495
   9      -68.582025
  10      -68.578132
  11      -68.565437
  12      -68.561276
  13      -12.358338
  14      -11.415021
  15      -10.953706
  16      -10.689389
  17      -10.479680
  18      -10.334264
  19       -5.750101
  20       -4.721766
  21       -2.522839
  22       -2.186457
  23       -1.954502
  24       -1.536893
  25       -1.302025
  26       -1.099088
  27       -0.870984
  28       -0.756063
  29       -0.548815
  30       -0.444332
  31       -0.287614
  32       -0.180351
  33       -0.140651
  34       -0.107534
  35       -0.045823
  36        0.026786
  37        1.273449
  38        1.298772
  39        1.353749
  40        1.428493
  41        1.453235
  42        1.482017
  43        1.500577
  44        1.587157
  45        1.719702
  46        1.931999
  47        2.075785
  48        2.146979
  49        2.267781
  50        2.403679
  51        2.569757
  52        2.597062
  53        2.897277
  54        3.010240
  55        3.359906
  56        3.898818
  57        6.369055
  58        6.902002
  59        7.572957
  60        8.085059
  61        8.548057
  62        8.799998
  63        9.277710
  64        9.633586
  65        9.930423
  66       10.279781
  67       10.663349
  68       10.927727
  69       10.970817
  70       11.280802
  71       11.517553
  72       11.786370
  73       12.249076
  74       12.557826
  75       13.090984
  76       13.528429
  77       14.295527
  78       14.620389
  79       15.118363
  80       16.265152
 
 -0.2500000E+00 -0.4098284E-16  0.2000000E+00  0.2500000E-01
   1      -68.645100
   2      -68.637230
   3      -68.635786
   4      -68.633871
   5      -68.613045
   6      -68.605046
   7      -68.595729
   8      -68.587640
   9      -68.582128
  10      -68.578228
  11      -68.565559
  12      -68.561397
  13      -12.543430
  14      -11.339443
  15      -10.873776
  16      -10.608924
  17      -10.401531
  18      -10.283103
  19       -5.823507
  20       -4.975383
  21       -2.666678
  22       -2.453505
  23       -2.038575
  24       -1.577369
  25       -1.173030
  26       -0.984994
  27       -0.793369
  28       -0.651906
  29       -0.516450
  30       -0.391888
  31       -0.268109
  32       -0.252730
  33       -0.190897
  34       -0.142068
  35       -0.046820
  36        0.016281
  37        1.291032
  38        1.310780
  39        1.388360
  40        1.409807
  41        1.435259
  42        1.457861
  43        1.493107
  44        1.565897
  45        1.688716
  46        1.917001
  47        1.986095
  48        2.145578
  49        2.334323
  50        2.563975
  51        2.616857
  52        2.829390
  53        2.972918
  54        3.247813
  55        3.681765
  56        3.943405
  57        6.181807
  58        6.643579
  59        7.766711
  60        7.974461
  61        8.216825
  62        8.562092
  63        9.379989
  64        9.577861
  65        9.907241
  66       10.248493
  67       10.548432
  68       10.788788
  69       10.843633
  70       11.067224
  71       11.565518
  72       12.021744
  73       12.525397
  74       12.745029
  75       12.958362
  76       13.308330
  77       13.411997
  78       13.743346
  79       13.848272
  80       14.724030
 
  0.1517883E-17  0.2500000E+00  0.2000000E+00  0.2500000E-01
   1      -68.645046
   2      -68.637245
   3      -68.635725
   4      -68.633879
   5      -68.613079
   6      -68.605082
   7      -68.595696
   8      -68.587614
   9      -68.582119
  10      -68.578223
  11      -68.565502
  12      -68.561341
  13      -12.460732
  14      -11.469547
  15      -10.865390
  16      -10.689965
  17      -10.373809
  18      -10.248056
  19       -5.766312
  20       -4.805261
  21       -2.445366
  22       -2.234351
  23       -1.849092
  24       -1.715492
  25       -1.432382
  26       -1.191549
  27       -0.891668
  28       -0.743871
  29       -0.604461
  30       -0.520432
  31       -0.312670
  32       -0.243131
  33       -0.172115
  34       -0.121869
  35       -0.052908
  36        0.064898
  37        1.301952
  38        1.337363
  39        1.370506
  40        1.431020
  41        1.448591
  42        1.480907
  43        1.522182
  44        1.546926
  45        1.642091
  46        1.872176
  47        1.977948
  48        2.048145
  49        2.196744
  50        2.476051
  51        2.595373
  52        2.840524
  53        2.963282
  54        3.131409
  55        3.566571
  56        3.722760
  57        6.442880
  58        6.963586
  59        8.170931
  60        8.251564
  61        8.834330
  62        9.126641
  63        9.463592
  64        9.802885
  65       10.084509
  66       10.300645
  67       10.741967
  68       11.074803
  69       11.290160
  70       11.418653
  71       11.630251
  72       11.721814
  73       12.079853
  74       12.270831
  75       12.543288
  76       12.656783
  77       12.954730
  78       13.060360
  79       13.656356
  80       14.695755
 
  0.2500000E+00  0.2500000E+00  0.2000000E+00  0.2500000E-01
   1      -68.644956
   2      -68.637088
   3      -68.635642
   4      -68.633723
   5      -68.612915
   6      -68.604927
   7      -68.595576
   8      -68.587491
   9      -68.581985
  10      -68.578093
  11      -68.565422
  12      -68.561244
  13      -12.328980
  14      -11.477458
  15      -10.866410
  16      -10.856729
  17      -10.408693
  18      -10.287918
  19       -5.747151
  20       -4.691954
  21       -2.242741
  22       -2.139110
  23       -1.929333
  24       -1.849768
  25       -1.454119
  26       -1.397290
  27       -1.042836
  28       -0.519762
  29       -0.460129
  30       -0.348373
  31       -0.249309
  32       -0.217288
  33       -0.159455
  34       -0.111010
  35       -0.087649
  36        0.082275
  37        1.263223
  38        1.348800
  39        1.396151
  40        1.436632
  41        1.453209
  42        1.510963
  43        1.536246
  44        1.547453
  45        1.751862
  46        1.819442
  47        2.040396
  48        2.135616
  49        2.285033
  50        2.309487
  51        2.522769
  52        2.767782
  53        2.899500
  54        3.262489
  55        3.495465
  56        3.799506
  57        6.185790
  58        6.847295
  59        7.825954
  60        8.045002
  61        8.191240
  62        8.727909
  63        9.156497
  64        9.307021
  65       10.220877
  66       10.439285
  67       10.590491
  68       11.005886
  69       11.243830
  70       11.484998
  71       11.813671
  72       12.172006
  73       12.204923
  74       12.575314
  75       12.692244
  76       13.106951
  77       13.415908
  78       13.884949
  79       14.005204
  80       14.530975
 
  0.5000000E+00  0.2500000E+00  0.2000000E+00  0.2500000E-01
   1      -68.644809
   2      -68.637045
   3      -68.635615
   4      -68.633906
   5      -68.612904
   6      -68.604968
   7      -68.595656
   8      -68.587502
   9      -68.582021
  10      -68.578156
  11      -68.565386
  12      -68.561228
  13      -12.375871
  14      -11.475129
  15      -10.936718
  16      -10.656701
  17      -10.421461
  18      -10.305903
  19       -5.799236
  20       -4.836617
  21       -2.527801
  22       -2.244781
  23       -1.870969
  24       -1.643895
  25       -1.504974
  26       -1.309035
  27       -0.904575
  28       -0.530833
  29       -0.376936
  30       -0.351749
  31       -0.222174
  32       -0.178951
  33       -0.157944
  34       -0.075082
  35       -0.025100
  36        0.079556
  37        1.190390
  38        1.365305
  39        1.399375
  40        1.442459
  41        1.463602
  42        1.507770
  43        1.521776
  44        1.584610
  45        1.740591
  46        1.818127
  47        2.035953
  48        2.236064
  49        2.269227
  50        2.363495
  51        2.486431
  52        2.671211
  53        3.051190
  54        3.410441
  55        3.729008
  56        3.863928
  57        5.935223
  58        6.619679
  59        7.352854
  60        7.941569
  61        8.068680
  62        8.729542
  63        8.906413
  64        9.136401
  65        9.842576
  66       10.327008
  67       10.555629
  68       10.928544
  69       11.225915
  70       11.415844
  71       11.747306
  72       12.003470
  73       12.495141
  74       12.838397
  75       13.210193
  76       14.183647
  77       14.703552
  78       15.152386
  79       15.915145
  80       16.561676
 
 -0.2500000E+00  0.2500000E+00  0.2000000E+00  0.2500000E-01
   1      -68.645048
   2      -68.637279
   3      -68.635692
   4      -68.633927
   5      -68.612989