       N       E                     dE             d eps       ncg     rms          ort
SDA:   1     0.755320620396E+02    0.75532E+02   -0.21316E+03  3360   0.533E+03 0.000E+00
DMP:   2    -0.837790735054E+01   -0.83910E+02   -0.14689E+03  3360   0.395E+03-0.737E+02
DMP:   3    -0.151973257303E+02   -0.68194E+01   -0.20361E+03  3360   0.693E+03-0.481E+03
DMP:   4    -0.226837985112E+02   -0.74865E+01   -0.10731E+03  3360   0.390E+03-0.319E+03
DMP:   5    -0.608276101365E+02   -0.38144E+02   -0.15049E+02  3360   0.705E+02-0.861E+02
DMP:   6    -0.659495656009E+02   -0.51220E+01   -0.81366E+01  3360   0.245E+02-0.110E+02
DMP:   7    -0.674831018368E+02   -0.15335E+01   -0.41166E+01  3360   0.146E+02-0.114E+02
DMP:   8    -0.690868608167E+02   -0.16038E+01   -0.76852E+00  3360   0.283E+01-0.237E+01
DMP:   9    -0.693956266487E+02   -0.30877E+00   -0.38480E+00  3360   0.110E+01-0.368E+00
DMP:  10    -0.694990979447E+02   -0.10347E+00   -0.15163E+00  3360   0.545E+00-0.435E+00
DMP:  11    -0.695684275083E+02   -0.69330E-01   -0.36895E-01  3360   0.105E+00-0.337E-01
DMP:  12    -0.695807958322E+02   -0.12368E-01   -0.22742E-01  3360   0.686E-01-0.309E-01
DMP:  13    -0.695904101973E+02   -0.96144E-02   -0.51090E-02  3360   0.161E-01-0.873E-02
DMP:  14    -0.695928572245E+02   -0.24470E-02   -0.37631E-02  3360   0.961E-02-0.529E-03
DMP:  15    -0.695943557978E+02   -0.14986E-02   -0.10322E-02  3360   0.331E-02-0.192E-02
DMP:  16    -0.695949227760E+02   -0.56698E-03   -0.40742E-03  3360   0.914E-03 0.274E-03
DMP:  17    -0.695950948645E+02   -0.17209E-03   -0.20762E-03  3360   0.577E-03-0.151E-03
DMP:  18    -0.695952110914E+02   -0.11623E-03   -0.55771E-04  3360   0.119E-03 0.540E-04
DMP:  19    -0.695952396947E+02   -0.28603E-04   -0.35028E-04  3360   0.878E-04-0.611E-06
DMP:  20    -0.695952592765E+02   -0.19582E-04   -0.11488E-04  3360   0.240E-04 0.123E-04
DMP:  21    -0.695952665807E+02   -0.73042E-05   -0.69398E-05  3360   0.139E-04 0.893E-05
   1 F= -.69595267E+02 E0= -.69595456E+02  d E =0.567647E-03
