 vasp.5.3.3 18Dez12 (build Nov 13 2015 09:58:40) complex                        
  
 executed on             LinuxIFC date 2017.10.18  13:09:33
 running on   48 total cores
 distrk:  each k-point on   16 cores,    3 groups
 distr:  one band on NCORES_PER_BAND=   1 cores,   16 groups


--------------------------------------------------------------------------------------------------------


 INCAR:
 POTCAR:    PAW_PBE Cu_pv 06Sep2000               
 POTCAR:    PAW_PBE Ge 05Jan2001                  
 POTCAR:    PAW_PBE S 17Jan2003                   

 ----------------------------------------------------------------------------- 
|                                                                             |
|           W    W    AA    RRRRR   N    N  II  N    N   GGGG   !!!           |
|           W    W   A  A   R    R  NN   N  II  NN   N  G    G  !!!           |
|           W    W  A    A  R    R  N N  N  II  N N  N  G       !!!           |
|           W WW W  AAAAAA  RRRRR   N  N N  II  N  N N  G  GGG   !            |
|           WW  WW  A    A  R   R   N   NN  II  N   NN  G    G                |
|           W    W  A    A  R    R  N    N  II  N    N   GGGG   !!!           |
|                                                                             |
|      For optimal performance we recommend that you set                      |
|        NPAR = 4 - approx SQRT( number of cores)                             |
|      (number of cores/NPAR must be integer)                                 |
|      This setting will greatly improve the performance of VASP for DFT.     |
|      The default NPAR=number of cores might be grossly inefficient          |
|      on modern multi-core architectures or massively parallel machines.     |
|      Do your own testing.                                                   |
|      Unfortunately you need to use the default for hybrid, GW and RPA       |
|      calculations.                                                          |
|                                                                             |
 ----------------------------------------------------------------------------- 


 ----------------------------------------------------------------------------- 
|                                                                             |
|           W    W    AA    RRRRR   N    N  II  N    N   GGGG   !!!           |
|           W    W   A  A   R    R  NN   N  II  NN   N  G    G  !!!           |
|           W    W  A    A  R    R  N N  N  II  N N  N  G       !!!           |
|           W WW W  AAAAAA  RRRRR   N  N N  II  N  N N  G  GGG   !            |
|           WW  WW  A    A  R   R   N   NN  II  N   NN  G    G                |
|           W    W  A    A  R    R  N    N  II  N    N   GGGG   !!!           |
|                                                                             |
|      You have enabled k-point parallelism (KPAR>1).                         |
|      This developmental code was originally  written by Paul Kent at ORNL,  |
|      and carefully double checked in Vienna.                                |
|      GW as well as linear response parallelism added by Martijn Marsman     |
|      and Georg Kresse.                                                      |
|      Carefully verify results versus KPAR=1.                                |
|      Report problems to Paul Kent and Vienna.                               |
|                                                                             |
 ----------------------------------------------------------------------------- 

 POTCAR:    PAW_PBE Cu_pv 06Sep2000               
   VRHFIN =Cu: d10 p1                                                           
   LEXCH  = PE                                                                  
   EATOM  =  4120.1201 eV,  302.8203 Ry                                         
                                                                                
   TITEL  = PAW_PBE Cu_pv 06Sep2000                                             
   LULTRA =        F    use ultrasoft PP ?                                      
   IUNSCR =        1    unscreen: 0-lin 1-nonlin 2-no                           
   RPACOR =    1.500    partial core radius                                     
   POMASS =   63.546; ZVAL   =   17.000    mass and valenz                      
   RCORE  =    2.000    outmost cutoff radius                                   
   RWIGS  =    2.000; RWIGS  =    1.058    wigner-seitz radius (au A)           
   ENMAX  =  368.648; ENMIN  =  276.486 eV                                      
   RCLOC  =    1.304    cutoff for local pot                                    
   LCOR   =        T    correct aug charges                                     
   LPAW   =        T    paw PP                                                  
   EAUG   =  758.233                                                            
   DEXC   =    0.000                                                            
   RMAX   =    2.046    core radius for proj-oper                               
   RAUG   =    1.300    factor for augmentation sphere                          
   RDEP   =    2.025    radius for radial grids                                 
   RDEPT  =    1.558    core radius for aug-charge                              
                                                                                
   Atomic configuration                                                         
    8 entries                                                                   
     n  l   j            E        occ.                                          
     1  0  0.50     -8850.2467   2.0000                                         
     2  0  0.50     -1062.3498   2.0000                                         
     2  1  1.50      -916.8226   6.0000                                         
     3  0  0.50      -114.6929   2.0000                                         
     3  1  1.50       -72.1325   6.0000                                         
     3  2  2.50        -5.0394  10.0000                                         
     4  0  0.50        -4.6097   1.0000                                         
     4  3  2.50        -1.3606   0.0000                                         
   Description                                                                  
     l       E           TYP  RCUT    TYP  RCUT                                 
     1    -72.1324777     23  1.700                                             
     1     -1.3605826     23  1.700                                             
     2     -5.0393776     23  2.000                                             
     2     -6.3999602     23  2.000                                             
     0     -4.6097062     23  1.800                                             
     0     14.1620818     23  1.800                                             
  local pseudopotential read in
  partial core-charges read in
  partial kinetic energy density read in
  atomic valenz-charges read in
  non local Contribution for L=           1  read in
    real space projection operators read in
  non local Contribution for L=           1  read in
    real space projection operators read in
  non local Contribution for L=           2  read in
    real space projection operators read in
  non local Contribution for L=           2  read in
    real space projection operators read in
  non local Contribution for L=           0  read in
    real space projection operators read in
  non local Contribution for L=           0  read in
    real space projection operators read in
    PAW grid and wavefunctions read in
 
   number of l-projection  operators is LMAX  =           6
   number of lm-projection operators is LMMAX =          18
 
 POTCAR:    PAW_PBE Ge 05Jan2001                  
   VRHFIN =Ge: s2p2                                                             
   LEXCH  = PE                                                                  
   EATOM  =   104.9960 eV,    7.7170 Ry                                         
                                                                                
   TITEL  = PAW_PBE Ge 05Jan2001                                                
   LULTRA =        F    use ultrasoft PP ?                                      
   IUNSCR =        1    unscreen: 0-lin 1-nonlin 2-no                           
   RPACOR =    2.170    partial core radius                                     
   POMASS =   72.610; ZVAL   =    4.000    mass and valenz                      
   RCORE  =    2.300    outmost cutoff radius                                   
   RWIGS  =    2.300; RWIGS  =    1.217    wigner-seitz radius (au A)           
   ENMAX  =  173.807; ENMIN  =  130.355 eV                                      
   ICORE  =        3    local potential                                         
   LCOR   =        T    correct aug charges                                     
   LPAW   =        T    paw PP                                                  
   EAUG   =  385.843                                                            
   DEXC   =    0.000                                                            
   RMAX   =    2.342    core radius for proj-oper                               
   RAUG   =    1.300    factor for augmentation sphere                          
   RDEP   =    2.318    radius for radial grids                                 
   RDEPT  =    2.103    core radius for aug-charge                              
                                                                                
   Atomic configuration                                                         
   10 entries                                                                   
     n  l   j            E        occ.                                          
     1  0  0.50    -10959.8463   2.0000                                         
     2  0  0.50     -1371.6056   2.0000                                         
     2  1  1.50     -1198.4791   6.0000                                         
     3  0  0.50      -168.4733   2.0000                                         
     3  1  1.50      -115.6019   6.0000                                         
     3  2  2.50       -29.3106  10.0000                                         
     4  0  0.50       -11.7309   2.0000                                         
     4  1  0.50        -3.8952   2.0000                                         
     4  2  1.50        -4.0817   0.0000                                         
     4  3  2.50        -4.0817   0.0000                                         
   Description                                                                  
     l       E           TYP  RCUT    TYP  RCUT                                 
     0    -11.7309493     23  2.300                                             
     0     -7.4578696     23  2.300                                             
     1     -3.8952261     23  2.300                                             
     1      6.1178114     23  2.300                                             
     2     -4.0817478     23  2.300                                             
     3     -1.3605826      7  2.300                                             
  local pseudopotential read in
  partial core-charges read in
  partial kinetic energy density read in
  atomic valenz-charges read in
  non local Contribution for L=           0  read in
    real space projection operators read in
  non local Contribution for L=           0  read in
    real space projection operators read in
  non local Contribution for L=           1  read in
    real space projection operators read in
  non local Contribution for L=           1  read in
    real space projection operators read in
  non local Contribution for L=           2  read in
    real space projection operators read in
    PAW grid and wavefunctions read in
 
   number of l-projection  operators is LMAX  =           5
   number of lm-projection operators is LMMAX =          13
 
 POTCAR:    PAW_PBE S 17Jan2003                   
   VRHFIN =S : s2p4                                                             
   LEXCH  = PE                                                                  
   EATOM  =   276.8230 eV,   20.3459 Ry                                         
                                                                                
   TITEL  = PAW_PBE S 17Jan2003                                                 
   LULTRA =        F    use ultrasoft PP ?                                      
   IUNSCR =        1    unscreen: 0-lin 1-nonlin 2-no                           
   RPACOR =    1.500    partial core radius                                     
   POMASS =   32.066; ZVAL   =    6.000    mass and valenz                      
   RCORE  =    1.900    outmost cutoff radius                                   
   RWIGS  =    2.200; RWIGS  =    1.164    wigner-seitz radius (au A)           
   ENMAX  =  280.000; ENMIN  =  194.016 eV                                      
   ICORE  =        2    local potential                                         
   LCOR   =        T    correct aug charges                                     
   LPAW   =        T    paw PP                                                  
   EAUG   =  335.092                                                            
   DEXC   =     .000                                                            
   RMAX   =    2.867    core radius for proj-oper                               
   RAUG   =    1.300    factor for augmentation sphere                          
   RDEP   =    1.954    radius for radial grids                                 
   QCUT   =   -4.360; QGAM   =    8.721    optimization parameters              
                                                                                
   Description                                                                  
     l     E      TYP  RCUT    TYP  RCUT                                        
     0   .000     23  1.900                                                     
     0   .000     23  1.900                                                     
     1   .000     23  1.900                                                     
     1   .000     23  1.900                                                     
     2   .000     23  1.900                                                     
  local pseudopotential read in
  partial core-charges read in
  atomic valenz-charges read in
  non local Contribution for L=           0  read in
    real space projection operators read in
  non local Contribution for L=           0  read in
    real space projection operators read in
  non local Contribution for L=           1  read in
    real space projection operators read in
  non local Contribution for L=           1  read in
    real space projection operators read in
    PAW grid and wavefunctions read in
 
   number of l-projection  operators is LMAX  =           4
   number of lm-projection operators is LMMAX =           8
 
  PAW_PBE Cu_pv 06Sep2000               :
 energy of atom  1       EATOM=-4120.1201
 kinetic energy error for atom=    0.0996 (will be added to EATOM!!)
  PAW_PBE Ge 05Jan2001                  :
 energy of atom  2       EATOM= -104.9960
 kinetic energy error for atom=    0.0003 (will be added to EATOM!!)
  PAW_PBE S 17Jan2003                   :
 energy of atom  3       EATOM= -276.8230
 kinetic energy error for atom=    0.0046 (will be added to EATOM!!)
 
 
 POSCAR: Cu Ge S                                 
  positions in direct lattice
  No initial velocities read in
 exchange correlation table for  LEXCH =        8
   RHO(1)=    0.500       N(1)  =     2000
   RHO(2)=  100.500       N(2)  =     4000
 


--------------------------------------------------------------------------------------------------------


 ion  position               nearest neighbor table
   1  0.618  0.121  0.120-   9 2.29  11 2.29  12 2.30   8 2.35
   2  0.121  0.618  0.620-   7 2.28  12 2.29   9 2.30  10 2.35
   3  0.963  0.790  0.119-  11 2.30  12 2.30   7 2.31   8 2.36
   4  0.790  0.963  0.619-   9 2.30   7 2.30  11 2.31  10 2.36
   5  0.440  0.267  0.599-   9 2.19   7 2.20  10 2.31   8 2.33
   6  0.267  0.440  0.099-  11 2.19  12 2.19   8 2.31  10 2.33
   7  0.079  0.910  0.497-   5 2.20   2 2.28   4 2.30   3 2.31
   8  0.571  0.412  0.980-   6 2.31   5 2.33   1 2.35   3 2.36
   9  0.737  0.250  0.495-   5 2.19   1 2.29   4 2.30   2 2.30
  10  0.412  0.571  0.480-   5 2.31   6 2.33   2 2.35   4 2.36
  11  0.912  0.079  0.997-   6 2.19   1 2.29   3 2.30   4 2.31
  12  0.250  0.737  0.995-   6 2.19   2 2.29   3 2.30   1 2.30
 
  Warning from LATTYP: Got some problem with cell dimensions!
  Tried to take original basis but could not verify dimensions!
  LATTYP: Found a base centered monoclinic cell.
 ALAT       =     6.4499010947
 B/A-ratio  =     1.7500516418
 C/A-ratio  =     1.9305142024
 COS(beta)  =    -0.4326083233
  
  Lattice vectors:
  
 A1 = (   3.2247960000,   5.6438300000,   0.0315720000)
 A2 = (   3.2247960000,  -5.6438300000,   0.0315720000)
 A3 = ( -10.7972380000,   0.0000000000,  -6.2018250000)


Analysis of symmetry for initial positions (statically):
=====================================================================
 Subroutine PRICEL returns:
 Original cell was already a primitive cell.
 

 Routine SETGRP: Setting up the symmetry group for a 
 base centered monoclinic supercell.


 Subroutine GETGRP returns: Found  1 space group operations
 (whereof  1 operations were pure point group operations)
 out of a pool of  4 trial point group operations.


The static configuration has the point symmetry C_1 .


Analysis of symmetry for dynamics (positions and initial velocities):
=====================================================================
 Subroutine PRICEL returns:
 Original cell was already a primitive cell.
 

 Routine SETGRP: Setting up the symmetry group for a 
 base centered monoclinic supercell.


 Subroutine GETGRP returns: Found  1 space group operations
 (whereof  1 operations were pure point group operations)
 out of a pool of  4 trial point group operations.


The dynamic configuration has the point symmetry C_1 .


 irot  :   1
 --------------------------------------------------------------------
 isymop:   1   0   0
           0   1   0
           0   0   1

 gtrans:     0.0000000     0.0000000     0.0000000

 ptrans:     0.0000000     0.0000000     0.0000000
 rotmap:
 (   1->   1)  (   2->   2)  (   3->   3)  (   4->   4)  (   5->   5) 
 (   6->   6)  (   7->   7)  (   8->   8)  (   9->   9)  (  10->  10) 
 (  11->  11)  (  12->  12) 
 
 
 KPOINTS: pymatgen 4.7.6+ generated KPOINTS with g

Automatic generation of k-mesh.
Space group operators:
 irot       det(A)        alpha          n_x          n_y          n_z        tau_x        tau_y        tau_z
    1     1.000000     0.000000     1.000000     0.000000     0.000000     0.000000     0.000000     0.000000
 
 Subroutine IBZKPT returns following result:
 ===========================================
 
 Found     42 irreducible k-points:
 
 Following reciprocal coordinates:
            Coordinates               Weight
  0.000000  0.000000  0.000000      1.000000
  0.250000  0.000000  0.000000      2.000000
  0.500000  0.000000  0.000000      1.000000
  0.000000  0.250000  0.000000      2.000000
  0.250000  0.250000  0.000000      2.000000
  0.500000  0.250000 -0.000000      2.000000
 -0.250000  0.250000  0.000000      2.000000
  0.000000  0.500000  0.000000      1.000000
  0.250000  0.500000 -0.000000      2.000000
  0.500000  0.500000  0.000000      1.000000
 -0.000000 -0.000000  0.200000      2.000000
  0.250000  0.000000  0.200000      2.000000
  0.500000  0.000000  0.200000      2.000000
 -0.250000 -0.000000  0.200000      2.000000
  0.000000  0.250000  0.200000      2.000000
  0.250000  0.250000  0.200000      2.000000
  0.500000  0.250000  0.200000      2.000000
 -0.250000  0.250000  0.200000      2.000000
  0.000000  0.500000  0.200000      2.000000
  0.250000  0.500000  0.200000      2.000000
  0.500000  0.500000  0.200000      2.000000
 -0.250000  0.500000  0.200000      2.000000
 -0.000000 -0.250000  0.200000      2.000000
  0.250000 -0.250000  0.200000      2.000000
  0.500000 -0.250000  0.200000      2.000000
 -0.250000 -0.250000  0.200000      2.000000
 -0.000000 -0.000000  0.400000      2.000000
  0.250000  0.000000  0.400000      2.000000
  0.500000  0.000000  0.400000      2.000000
 -0.250000  0.000000  0.400000      2.000000
  0.000000  0.250000  0.400000      2.000000
  0.250000  0.250000  0.400000      2.000000
  0.500000  0.250000  0.400000      2.000000
 -0.250000  0.250000  0.400000      2.000000
  0.000000  0.500000  0.400000      2.000000
  0.250000  0.500000  0.400000      2.000000
  0.500000  0.500000  0.400000      2.000000
 -0.250000  0.500000  0.400000      2.000000
  0.000000 -0.250000  0.400000      2.000000
  0.250000 -0.250000  0.400000      2.000000
  0.500000 -0.250000  0.400000      2.000000
 -0.250000 -0.250000  0.400000      2.000000
 
 Following cartesian coordinates:
            Coordinates               Weight
  0.000000  0.000000  0.000000      1.000000
  0.038631 -0.022148  0.013365      2.000000
  0.077263 -0.044296  0.026730      1.000000
  0.038631  0.022148  0.013365      2.000000
  0.077263  0.000000  0.026730      2.000000
  0.115894 -0.022148  0.040096      2.000000
  0.000000  0.044296  0.000000      2.000000
  0.077263  0.044296  0.026730      1.000000
  0.115894  0.022148  0.040096      2.000000
  0.154525  0.000000  0.053461      1.000000
 -0.000321  0.000000  0.032808      2.000000
  0.038310 -0.022148  0.046173      2.000000
  0.076941 -0.044296  0.059538      2.000000
 -0.038952  0.022148  0.019443      2.000000
  0.038310  0.022148  0.046173      2.000000
  0.076941  0.000000  0.059538      2.000000
  0.115573 -0.022148  0.072903      2.000000
 -0.000321  0.044296  0.032808      2.000000
  0.076941  0.044296  0.059538      2.000000
  0.115573  0.022148  0.072903      2.000000
  0.154204  0.000000  0.086269      2.000000
  0.038310  0.066444  0.046173      2.000000
 -0.038952 -0.022148  0.019443      2.000000
 -0.000321 -0.044296  0.032808      2.000000
  0.038310 -0.066444  0.046173      2.000000
 -0.077584  0.000000  0.006077      2.000000
 -0.000642  0.000000  0.065616      2.000000
  0.037989 -0.022148  0.078981      2.000000
  0.076620 -0.044296  0.092346      2.000000
 -0.039274  0.022148  0.052250      2.000000
  0.037989  0.022148  0.078981      2.000000
  0.076620  0.000000  0.092346      2.000000
  0.115251 -0.022148  0.105711      2.000000
 -0.000642  0.044296  0.065616      2.000000
  0.076620  0.044296  0.092346      2.000000
  0.115251  0.022148  0.105711      2.000000
  0.153883  0.000000  0.119076      2.000000
  0.037989  0.066444  0.078981      2.000000
 -0.039274 -0.022148  0.052250      2.000000
 -0.000642 -0.044296  0.065616      2.000000
  0.037989 -0.066444  0.078981      2.000000
 -0.077905  0.000000  0.038885      2.000000
 
 
 Subroutine IBZKPT_HF returns following result:
 ==============================================
 
 Found     80 k-points in 1st BZ
 the following     80 k-points will be used (e.g. in the exchange kernel)
 Following reciprocal coordinates:   # in IRBZ
  0.000000  0.000000  0.000000       1 t-inv F
  0.250000  0.000000  0.000000       2 t-inv F
  0.500000  0.000000  0.000000       3 t-inv F
  0.000000  0.250000  0.000000       4 t-inv F
  0.250000  0.250000  0.000000       5 t-inv F
  0.500000  0.250000 -0.000000       6 t-inv F
 -0.250000  0.250000  0.000000       7 t-inv F
  0.000000  0.500000  0.000000       8 t-inv F
  0.250000  0.500000 -0.000000       9 t-inv F
  0.500000  0.500000  0.000000      10 t-inv F
 -0.000000 -0.000000  0.200000      11 t-inv F
  0.250000  0.000000  0.200000      12 t-inv F
  0.500000  0.000000  0.200000      13 t-inv F
 -0.250000 -0.000000  0.200000      14 t-inv F
  0.000000  0.250000  0.200000      15 t-inv F
  0.250000  0.250000  0.200000      16 t-inv F
  0.500000  0.250000  0.200000      17 t-inv F
 -0.250000  0.250000  0.200000      18 t-inv F
  0.000000  0.500000  0.200000      19 t-inv F
  0.250000  0.500000  0.200000      20 t-inv F
  0.500000  0.500000  0.200000      21 t-inv F
 -0.250000  0.500000  0.200000      22 t-inv F
 -0.000000 -0.250000  0.200000      23 t-inv F
  0.250000 -0.250000  0.200000      24 t-inv F
  0.500000 -0.250000  0.200000      25 t-inv F
 -0.250000 -0.250000  0.200000      26 t-inv F
 -0.000000 -0.000000  0.400000      27 t-inv F
  0.250000  0.000000  0.400000      28 t-inv F
  0.500000  0.000000  0.400000      29 t-inv F
 -0.250000  0.000000  0.400000      30 t-inv F
  0.000000  0.250000  0.400000      31 t-inv F
  0.250000  0.250000  0.400000      32 t-inv F
  0.500000  0.250000  0.400000      33 t-inv F
 -0.250000  0.250000  0.400000      34 t-inv F
  0.000000  0.500000  0.400000      35 t-inv F
  0.250000  0.500000  0.400000      36 t-inv F
  0.500000  0.500000  0.400000      37 t-inv F
 -0.250000  0.500000  0.400000      38 t-inv F
  0.000000 -0.250000  0.400000      39 t-inv F
  0.250000 -0.250000  0.400000      40 t-inv F
  0.500000 -0.250000  0.400000      41 t-inv F
 -0.250000 -0.250000  0.400000      42 t-inv F
 -0.250000 -0.000000 -0.000000       2 t-inv T
 -0.000000 -0.250000 -0.000000       4 t-inv T
 -0.250000 -0.250000  0.000000       5 t-inv T
 -0.500000 -0.250000  0.000000       6 t-inv T
  0.250000 -0.250000  0.000000       7 t-inv T
 -0.250000 -0.500000  0.000000       9 t-inv T
  0.000000  0.000000 -0.200000      11 t-inv T
 -0.250000 -0.000000 -0.200000      12 t-inv T
 -0.500000 -0.000000 -0.200000      13 t-inv T
  0.250000  0.000000 -0.200000      14 t-inv T
 -0.000000 -0.250000 -0.200000      15 t-inv T
 -0.250000 -0.250000 -0.200000      16 t-inv T
 -0.500000 -0.250000 -0.200000      17 t-inv T
  0.250000 -0.250000 -0.200000      18 t-inv T
 -0.000000 -0.500000 -0.200000      19 t-inv T
 -0.250000 -0.500000 -0.200000      20 t-inv T
 -0.500000 -0.500000 -0.200000      21 t-inv T
  0.250000 -0.500000 -0.200000      22 t-inv T
  0.000000  0.250000 -0.200000      23 t-inv T
 -0.250000  0.250000 -0.200000      24 t-inv T
 -0.500000  0.250000 -0.200000      25 t-inv T
  0.250000  0.250000 -0.200000      26 t-inv T
  0.000000  0.000000 -0.400000      27 t-inv T
 -0.250000 -0.000000 -0.400000      28 t-inv T
 -0.500000 -0.000000 -0.400000      29 t-inv T
  0.250000 -0.000000 -0.400000      30 t-inv T
 -0.000000 -0.250000 -0.400000      31 t-inv T
 -0.250000 -0.250000 -0.400000      32 t-inv T
 -0.500000 -0.250000 -0.400000      33 t-inv T
  0.250000 -0.250000 -0.400000      34 t-inv T
 -0.000000 -0.500000 -0.400000      35 t-inv T
 -0.250000 -0.500000 -0.400000      36 t-inv T
 -0.500000 -0.500000 -0.400000      37 t-inv T
  0.250000 -0.500000 -0.400000      38 t-inv T
 -0.000000  0.250000 -0.400000      39 t-inv T
 -0.250000  0.250000 -0.400000      40 t-inv T
 -0.500000  0.250000 -0.400000      41 t-inv T
  0.250000  0.250000 -0.400000      42 t-inv T


--------------------------------------------------------------------------------------------------------




 Dimension of arrays:
   k-points           NKPTS =     42   k-points in BZ     NKDIM =     80   number of bands    NBANDS=     80
   number of dos      NEDOS =    301   number of ions     NIONS =     12
   non local maximal  LDIM  =      6   non local SUM 2l+1 LMDIM =     18
   total plane-waves  NPLWV =  32768
   max r-space proj   IRMAX =      1   max aug-charges    IRDMAX=   8224
   dimension x,y,z NGX =    32 NGY =   32 NGZ =   32
   dimension x,y,z NGXF=    64 NGYF=   64 NGZF=   64
   support grid    NGXF=    64 NGYF=   64 NGZF=   64
   ions per type =               4   2   6
 NGX,Y,Z   is equivalent  to a cutoff of   8.18,  8.18,  8.27 a.u.
 NGXF,Y,Z  is equivalent  to a cutoff of  16.37, 16.37, 16.55 a.u.


 I would recommend the setting:
   dimension x,y,z NGX =    32 NGY =   32 NGZ =   31
 SYSTEM =  CGS                                     
 POSCAR =  Cu Ge S                                 

 Startparameter for this run:
   NWRITE =      2    write-flag & timer
   PREC   = normal    normal or accurate (medium, high low for compatibility)
   ISTART =      1    job   : 0-new  1-cont  2-samecut
   ICHARG =      0    charge: 1-file 2-atom 10-const
   ISPIN  =      1    spin polarized calculation?
   LNONCOLLINEAR =      F non collinear calculations
   LSORBIT =      F    spin-orbit coupling
   INIWAV =      1    electr: 0-lowe 1-rand  2-diag
   LASPH  =      F    aspherical Exc in radial PAW
   METAGGA=      F    non-selfconsistent MetaGGA calc.

 Electronic Relaxation 1
   ENCUT  =  400.0 eV  29.40 Ry    5.42 a.u.  10.60 10.60 10.48*2*pi/ulx,y,z
   ENINI  =  400.0     initial cutoff
   ENAUG  =  758.2 eV  augmentation charge cutoff
   NELM   =     60;   NELMIN=  2; NELMDL=  0     # of ELM steps 
   EDIFF  = 0.1E-04   stopping-criterion for ELM
   LREAL  =      F    real-space projection
   NLSPLINE    = F    spline interpolate recip. space projectors
   LCOMPAT=      F    compatible to vasp.4.4
   GGA_COMPAT  = T    GGA compatible to vasp.4.4-vasp.4.6
   LMAXPAW     = -100 max onsite density
   LMAXMIX     =    2 max onsite mixed and CHGCAR
   VOSKOWN=      0    Vosko Wilk Nusair interpolation
   ROPT   =    0.00000   0.00000   0.00000
 Ionic relaxation
   EDIFFG = 0.1E-03   stopping-criterion for IOM
   NSW    =      0    number of steps for IOM
   NBLOCK =      1;   KBLOCK =      1    inner block; outer block 
   IBRION =     -1    ionic relax: 0-MD 1-quasi-New 2-CG
   NFREE  =      0    steps in history (QN), initial steepest desc. (CG)
   ISIF   =      0    stress and relaxation
   IWAVPR =     10    prediction:  0-non 1-charg 2-wave 3-comb
   ISYM   =      3    0-nonsym 1-usesym 2-fastsym
   LCORR  =      T    Harris-Foulkes like correction to forces

   POTIM  = 0.5000    time-step for ionic-motion
   TEIN   =    0.0    initial temperature
   TEBEG  =    0.0;   TEEND  =   0.0 temperature during run
   SMASS  =  -3.00    Nose mass-parameter (am)
   estimated Nose-frequenzy (Omega)   =  0.10E-29 period in steps =****** mass=  -0.966E-27a.u.
   SCALEE = 1.0000    scale energy and forces
   NPACO  =    256;   APACO  = 16.0  distance and # of slots for P.C.
   PSTRESS=    0.0 pullay stress

  Mass of Ions in am
   POMASS =  63.55 72.61 32.07
  Ionic Valenz
   ZVAL   =  17.00  4.00  6.00
  Atomic Wigner-Seitz radii
   RWIGS  =  -1.00 -1.00 -1.00
  virtual crystal weights 
   VCA    =   1.00  1.00  1.00
   NELECT =     112.0000    total number of electrons
   NUPDOWN=      -1.0000    fix difference up-down

 DOS related values:
   EMIN   =  10.00;   EMAX   =-10.00  energy-range for DOS
   EFERMI =   0.00
   ISMEAR =     1;   SIGMA  =   0.10  broadening in eV -4-tet -1-fermi 0-gaus

 Electronic relaxation 2 (details)
   IALGO  =     53    algorithm
   LDIAG  =      T    sub-space diagonalisation (order eigenvalues)
   LSUBROT=      T    optimize rotation matrix (better conditioning)
   TURBO    =      0    0=normal 1=particle mesh
   IRESTART =      0    0=no restart 2=restart with 2 vectors
   NREBOOT  =      0    no. of reboots
   NMIN     =      0    reboot dimension
   EREF     =   0.00    reference energy to select bands
   IMIX   =      4    mixing-type and parameters
     AMIX     =   0.40;   BMIX     =  1.00
     AMIX_MAG =   1.60;   BMIX_MAG =  1.00
     AMIN     =   0.10
     WC   =   100.;   INIMIX=   1;  MIXPRE=   1;  MAXMIX= -45

 Intra band minimization:
   WEIMIN = 0.0000     energy-eigenvalue tresh-hold
   EBREAK =  0.31E-07  absolut break condition
   DEPER  =   0.30     relativ break condition  

   TIME   =   0.40     timestep for ELM

  volume/ion in A,a.u.               =      18.49       124.79
  Fermi-wavevector in a.u.,A,eV,Ry     =   1.303450  2.463163 23.116052  1.698982
  Thomas-Fermi vector in A             =   2.434451
 
 Write flags
   LWAVE  =      T    write WAVECAR
   LCHARG =      T    write CHGCAR
   LVTOT  =      F    write LOCPOT, total local potential
   LVHAR  =      F    write LOCPOT, Hartree potential only
   LELF   =      F    write electronic localiz. function (ELF)
   LORBIT =      0    0 simple, 1 ext, 2 COOP (PROOUT)


 Dipole corrections
   LMONO  =      F    monopole corrections only (constant potential shift)
   LDIPOL =      F    correct potential (dipole corrections)
   IDIPOL =      0    1-x, 2-y, 3-z, 4-all directions 
   EPSILON=  1.0000000 bulk dielectric constant

 Exchange correlation treatment:
   GGA     =    PE    GGA type
   LEXCH   =     8    internal setting for exchange type
   VOSKOWN=      0    Vosko Wilk Nusair interpolation
   EXXOEP  =     0    0=HF, 1=EXX-LHF (local Hartree Fock) 2=EXX OEP
   LHFCALC =     T    Hartree Fock is set to
   LSYMGRAD=     F    symmetrize gradient (conserves proper symmetry)
   PRECFOCK=fast      Normal, Fast or Accurate (Low or Medium for compatibility)
   LRHFCALC=     F    long range Hartree Fock
   LRSCOR  =     F    long range correlation only (use DFT for short range part)
   LTHOMAS =     F    Thomas Fermi screening in HF
   LMODELHF=     F    short range full HF, long range fraction AEXX
   ENCUT4O =  -1.0   cutoff for four orbital integrals eV
   LMAXFOCK=     4    L truncation for augmentation on plane wave grid
   LMAXFOCKAE=  -1    L truncation for all-electron charge restoration on plane wave grid
   NMAXFOCKAE=   1    number of basis functions for all-electron charge restoration
   LFOCKAEDFT=     F  apply the AE augmentation even for DFT
   NKREDX  =     1    reduce k-point grid by
   NKREDY  =     1    reduce k-point grid by
   NKREDZ  =     1    reduce k-point grid by
   SHIFTRED=     F    shift reduced grid of Gamma
   HFKIDENT=     F    idential grid for each k-point
   ODDONLY =     F    use only odd q-grid points
   EVENONLY=     F    use only even q-grid points
   HFALPHA =   -1.0000 decay constant for conv. correction
   MCALPHA =    0.0000 extent of test-charge in conv. correction in multipole expansion
   AEXX    =    0.2500 exact exchange contribution
   HFSCREEN=    0.2000 screening length (either q_TF or 0.3 A-1)
   HFSCREENC=   0.2000 screening length for correlation (either q_TF or 0.3 A-1)
   HFRCUT  =    0.0000 spherical cutoff for potential kernel
   ALDAX   =    0.7500 LDA exchange part
   AGGAX   =    0.7500 GGA exchange part
   ALDAC   =    1.0000 LDA correlation
   AGGAC   =    1.0000 GGA correlation
   NBANDSGWLOW=     1    first orbital included in HF term
 Linear response parameters
   LEPSILON=     F    determine dielectric tensor
   LRPA    =     F    only Hartree local field effects (RPA)
   LNABLA  =     F    use nabla operator in PAW spheres
   LVEL    =     F    velocity operator in full k-point grid
   LINTERFAST=   F  fast interpolation
   KINTER  =     0    interpolate to denser k-point grid
   CSHIFT  =0.1000    complex shift for real part using Kramers Kronig
   OMEGAMAX=  -1.0    maximum frequency
   DEG_THRESHOLD= 0.2000000E-02 threshold for treating states as degnerate
   RTIME   =    0.100 relaxation time in fs

 Orbital magnetization related:
   ORBITALMAG=     F  switch on orbital magnetization
   LCHIMAG   =     F  perturbation theory with respect to B field
   DQ        =  0.001000  dq finite difference perturbation B field



--------------------------------------------------------------------------------------------------------


 Static calculation
 charge density and potential will be updated during run
 non-spin polarized calculation
 Conjugate gradient for all bands, subspace preconditioning
 perform sub-space diagonalisation
    before iterative eigenvector-optimisation
 modified Broyden-mixing scheme, WC =      100.0
 initial mixing is a Kerker type mixing with AMIX =  0.4000 and BMIX =      1.0000
 Hartree-type preconditioning will be used
 using additional bands           24
 reciprocal scheme for non local part
 use partial core corrections
 no Harris-corrections to forces 
 use gradient corrections 
 use of overlap-Matrix (Vanderbilt PP)
 Methfessel and Paxton  Order N= 1 SIGMA  =   0.10


--------------------------------------------------------------------------------------------------------


  energy-cutoff  :      400.00
  volume of cell :      221.90
      direct lattice vectors                 reciprocal lattice vectors
     3.224796000 -5.643830000  0.031572000     0.154525165 -0.088592321  0.053460880
     3.224796000  5.643830000  0.031572000     0.154525165  0.088592321  0.053460880
    -2.101946000  0.000000000  6.075537000    -0.001606004  0.000000000  0.164038877

  length of vectors
     6.500240234  6.500240234  6.428866683     0.185969598  0.185969598  0.164046738


 
 old parameters found on file WAVECAR:
  energy-cutoff  :      400.00
  volume of cell :      222.35
      direct lattice vectors                 reciprocal lattice vectors
     3.227235519 -5.642745207  0.030241751     0.154430495 -0.088609353  0.053450002
     3.227235519  5.642745207  0.030241751     0.154430495  0.088609353  0.053450002
    -2.106135241  0.000000000  6.085154262    -0.001534965  0.000000000  0.163803104

  length of vectors

 
 k-points in units of 2pi/SCALE and weight: pymatgen 4.7.6+ generated KPOINTS with g
   0.00000000  0.00000000  0.00000000       0.013
   0.03863129 -0.02214808  0.01336522       0.025
   0.07726258 -0.04429616  0.02673044       0.013
   0.03863129  0.02214808  0.01336522       0.025
   0.07726258  0.00000000  0.02673044       0.025
   0.11589387 -0.02214808  0.04009566       0.025
   0.00000000  0.04429616  0.00000000       0.025
   0.07726258  0.04429616  0.02673044       0.013
   0.11589387  0.02214808  0.04009566       0.025
   0.15452516  0.00000000  0.05346088       0.013
  -0.00032120  0.00000000  0.03280778       0.025
   0.03831009 -0.02214808  0.04617300       0.025
   0.07694138 -0.04429616  0.05953822       0.025
  -0.03895249  0.02214808  0.01944256       0.025
   0.03831009  0.02214808  0.04617300       0.025
   0.07694138  0.00000000  0.05953822       0.025
   0.11557267 -0.02214808  0.07290344       0.025
  -0.00032120  0.04429616  0.03280778       0.025
   0.07694138  0.04429616  0.05953822       0.025
   0.11557267  0.02214808  0.07290344       0.025
   0.15420396  0.00000000  0.08626865       0.025
   0.03831009  0.06644424  0.04617300       0.025
  -0.03895249 -0.02214808  0.01944256       0.025
  -0.00032120 -0.04429616  0.03280778       0.025
   0.03831009 -0.06644424  0.04617300       0.025
  -0.07758378  0.00000000  0.00607734       0.025
  -0.00064240  0.00000000  0.06561555       0.025
   0.03798889 -0.02214808  0.07898077       0.025
   0.07662018 -0.04429616  0.09234599       0.025
  -0.03927369  0.02214808  0.05225033       0.025
   0.03798889  0.02214808  0.07898077       0.025
   0.07662018  0.00000000  0.09234599       0.025
   0.11525147 -0.02214808  0.10571121       0.025
  -0.00064240  0.04429616  0.06561555       0.025
   0.07662018  0.04429616  0.09234599       0.025
   0.11525147  0.02214808  0.10571121       0.025
   0.15388276  0.00000000  0.11907643       0.025
   0.03798889  0.06644424  0.07898077       0.025
  -0.03927369 -0.02214808  0.05225033       0.025
  -0.00064240 -0.04429616  0.06561555       0.025
   0.03798889 -0.06644424  0.07898077       0.025
  -0.07790498  0.00000000  0.03888511       0.025
 
 k-points in reciprocal lattice and weights: pymatgen 4.7.6+ generated KPOINTS with g
   0.00000000  0.00000000  0.00000000       0.013
   0.25000000  0.00000000  0.00000000       0.025
   0.50000000  0.00000000  0.00000000       0.013
   0.00000000  0.25000000  0.00000000       0.025
   0.25000000  0.25000000  0.00000000       0.025
   0.50000000  0.25000000 -0.00000000       0.025
  -0.25000000  0.25000000  0.00000000       0.025
   0.00000000  0.50000000  0.00000000       0.013
   0.25000000  0.50000000 -0.00000000       0.025
   0.50000000  0.50000000  0.00000000       0.013
  -0.00000000 -0.00000000  0.20000000       0.025
   0.25000000  0.00000000  0.20000000       0.025
   0.50000000  0.00000000  0.20000000       0.025
  -0.25000000 -0.00000000  0.20000000       0.025
   0.00000000  0.25000000  0.20000000       0.025
   0.25000000  0.25000000  0.20000000       0.025
   0.50000000  0.25000000  0.20000000       0.025
  -0.25000000  0.25000000  0.20000000       0.025
   0.00000000  0.50000000  0.20000000       0.025
   0.25000000  0.50000000  0.20000000       0.025
   0.50000000  0.50000000  0.20000000       0.025
  -0.25000000  0.50000000  0.20000000       0.025
  -0.00000000 -0.25000000  0.20000000       0.025
   0.25000000 -0.25000000  0.20000000       0.025
   0.50000000 -0.25000000  0.20000000       0.025
  -0.25000000 -0.25000000  0.20000000       0.025
  -0.00000000 -0.00000000  0.40000000       0.025
   0.25000000  0.00000000  0.40000000       0.025
   0.50000000  0.00000000  0.40000000       0.025
  -0.25000000  0.00000000  0.40000000       0.025
   0.00000000  0.25000000  0.40000000       0.025
   0.25000000  0.25000000  0.40000000       0.025
   0.50000000  0.25000000  0.40000000       0.025
  -0.25000000  0.25000000  0.40000000       0.025
   0.00000000  0.50000000  0.40000000       0.025
   0.25000000  0.50000000  0.40000000       0.025
   0.50000000  0.50000000  0.40000000       0.025
  -0.25000000  0.50000000  0.40000000       0.025
   0.00000000 -0.25000000  0.40000000       0.025
   0.25000000 -0.25000000  0.40000000       0.025
   0.50000000 -0.25000000  0.40000000       0.025
  -0.25000000 -0.25000000  0.40000000       0.025
 
 position of ions in fractional coordinates (direct lattice) 
   0.61844300  0.12117100  0.11953300
   0.12117100  0.61844300  0.61953300
   0.96295700  0.79032200  0.11881300
   0.79032200  0.96295700  0.61881300
   0.43973200  0.26728100  0.59904700
   0.26728100  0.43973200  0.09904700
   0.07949800  0.91013660  0.49736300
   0.57140300  0.41236400  0.98018400
   0.73711100  0.25006200  0.49504900
   0.41236400  0.57140300  0.48018400
   0.91167500  0.07949800  0.99736300
   0.25006200  0.73711100  0.99504900
 
 position of ions in cartesian coordinates  (Angst):
   2.13385236 -2.80651863  0.74957826
   1.08287936  2.80651863  3.78734676
   5.40422860 -0.97432259  0.77720730
   4.35325560  0.97432259  3.81497580
   1.02080825 -0.97328413  3.66185403
   2.07178125  0.97328413  0.62408553
   2.14593952  4.68798302  3.05299205
   1.11215405 -0.89758908  5.98620365
   2.14286528 -2.74882176  3.03885554
   2.16312705  0.89758908  2.94843515
   1.09992756 -4.69666552  6.09080912
   1.09189228  2.74882176  6.07662404
 


--------------------------------------------------------------------------------------------------------


 k-point  1 :   0.0000 0.0000 0.0000  plane waves:    4051
 k-point  2 :   0.2500 0.0000 0.0000  plane waves:    4032
 k-point  3 :   0.5000 0.0000 0.0000  plane waves:    4030
 k-point  4 :   0.0000 0.2500 0.0000  plane waves:    4032
 k-point  5 :   0.2500 0.2500 0.0000  plane waves:    4038
 k-point  6 :   0.5000 0.2500-0.0000  plane waves:    4037
 k-point  7 :  -0.2500 0.2500 0.0000  plane waves:    4042
 k-point  8 :   0.0000 0.5000 0.0000  plane waves:    4030
 k-point  9 :   0.2500 0.5000-0.0000  plane waves:    4037
 k-point 10 :   0.5000 0.5000 0.0000  plane waves:    4026
 k-point 11 :  -0.0000-0.0000 0.2000  plane waves:    4046
 k-point 12 :   0.2500 0.0000 0.2000  plane waves:    4034
 k-point 13 :   0.5000 0.0000 0.2000  plane waves:    4025
 k-point 14 :  -0.2500-0.0000 0.2000  plane waves:    4044
 k-point 15 :   0.0000 0.2500 0.2000  plane waves:    4034
 k-point 16 :   0.2500 0.2500 0.2000  plane waves:    4017
 k-point 17 :   0.5000 0.2500 0.2000  plane waves:    4039
 k-point 18 :  -0.2500 0.2500 0.2000  plane waves:    4042
 k-point 19 :   0.0000 0.5000 0.2000  plane waves:    4025
 k-point 20 :   0.2500 0.5000 0.2000  plane waves:    4039
 k-point 21 :   0.5000 0.5000 0.2000  plane waves:    4030
 k-point 22 :  -0.2500 0.5000 0.2000  plane waves:    4030
 k-point 23 :  -0.0000-0.2500 0.2000  plane waves:    4044
 k-point 24 :   0.2500-0.2500 0.2000  plane waves:    4042
 k-point 25 :   0.5000-0.2500 0.2000  plane waves:    4030
 k-point 26 :  -0.2500-0.2500 0.2000  plane waves:    4020
 k-point 27 :  -0.0000-0.0000 0.4000  plane waves:    4027
 k-point 28 :   0.2500 0.0000 0.4000  plane waves:    4034
 k-point 29 :   0.5000 0.0000 0.4000  plane waves:    4013
 k-point 30 :  -0.2500 0.0000 0.4000  plane waves:    4042
 k-point 31 :   0.0000 0.2500 0.4000  plane waves:    4034
 k-point 32 :   0.2500 0.2500 0.4000  plane waves:    4009
 k-point 33 :   0.5000 0.2500 0.4000  plane waves:    4026
 k-point 34 :  -0.2500 0.2500 0.4000  plane waves:    4027
 k-point 35 :   0.0000 0.5000 0.4000  plane waves:    4013
 k-point 36 :   0.2500 0.5000 0.4000  plane waves:    4026
 k-point 37 :   0.5000 0.5000 0.4000  plane waves:    4037
 k-point 38 :  -0.2500 0.5000 0.4000  plane waves:    4022
 k-point 39 :   0.0000-0.2500 0.4000  plane waves:    4042
 k-point 40 :   0.2500-0.2500 0.4000  plane waves:    4027
 k-point 41 :   0.5000-0.2500 0.4000  plane waves:    4022
 k-point 42 :  -0.2500-0.2500 0.4000  plane waves:    4015

 maximum and minimum number of plane-waves per node :      4051     4009

 maximum number of plane-waves:      4051
 maximum index in each direction: 
   IXMAX=   10   IYMAX=   10   IZMAX=   10
   IXMIN=  -11   IYMIN=  -11   IZMIN=  -10

 WARNING: aliasing errors must be expected set NGX to  44 to avoid them
 WARNING: aliasing errors must be expected set NGY to  44 to avoid them
 WARNING: aliasing errors must be expected set NGZ to  42 to avoid them
 aliasing errors are usually negligible using standard VASP settings
 and one can safely disregard these warnings

 serial   3D FFT for wavefunctions
 parallel 3D FFT for charge:
    minimum data exchange during FFTs selected (reduces bandwidth)


 FFT grid for exact exchange (Hartree Fock) 
  NGX = 24; NGY = 24; NGZ = 24

 
 Radii for the augmentation spheres in the non-local exchange
 for species   1 augmentation radius   1.120 (default was   0.830)
       energy cutoff for augmentation   1600.0
 for species   2 augmentation radius   1.570 (default was   1.163)
       energy cutoff for augmentation   1600.0
 for species   3 augmentation radius   1.034 (default was   0.970)
       energy cutoff for augmentation   1600.0

 total amount of memory used by VASP on root node   151697. kBytes
========================================================================

   base      :      30000. kBytes
   nonl-proj :      74517. kBytes
   fftplans  :        702. kBytes
   grid      :       2400. kBytes
   one-center:        186. kBytes
   HF        :        194. kBytes
   nonlr-proj:       1122. kBytes
   wavefun   :      42576. kBytes
 
 Broyden mixing: mesh for mixing (old mesh)
   NGX = 21   NGY = 21   NGZ = 21
  (NGX  = 64   NGY  = 64   NGZ  = 64)
  gives a total of   9261 points

 charge density for first step will be calculated from the start-wavefunctions


--------------------------------------------------------------------------------------------------------


 Maximum index for augmentation-charges          485 (set IRDMAX)


--------------------------------------------------------------------------------------------------------


 initial charge from wavefunction
 First call to EWALD:  gamma=   0.293
 Maximum number of real-space cells 3x 3x 3
 Maximum number of reciprocal cells 3x 3x 3

 FEWALD executed in parallel
    FEWALD:  cpu time    0.00: real time    0.00


----------------------------------------- Iteration    1(   1)  ---------------------------------------


    POTLOK:  cpu time    0.05: real time    0.05
    SETDIJ:  cpu time    2.01: real time    2.01
 
    SUBROT:  cpu time    1.61: real time    1.61
    SUBROT:  cpu time    0.33: real time    0.33
    SUBROT:  cpu time    0.32: real time    0.32
    --------------------------------------------
    SUBRT+:  cpu time    2.26: real time    2.27

 Broyden mixing:
  rms(total) = 0.32912E-01    rms(broyden)= 0.32898E-01
  rms(prec ) = 0.47781E-01
  weight for this iteration     100.00

 eigenvalues of (default mixing * dielectric matrix)
  average eigenvalue GAMMA=   1.7120
  0.9696  2.4544
 
    TRIAL :  cpu time  239.88: real time  239.67
    CORREC:  cpu time    0.00: real time    0.00
    CHARGE:  cpu time    0.06: real time    0.06
    --------------------------------------------
      LOOP:  cpu time  242.01: real time  241.80

 eigenvalue-minimisations  :     0
 total energy-change (2. order) : 0.7554521E+02  (-0.2132479E+03)
 number of electron     112.0001480 magnetization 
 augmentation part       38.9114165 magnetization 

 Free energy of the ion-electron system (eV)
  ---------------------------------------------------
  alpha Z        PSCENC =       339.31929130
  Ewald energy   TEWEN  =     -9063.89226471
  -1/2 Hartree   DENC   =     -8067.45032225
  -exchange  EXHF       =       327.44899765
  -V(xc)+E(xc)   XCENC  =       369.90405468
  PAW double counting   =     16899.26126265   -17392.07414994
  entropy T*S    EENTRO =        -0.00142796
  eigenvalues    EBANDS =     -1657.95534591
  atomic energy  EATOM  =     18320.98302006
  ---------------------------------------------------
  free energy    TOTEN  =        75.54520681 eV

  energy without entropy =       75.54663477  energy(sigma->0) =       75.54568280


--------------------------------------------------------------------------------------------------------




----------------------------------------- Iteration    1(   2)  ---------------------------------------


    POTLOK:  cpu time    0.05: real time    0.05
    SETDIJ:  cpu time    1.95: real time    1.95
 
    SUBROT:  cpu time    1.62: real time    1.62
    SUBROT:  cpu time    0.71: real time    0.71
    SUBROT:  cpu time    0.86: real time    0.86
    SUBROT:  cpu time    0.79: real time    0.79
    --------------------------------------------
    SUBRT+:  cpu time    3.99: real time    3.99

 Broyden mixing:
  rms(total) = 0.28056E-01    rms(broyden)= 0.28047E-01
  rms(prec ) = 0.51177E-01
  weight for this iteration     100.00

 eigenvalues of (default mixing * dielectric matrix)
  average eigenvalue GAMMA=   1.5611
  2.5475  1.2762  0.8596
 
    TRIAL :  cpu time  246.48: real time  246.26
    CORREC:  cpu time    0.00: real time    0.00
    CHARGE:  cpu time    0.10: real time    0.10
    --------------------------------------------
      LOOP:  cpu time  248.59: real time  248.38

 eigenvalue-minimisations  :     0
 total energy-change (2. order) :-0.8392416E+02  (-0.1468820E+03)
 number of electron     112.0001385 magnetization 
 augmentation part       35.4515792 magnetization 

 Free energy of the ion-electron system (eV)
  ---------------------------------------------------
  alpha Z        PSCENC =       339.31929130
  Ewald energy   TEWEN  =     -9063.89226471
  -1/2 Hartree   DENC   =     -8371.19647746
  -exchange  EXHF       =       338.95382372
  -V(xc)+E(xc)   XCENC  =       377.31953052
  PAW double counting   =     17401.25611678   -17940.39263298
  entropy T*S    EENTRO =        -0.00073845
  eigenvalues    EBANDS =     -1410.72793437
  atomic energy  EATOM  =     18320.98302006
  ---------------------------------------------------
  free energy    TOTEN  =        -8.37895510 eV

  energy without entropy =       -8.37821665  energy(sigma->0) =       -8.37870895


--------------------------------------------------------------------------------------------------------




----------------------------------------- Iteration    1(   3)  ---------------------------------------


    POTLOK:  cpu time    0.05: real time    0.05
    SETDIJ:  cpu time    1.99: real time    1.99
 
    SUBROT:  cpu time    1.90: real time    1.90
    SUBROT:  cpu time    0.70: real time    0.70
    SUBROT:  cpu time    0.67: real time    0.67
    SUBROT:  cpu time    0.86: real time    0.86
    --------------------------------------------
    SUBRT+:  cpu time    4.14: real time    4.14

 Broyden mixing:
  rms(total) = 0.28124E-01    rms(broyden)= 0.28113E-01
  rms(prec ) = 0.52407E-01
  weight for this iteration     100.00

 eigenvalues of (default mixing * dielectric matrix)
  average eigenvalue GAMMA=   1.7743
  1.0115  2.4990  1.8123
 
    TRIAL :  cpu time  249.05: real time  248.83
    CORREC:  cpu time    0.00: real time    0.00
    CHARGE:  cpu time    0.10: real time    0.10
    --------------------------------------------
      LOOP:  cpu time  251.19: real time  250.97

 eigenvalue-minimisations  :     0
 total energy-change (2. order) :-0.6762324E+01  (-0.2038185E+03)
 number of electron     112.0001510 magnetization 
 augmentation part       39.6859009 magnetization 

 Free energy of the ion-electron system (eV)
  ---------------------------------------------------
  alpha Z        PSCENC =       339.31929130
  Ewald energy   TEWEN  =     -9063.89226471
  -1/2 Hartree   DENC   =     -7478.08585171
  -exchange  EXHF       =       324.97156313
  -V(xc)+E(xc)   XCENC  =       357.38113102
  PAW double counting   =     15149.13877128   -15578.58616277
  entropy T*S    EENTRO =         0.00015293
  eigenvalues    EBANDS =     -2386.37003842
  atomic energy  EATOM  =     18320.98302006
  ---------------------------------------------------
  free energy    TOTEN  =       -15.14127928 eV

  energy without entropy =      -15.14143221  energy(sigma->0) =      -15.14133026


--------------------------------------------------------------------------------------------------------




----------------------------------------- Iteration    1(   4)  ---------------------------------------


    POTLOK:  cpu time    0.05: real time    0.05
    SETDIJ:  cpu time    1.98: real time    1.98
 
    SUBROT:  cpu time    0.76: real time    0.76
    SUBROT:  cpu time    0.33: real time    0.33
    SUBROT:  cpu time    0.32: real time    0.32
    SUBROT:  cpu time    0.33: real time    0.33
    SUBROT:  cpu time    0.34: real time    0.34
    --------------------------------------------
    SUBRT+:  cpu time    2.07: real time    2.08

 Broyden mixing:
  rms(total) = 0.13313E+00    rms(broyden)= 0.13294E+00
  rms(prec ) = 0.23309E+00
  weight for this iteration     100.00

 eigenvalues of (default mixing * dielectric matrix)
  average eigenvalue GAMMA=   1.1441
  2.4977  1.1309  0.5905  0.3574
 
    TRIAL :  cpu time  247.86: real time  247.65
    CORREC:  cpu time    0.00: real time    0.00
    CHARGE:  cpu time    0.10: real time    0.10
    --------------------------------------------
      LOOP:  cpu time  249.99: real time  249.78

 eigenvalue-minimisations  :     0
 total energy-change (2. order) :-0.7472174E+01  (-0.1074924E+03)
 number of electron     112.0001430 magnetization 
 augmentation part       37.2355816 magnetization 

 Free energy of the ion-electron system (eV)
  ---------------------------------------------------
  alpha Z        PSCENC =       339.31929130
  Ewald energy   TEWEN  =     -9063.89226471
  -1/2 Hartree   DENC   =     -8544.48485738
  -exchange  EXHF       =       342.99455286
  -V(xc)+E(xc)   XCENC  =       381.66214528
  PAW double counting   =     17634.48002068   -18215.30632320
  entropy T*S    EENTRO =         0.00038269
  eigenvalues    EBANDS =     -1218.36919109
  atomic energy  EATOM  =     18320.98302006
  ---------------------------------------------------
  free energy    TOTEN  =       -22.61345327 eV

  energy without entropy =      -22.61383596  energy(sigma->0) =      -22.61358083


--------------------------------------------------------------------------------------------------------




----------------------------------------- Iteration    1(   5)  ---------------------------------------


    POTLOK:  cpu time    0.05: real time    0.05
    SETDIJ:  cpu time    1.99: real time    1.99
 
    SUBROT:  cpu time    0.69: real time    0.69
    SUBROT:  cpu time    0.34: real time    0.34
    SUBROT:  cpu time    0.33: real time    0.33
    SUBROT:  cpu time    0.33: real time    0.33
    --------------------------------------------
    SUBRT+:  cpu time    1.69: real time    1.70

 Broyden mixing:
  rms(total) = 0.49879E-01    rms(broyden)= 0.49867E-01
  rms(prec ) = 0.99992E-01
  weight for this iteration     100.00

 eigenvalues of (default mixing * dielectric matrix)
  average eigenvalue GAMMA=   1.6866
  2.4539  0.9360  1.6700
 
    TRIAL :  cpu time  249.51: real time  249.29
    CORREC:  cpu time    0.00: real time    0.00
    CHARGE:  cpu time    0.11: real time    0.11
    --------------------------------------------
      LOOP:  cpu time  251.67: real time  251.45

 eigenvalue-minimisations  :     0
 total energy-change (2. order) :-0.3817393E+02  (-0.1511867E+02)
 number of electron     112.0001430 magnetization 
 augmentation part       37.2411285 magnetization 

 Free energy of the ion-electron system (eV)
  ---------------------------------------------------
  alpha Z        PSCENC =       339.31929130
  Ewald energy   TEWEN  =     -9063.89226471
  -1/2 Hartree   DENC   =     -8006.57636005
  -exchange  EXHF       =       336.33387440
  -V(xc)+E(xc)   XCENC  =       368.34796226
  PAW double counting   =     15866.15507294   -16335.46908375
  entropy T*S    EENTRO =         0.00063829
  eigenvalues    EBANDS =     -1885.98927948
  atomic energy  EATOM  =     18320.98302006
  ---------------------------------------------------
  free energy    TOTEN  =       -60.78738435 eV

  energy without entropy =      -60.78802263  energy(sigma->0) =      -60.78759711


--------------------------------------------------------------------------------------------------------




----------------------------------------- Iteration    1(   6)  ---------------------------------------


    POTLOK:  cpu time    0.05: real time    0.05
    SETDIJ:  cpu time    1.95: real time    1.95
 
    SUBROT:  cpu time    0.65: real time    0.65
    SUBROT:  cpu time    0.32: real time    0.33
    SUBROT:  cpu time    0.33: real time    0.33
    SUBROT:  cpu time    0.34: real time    0.34
    --------------------------------------------
    SUBRT+:  cpu time    1.65: real time    1.66

 Broyden mixing:
  rms(total) = 0.28095E-02    rms(broyden)= 0.28089E-02
  rms(prec ) = 0.46176E-02
  weight for this iteration     100.00

 eigenvalues of (default mixing * dielectric matrix)
  average eigenvalue GAMMA=   1.8319
  1.0059  1.9607  2.5292
 
    TRIAL :  cpu time  260.28: real time  260.07
    CORREC:  cpu time    0.00: real time    0.00
    CHARGE:  cpu time    0.11: real time    0.11
    --------------------------------------------
      LOOP:  cpu time  262.40: real time  262.18

 eigenvalue-minimisations  :     0
 total energy-change (2. order) :-0.5116024E+01  (-0.8232864E+01)
 number of electron     112.0001460 magnetization 
 augmentation part       38.2295914 magnetization 

 Free energy of the ion-electron system (eV)
  ---------------------------------------------------
  alpha Z        PSCENC =       339.31929130
  Ewald energy   TEWEN  =     -9063.89226471
  -1/2 Hartree   DENC   =     -8000.06346908
  -exchange  EXHF       =       337.09676689
  -V(xc)+E(xc)   XCENC  =       368.74872690
  PAW double counting   =     15768.57729136   -16237.72873212
  entropy T*S    EENTRO =         0.00069597
  eigenvalues    EBANDS =     -1898.94467703
  atomic energy  EATOM  =     18320.98302006
  ---------------------------------------------------
  free energy    TOTEN  =       -65.90340816 eV

  energy without entropy =      -65.90410413  energy(sigma->0) =      -65.90364015


--------------------------------------------------------------------------------------------------------




----------------------------------------- Iteration    1(   7)  ---------------------------------------


    POTLOK:  cpu time    0.05: real time    0.05
    SETDIJ:  cpu time    1.95: real time    1.95
 
    SUBROT:  cpu time    0.65: real time    0.65
    SUBROT:  cpu time    0.32: real time    0.32
    SUBROT:  cpu time    0.32: real time    0.32
    SUBROT:  cpu time    0.32: real time    0.32
    --------------------------------------------
    SUBRT+:  cpu time    1.60: real time    1.65

 Broyden mixing:
  rms(total) = 0.13556E-01    rms(broyden)= 0.13552E-01
  rms(prec ) = 0.23935E-01
  weight for this iteration     100.00

 eigenvalues of (default mixing * dielectric matrix)
  average eigenvalue GAMMA=   1.5557
  2.4997  1.2903  0.8772
 
    TRIAL :  cpu time  251.52: real time  251.34
    CORREC:  cpu time    0.00: real time    0.00
    CHARGE:  cpu time    0.10: real time    0.10
    --------------------------------------------
      LOOP:  cpu time  253.63: real time  253.45

 eigenvalue-minimisations  :     0
 total energy-change (2. order) :-0.1549603E+01  (-0.4174548E+01)
 number of electron     112.0001443 magnetization 
 augmentation part       37.7022089 magnetization 

 Free energy of the ion-electron system (eV)
  ---------------------------------------------------
  alpha Z        PSCENC =       339.31929130
  Ewald energy   TEWEN  =     -9063.89226471
  -1/2 Hartree   DENC   =     -8244.22487209
  -exchange  EXHF       =       341.60531544
  -V(xc)+E(xc)   XCENC  =       374.56444655
  PAW double counting   =     16208.96107730   -16712.60227062
  entropy T*S    EENTRO =         0.00044706
  eigenvalues    EBANDS =     -1632.16744991
  atomic energy  EATOM  =     18320.98302006
  ---------------------------------------------------
  free energy    TOTEN  =       -67.45301071 eV

  energy without entropy =      -67.45345777  energy(sigma->0) =      -67.45315973


--------------------------------------------------------------------------------------------------------




----------------------------------------- Iteration    1(   8)  ---------------------------------------


    POTLOK:  cpu time    0.05: real time    0.05
    SETDIJ:  cpu time    1.97: real time    1.97
 
    SUBROT:  cpu time    0.66: real time    0.66
    SUBROT:  cpu time    0.32: real time    0.32
    SUBROT:  cpu time    0.35: real time    0.35
    SUBROT:  cpu time    0.33: real time    0.33
    --------------------------------------------
    SUBRT+:  cpu time    1.66: real time    1.66

 Broyden mixing:
  rms(total) = 0.86465E-02    rms(broyden)= 0.86440E-02
  rms(prec ) = 0.14414E-01
  weight for this iteration     100.00

 eigenvalues of (default mixing * dielectric matrix)
  average eigenvalue GAMMA=   1.6600
  2.4596  0.9451  1.5752
 
    TRIAL :  cpu time  248.79: real time  248.57
    CORREC:  cpu time    0.00: real time    0.00
    CHARGE:  cpu time    0.10: real time    0.10
    --------------------------------------------
      LOOP:  cpu time  250.91: real time  250.69

 eigenvalue-minimisations  :     0
 total energy-change (2. order) :-0.1626461E+01  (-0.7781686E+00)
 number of electron     112.0001443 magnetization 
 augmentation part       37.7230863 magnetization 

 Free energy of the ion-electron system (eV)
  ---------------------------------------------------
  alpha Z        PSCENC =       339.31929130
  Ewald energy   TEWEN  =     -9063.89226471
  -1/2 Hartree   DENC   =     -8116.58856841
  -exchange  EXHF       =       339.49109103
  -V(xc)+E(xc)   XCENC  =       371.35822158
  PAW double counting   =     15915.04506536   -16396.39992264
  entropy T*S    EENTRO =         0.00073160
  eigenvalues    EBANDS =     -1778.39585268
  atomic energy  EATOM  =     18320.98302006
  ---------------------------------------------------
  free energy    TOTEN  =       -69.07947206 eV

  energy without entropy =      -69.08020366  energy(sigma->0) =      -69.07971592


--------------------------------------------------------------------------------------------------------




----------------------------------------- Iteration    1(   9)  ---------------------------------------


    POTLOK:  cpu time    0.05: real time    0.05
    SETDIJ:  cpu time    1.97: real time    1.97
 
    SUBROT:  cpu time    0.70: real time    0.70
    SUBROT:  cpu time    0.34: real time    0.34
    SUBROT:  cpu time    0.33: real time    0.33
    SUBROT:  cpu time    0.34: real time    0.34
    --------------------------------------------
    SUBRT+:  cpu time    1.71: real time    1.71

 Broyden mixing:
  rms(total) = 0.50183E-03    rms(broyden)= 0.50119E-03
  rms(prec ) = 0.81526E-03
  weight for this iteration     100.00

 eigenvalues of (default mixing * dielectric matrix)
  average eigenvalue GAMMA=   1.6956
  2.5243  1.0006  1.5619
 
    TRIAL :  cpu time  246.45: real time  246.23
    CORREC:  cpu time    0.00: real time    0.00
    CHARGE:  cpu time    0.06: real time    0.06
    --------------------------------------------
      LOOP:  cpu time  248.53: real time  248.32

 eigenvalue-minimisations  :     0
 total energy-change (2. order) :-0.3143543E+00  (-0.3887507E+00)
 number of electron     112.0001449 magnetization 
 augmentation part       37.9056756 magnetization 

 Free energy of the ion-electron system (eV)
  ---------------------------------------------------
  alpha Z        PSCENC =       339.31929130
  Ewald energy   TEWEN  =     -9063.89226471
  -1/2 Hartree   DENC   =     -8124.86371737
  -exchange  EXHF       =       339.57931132
  -V(xc)+E(xc)   XCENC  =       371.43494306
  PAW double counting   =     15912.43997425   -16393.70922400
  entropy T*S    EENTRO =         0.00086671
  eigenvalues    EBANDS =     -1770.68589189
  atomic energy  EATOM  =     18320.98302006
  ---------------------------------------------------
  free energy    TOTEN  =       -69.39382637 eV

  energy without entropy =      -69.39469308  energy(sigma->0) =      -69.39411528


--------------------------------------------------------------------------------------------------------




----------------------------------------- Iteration    1(  10)  ---------------------------------------


    POTLOK:  cpu time    0.05: real time    0.05
    SETDIJ:  cpu time    1.97: real time    1.97
 
    SUBROT:  cpu time    1.46: real time    1.46
    SUBROT:  cpu time    0.82: real time    0.82
    SUBROT:  cpu time    0.86: real time    0.86
    SUBROT:  cpu time    0.35: real time    0.35
    --------------------------------------------
    SUBRT+:  cpu time    3.49: real time    3.51

 Broyden mixing:
  rms(total) = 0.23211E-02    rms(broyden)= 0.23206E-02
  rms(prec ) = 0.38858E-02
  weight for this iteration     100.00

 eigenvalues of (default mixing * dielectric matrix)
  average eigenvalue GAMMA=   1.6828
  2.4749  0.9875  1.5860
 
    TRIAL :  cpu time  250.04: real time  249.84
    CORREC:  cpu time    0.00: real time    0.00
    CHARGE:  cpu time    0.10: real time    0.10
    --------------------------------------------
      LOOP:  cpu time  252.17: real time  251.97

 eigenvalue-minimisations  :     0
 total energy-change (2. order) :-0.1041965E+00  (-0.1538917E+00)
 number of electron     112.0001447 magnetization 
 augmentation part       37.8176252 magnetization 

 Free energy of the ion-electron system (eV)
  ---------------------------------------------------
  alpha Z        PSCENC =       339.31929130
  Ewald energy   TEWEN  =     -9063.89226471
  -1/2 Hartree   DENC   =     -8172.62926098
  -exchange  EXHF       =       340.39257027
  -V(xc)+E(xc)   XCENC  =       372.54152689
  PAW double counting   =     15994.85073955   -16482.87403901
  entropy T*S    EENTRO =         0.00071929
  eigenvalues    EBANDS =     -1718.19047292
  atomic energy  EATOM  =     18320.98302006
  ---------------------------------------------------
  free energy    TOTEN  =       -69.49802284 eV

  energy without entropy =      -69.49874213  energy(sigma->0) =      -69.49826260


--------------------------------------------------------------------------------------------------------




----------------------------------------- Iteration    1(  11)  ---------------------------------------


    POTLOK:  cpu time    0.05: real time    0.05
    SETDIJ:  cpu time    1.99: real time    1.99
 
    SUBROT:  cpu time    1.32: real time    1.32
    SUBROT:  cpu time    0.78: real time    0.78
    SUBROT:  cpu time    0.75: real time    0.75
    SUBROT:  cpu time    0.76: real time    0.76
    --------------------------------------------
    SUBRT+:  cpu time    3.62: real time    3.63

 Broyden mixing:
  rms(total) = 0.79665E-03    rms(broyden)= 0.79640E-03
  rms(prec ) = 0.15897E-02
  weight for this iteration     100.00

 eigenvalues of (default mixing * dielectric matrix)
  average eigenvalue GAMMA=   1.6566
  2.4966  0.9830  1.4901
 
    TRIAL :  cpu time  252.41: real time  252.19
    CORREC:  cpu time    0.00: real time    0.00
    CHARGE:  cpu time    0.10: real time    0.10
    --------------------------------------------
      LOOP:  cpu time  254.55: real time  254.34

 eigenvalue-minimisations  :     0
 total energy-change (2. order) :-0.7025842E-01  (-0.3685297E-01)
 number of electron     112.0001446 magnetization 
 augmentation part       37.7849710 magnetization 

 Free energy of the ion-electron system (eV)
  ---------------------------------------------------
  alpha Z        PSCENC =       339.31929130
  Ewald energy   TEWEN  =     -9063.89226471
  -1/2 Hartree   DENC   =     -8151.04660188
  -exchange  EXHF       =       340.06205536
  -V(xc)+E(xc)   XCENC  =       372.06352748
  PAW double counting   =     15942.19183230   -16427.13126145
  entropy T*S    EENTRO =         0.00060078
  eigenvalues    EBANDS =     -1742.11859902
  atomic energy  EATOM  =     18320.98302006
  ---------------------------------------------------
  free energy    TOTEN  =       -69.56828126 eV

  energy without entropy =      -69.56888204  energy(sigma->0) =      -69.56848152


--------------------------------------------------------------------------------------------------------




----------------------------------------- Iteration    1(  12)  ---------------------------------------


    POTLOK:  cpu time    0.05: real time    0.05
    SETDIJ:  cpu time    1.97: real time    1.97
 
    SUBROT:  cpu time    0.73: real time    0.73
    SUBROT:  cpu time    0.34: real time    0.34
    SUBROT:  cpu time    0.35: real time    0.35
    SUBROT:  cpu time    0.34: real time    0.34
    --------------------------------------------
    SUBRT+:  cpu time    1.77: real time    1.78

 Broyden mixing:
  rms(total) = 0.21009E-03    rms(broyden)= 0.21000E-03
  rms(prec ) = 0.45722E-03
  weight for this iteration     100.00

 eigenvalues of (default mixing * dielectric matrix)
  average eigenvalue GAMMA=   1.6488
  2.5062  0.9988  1.4414
 
    TRIAL :  cpu time  248.41: real time  248.20
    CORREC:  cpu time    0.00: real time    0.00
    CHARGE:  cpu time    0.10: real time    0.10
    --------------------------------------------
      LOOP:  cpu time  250.54: real time  250.34

 eigenvalue-minimisations  :     0
 total energy-change (2. order) :-0.1231782E-01  (-0.2304502E-01)
 number of electron     112.0001447 magnetization 
 augmentation part       37.8256071 magnetization 

 Free energy of the ion-electron system (eV)
  ---------------------------------------------------
  alpha Z        PSCENC =       339.31929130
  Ewald energy   TEWEN  =     -9063.89226471
  -1/2 Hartree   DENC   =     -8142.71363376
  -exchange  EXHF       =       339.94689638
  -V(xc)+E(xc)   XCENC  =       371.88939022
  PAW double counting   =     15920.24868432   -16404.10580502
  entropy T*S    EENTRO =         0.00054896
  eigenvalues    EBANDS =     -1751.25677864
  atomic energy  EATOM  =     18320.98302006
  ---------------------------------------------------
  free energy    TOTEN  =       -69.58059908 eV

  energy without entropy =      -69.58114804  energy(sigma->0) =      -69.58078207


--------------------------------------------------------------------------------------------------------




----------------------------------------- Iteration    1(  13)  ---------------------------------------


    POTLOK:  cpu time    0.05: real time    0.05
    SETDIJ:  cpu time    1.96: real time    1.96
 
    SUBROT:  cpu time    0.71: real time    0.71
    SUBROT:  cpu time    0.35: real time    0.35
    SUBROT:  cpu time    0.35: real time    0.35
    SUBROT:  cpu time    0.35: real time    0.35
    --------------------------------------------
    SUBRT+:  cpu time    1.76: real time    1.77

 Broyden mixing:
  rms(total) = 0.55697E-03    rms(broyden)= 0.55686E-03
  rms(prec ) = 0.94908E-03
  weight for this iteration     100.00

 eigenvalues of (default mixing * dielectric matrix)
  average eigenvalue GAMMA=   1.6929
  2.4804  0.9957  1.6027
 
    TRIAL :  cpu time  250.97: real time  250.77
    CORREC:  cpu time    0.00: real time    0.00
    CHARGE:  cpu time    0.09: real time    0.09
    --------------------------------------------
      LOOP:  cpu time  253.07: real time  252.87

 eigenvalue-minimisations  :     0
 total energy-change (2. order) :-0.9739630E-02  (-0.5148341E-02)
 number of electron     112.0001447 magnetization 
 augmentation part       37.8294187 magnetization 

 Free energy of the ion-electron system (eV)
  ---------------------------------------------------
  alpha Z        PSCENC =       339.31929130
  Ewald energy   TEWEN  =     -9063.89226471
  -1/2 Hartree   DENC   =     -8152.68637432
  -exchange  EXHF       =       340.12035651
  -V(xc)+E(xc)   XCENC  =       372.12496702
  PAW double counting   =     15936.44679737   -16421.80972329
  entropy T*S    EENTRO =         0.00053760
  eigenvalues    EBANDS =     -1740.19695760
  atomic energy  EATOM  =     18320.98302006
  ---------------------------------------------------
  free energy    TOTEN  =       -69.59033871 eV

  energy without entropy =      -69.59087631  energy(sigma->0) =      -69.59051791


--------------------------------------------------------------------------------------------------------




----------------------------------------- Iteration    1(  14)  ---------------------------------------


    POTLOK:  cpu time    0.05: real time    0.05
    SETDIJ:  cpu time    1.99: real time    1.99
 
    SUBROT:  cpu time    1.50: real time    1.50
    SUBROT:  cpu time    0.74: real time    0.74
    SUBROT:  cpu time    0.71: real time    0.71
    SUBROT:  cpu time    0.69: real time    0.69
    --------------------------------------------
    SUBRT+:  cpu time    3.64: real time    3.65

 Broyden mixing:
  rms(total) = 0.69094E-04    rms(broyden)= 0.69080E-04
  rms(prec ) = 0.14222E-03
  weight for this iteration     100.00

 eigenvalues of (default mixing * dielectric matrix)
  average eigenvalue GAMMA=   1.6681
  2.5162  0.9901  1.4982
 
    TRIAL :  cpu time  253.53: real time  253.32
    CORREC:  cpu time    0.00: real time    0.00
    CHARGE:  cpu time    0.09: real time    0.09
    --------------------------------------------
      LOOP:  cpu time  255.67: real time  255.46

 eigenvalue-minimisations  :     0
 total energy-change (2. order) :-0.2479105E-02  (-0.3812609E-02)
 number of electron     112.0001447 magnetization 
 augmentation part       37.8117560 magnetization 

 Free energy of the ion-electron system (eV)
  ---------------------------------------------------
  alpha Z        PSCENC =       339.31929130
  Ewald energy   TEWEN  =     -9063.89226471
  -1/2 Hartree   DENC   =     -8153.18697901
  -exchange  EXHF       =       340.11768563
  -V(xc)+E(xc)   XCENC  =       372.13364215
  PAW double counting   =     15934.26811082   -16419.79438943
  entropy T*S    EENTRO =         0.00055515
  eigenvalues    EBANDS =     -1739.54147223
  atomic energy  EATOM  =     18320.98302006
  ---------------------------------------------------
  free energy    TOTEN  =       -69.59281782 eV

  energy without entropy =      -69.59337296  energy(sigma->0) =      -69.59300286


--------------------------------------------------------------------------------------------------------




----------------------------------------- Iteration    1(  15)  ---------------------------------------


    POTLOK:  cpu time    0.05: real time    0.05
    SETDIJ:  cpu time    1.96: real time    1.96
 
    SUBROT:  cpu time    1.74: real time    1.74
    SUBROT:  cpu time    1.04: real time    1.04
    SUBROT:  cpu time    0.95: real time    0.95
    SUBROT:  cpu time    0.80: real time    0.80
    --------------------------------------------
    SUBRT+:  cpu time    4.53: real time    4.53

 Broyden mixing:
  rms(total) = 0.19245E-03    rms(broyden)= 0.19239E-03
  rms(prec ) = 0.32874E-03
  weight for this iteration     100.00

 eigenvalues of (default mixing * dielectric matrix)
  average eigenvalue GAMMA=   1.6865
  2.4717  0.9889  1.5988
 
    TRIAL :  cpu time  255.39: real time  255.17
    CORREC:  cpu time    0.00: real time    0.00
    CHARGE:  cpu time    0.11: real time    0.11
    --------------------------------------------
      LOOP:  cpu time  257.52: real time  257.30

 eigenvalue-minimisations  :     0
 total energy-change (2. order) :-0.1521008E-02  (-0.1049862E-02)
 number of electron     112.0001447 magnetization 
 augmentation part       37.8161108 magnetization 

 Free energy of the ion-electron system (eV)
  ---------------------------------------------------
  alpha Z        PSCENC =       339.31929130
  Ewald energy   TEWEN  =     -9063.89226471
  -1/2 Hartree   DENC   =     -8148.43870612
  -exchange  EXHF       =       340.02787838
  -V(xc)+E(xc)   XCENC  =       372.02167280
  PAW double counting   =     15922.12424837   -16407.03796136
  entropy T*S    EENTRO =         0.00056810
  eigenvalues    EBANDS =     -1744.70207268
  atomic energy  EATOM  =     18320.98302006
  ---------------------------------------------------
  free energy    TOTEN  =       -69.59433882 eV

  energy without entropy =      -69.59490692  energy(sigma->0) =      -69.59452819


--------------------------------------------------------------------------------------------------------




----------------------------------------- Iteration    1(  16)  ---------------------------------------


    POTLOK:  cpu time    0.05: real time    0.05
    SETDIJ:  cpu time    1.97: real time    1.97
 
    SUBROT:  cpu time    0.74: real time    0.74
    SUBROT:  cpu time    0.35: real time    0.35
    SUBROT:  cpu time    0.35: real time    0.35
    SUBROT:  cpu time    0.36: real time    0.36
    --------------------------------------------
    SUBRT+:  cpu time    1.80: real time    1.82

 Broyden mixing:
  rms(total) = 0.87007E-04    rms(broyden)= 0.86989E-04
  rms(prec ) = 0.14421E-03
  weight for this iteration     100.00

 eigenvalues of (default mixing * dielectric matrix)
  average eigenvalue GAMMA=   1.6793
  2.4873  0.9885  1.5620
 
    TRIAL :  cpu time  257.23: real time  257.02
    CORREC:  cpu time    0.00: real time    0.00
    CHARGE:  cpu time    0.11: real time    0.11
    --------------------------------------------
      LOOP:  cpu time  259.37: real time  259.15

 eigenvalue-minimisations  :     0
 total energy-change (2. order) :-0.5798367E-03  (-0.4136565E-03)
 number of electron     112.0001447 magnetization 
 augmentation part       37.8209431 magnetization 

 Free energy of the ion-electron system (eV)
  ---------------------------------------------------
  alpha Z        PSCENC =       339.31929130
  Ewald energy   TEWEN  =     -9063.89226471
  -1/2 Hartree   DENC   =     -8149.56268033
  -exchange  EXHF       =       340.04655940
  -V(xc)+E(xc)   XCENC  =       372.04907939
  PAW double counting   =     15922.96439148   -16408.06912682
  entropy T*S    EENTRO =         0.00056913
  eigenvalues    EBANDS =     -1743.43375653
  atomic energy  EATOM  =     18320.98302006
  ---------------------------------------------------
  free energy    TOTEN  =       -69.59491866 eV

[...]
     22      -2.2878      2.00000
     23      -1.9500      2.00000
     24      -1.6191      2.00000
     25      -1.2183      2.00000
     26      -1.0051      2.00000
     27      -0.9758      2.00000
     28      -0.7125      2.00000
     29      -0.5534      2.00000
     30      -0.3918      2.00000
     31      -0.2883      2.00000
     32      -0.1977      2.00000
     33      -0.1829      2.00000
     34      -0.1397      2.00000
     35      -0.0188      2.00000
     36       0.0181      2.00000
     37       1.2950      2.00000
     38       1.3069      2.00000
     39       1.3691      2.00000
     40       1.4105      2.00000
     41       1.4485      2.00000
     42       1.4646      2.00000
     43       1.5054      2.00000
     44       1.5504      2.00000
     45       1.7638      2.00000
     46       1.8928      2.00000
     47       1.9822      2.00000
     48       2.1509      2.00000
     49       2.3710      2.00000
     50       2.5760      2.00000
     51       2.7046      2.00000
     52       2.9115      2.00000
     53       3.0149      2.00000
     54       3.2207      2.00000
     55       3.3980      2.00000
     56       3.6569      2.00000
     57       6.3765     -0.00000
     58       6.5150     -0.00000
     59       7.7131      0.00000
     60       7.9013      0.00000
     61       8.2992      0.00000
     62       8.5742      0.00000
     63       9.3264      0.00000
     64       9.8433      0.00000
     65      10.0217      0.00000
     66      10.3523      0.00000
     67      10.5835      0.00000
     68      10.7886      0.00000
     69      10.9757      0.00000
     70      11.2531      0.00000
     71      11.3066      0.00000
     72      11.7098      0.00000
     73      12.2506      0.00000
     74      12.4637      0.00000
     75      13.0961      0.00000
     76      13.4872      0.00000
     77      13.8260      0.00000
     78      14.6898      0.00000
     79      15.0057      0.00000
     80      15.7232      0.00000

 k-point  40 :       0.2500   -0.2500    0.4000
  band No.  band energies     occupation 
      1     -68.6554      2.00000
      2     -68.6456      2.00000
      3     -68.6332      2.00000
      4     -68.6292      2.00000
      5     -68.6218      2.00000
      6     -68.6137      2.00000
      7     -68.6046      2.00000
      8     -68.5964      2.00000
      9     -68.5772      2.00000
     10     -68.5728      2.00000
     11     -68.5603      2.00000
     12     -68.5554      2.00000
     13     -12.2183      2.00000
     14     -11.8170      2.00000
     15     -10.8232      2.00000
     16     -10.6699      2.00000
     17     -10.3477      2.00000
     18     -10.2739      2.00000
     19      -5.4475      2.00000
     20      -5.1164      2.00000
     21      -2.4279      2.00000
     22      -2.1550      2.00000
     23      -2.0163      2.00000
     24      -1.5214      2.00000
     25      -1.3572      2.00000
     26      -1.1658      2.00000
     27      -0.9382      2.00000
     28      -0.8141      2.00000
     29      -0.5872      2.00000
     30      -0.5336      2.00000
     31      -0.2775      2.00000
     32      -0.2408      2.00000
     33      -0.1364      2.00000
     34      -0.0916      2.00000
     35      -0.0272      2.00000
     36       0.0341      2.00000
     37       1.3110      2.00000
     38       1.3432      2.00000
     39       1.3630      2.00000
     40       1.3942      2.00000
     41       1.4527      2.00000
     42       1.4819      2.00000
     43       1.4993      2.00000
     44       1.5650      2.00000
     45       1.8026      2.00000
     46       1.8460      2.00000
     47       1.9609      2.00000
     48       2.1095      2.00000
     49       2.2958      2.00000
     50       2.5289      2.00000
     51       2.6418      2.00000
     52       2.7713      2.00000
     53       2.9286      2.00000
     54       3.1569      2.00000
     55       3.3050      2.00000
     56       3.5760      2.00000
     57       6.5588     -0.00000
     58       6.7139     -0.00000
     59       7.9613      0.00000
     60       7.9968      0.00000
     61       8.7305      0.00000
     62       9.0910      0.00000
     63       9.4578      0.00000
     64       9.8231      0.00000
     65      10.2944      0.00000
     66      10.3701      0.00000
     67      10.7790      0.00000
     68      10.8518      0.00000
     69      11.1148      0.00000
     70      11.2708      0.00000
     71      11.3721      0.00000
     72      11.6184      0.00000
     73      12.0478      0.00000
     74      12.2967      0.00000
     75      12.6492      0.00000
     76      13.1256      0.00000
     77      13.2873      0.00000
     78      14.2436      0.00000
     79      15.6259      0.00000
     80      15.8358      0.00000

 k-point  41 :       0.5000   -0.2500    0.4000
  band No.  band energies     occupation 
      1     -68.6553      2.00000
      2     -68.6456      2.00000
      3     -68.6330      2.00000
      4     -68.6290      2.00000
      5     -68.6218      2.00000
      6     -68.6137      2.00000
      7     -68.6045      2.00000
      8     -68.5962      2.00000
      9     -68.5772      2.00000
     10     -68.5728      2.00000
     11     -68.5602      2.00000
     12     -68.5553      2.00000
     13     -12.0779      2.00000
     14     -11.7745      2.00000
     15     -10.8466      2.00000
     16     -10.7584      2.00000
     17     -10.5299      2.00000
     18     -10.3140      2.00000
     19      -5.4206      2.00000
     20      -4.9409      2.00000
     21      -2.4003      2.00000
     22      -2.1291      2.00000
     23      -1.8625      2.00000
     24      -1.7212      2.00000
     25      -1.4468      2.00000
     26      -1.1218      2.00000
     27      -0.8837      2.00000
     28      -0.6471      2.00000
     29      -0.6032      2.00000
     30      -0.4462      2.00000
     31      -0.2682      2.00000
     32      -0.1843      2.00000
     33      -0.1217      2.00000
     34      -0.0529      2.00000
     35      -0.0234      2.00000
     36       0.0220      2.00000
     37       1.2608      2.00000
     38       1.3148      2.00000
     39       1.4089      2.00000
     40       1.4342      2.00000
     41       1.4839      2.00000
     42       1.4923      2.00000
     43       1.5171      2.00000
     44       1.5743      2.00000
     45       1.7614      2.00000
     46       1.8421      2.00000
     47       2.1177      2.00000
     48       2.1863      2.00000
     49       2.3657      2.00000
     50       2.4605      2.00000
     51       2.4926      2.00000
     52       2.6943      2.00000
     53       2.8240      2.00000
     54       3.0886      2.00000
     55       3.2897      2.00000
     56       3.5249      2.00000
     57       6.4886     -0.00000
     58       6.5838     -0.00000
     59       7.4507      0.00000
     60       7.7164      0.00000
     61       8.5891      0.00000
     62       8.7439      0.00000
     63       9.2960      0.00000
     64       9.5337      0.00000
     65       9.9505      0.00000
     66      10.1880      0.00000
     67      10.6813      0.00000
     68      11.1165      0.00000
     69      11.2439      0.00000
     70      11.5667      0.00000
     71      11.7065      0.00000
     72      11.8948      0.00000
     73      12.2987      0.00000
     74      12.6541      0.00000
     75      13.0133      0.00000
     76      13.2328      0.00000
     77      13.6964      0.00000
     78      14.0673      0.00000
     79      14.3874      0.00000
     80      16.5203      0.00000

 k-point  42 :      -0.2500   -0.2500    0.4000
  band No.  band energies     occupation 
      1     -68.6555      2.00000
      2     -68.6457      2.00000
      3     -68.6329      2.00000
      4     -68.6290      2.00000
      5     -68.6218      2.00000
      6     -68.6137      2.00000
      7     -68.6045      2.00000
      8     -68.5962      2.00000
      9     -68.5772      2.00000
     10     -68.5728      2.00000
     11     -68.5604      2.00000
     12     -68.5555      2.00000
     13     -12.1773      2.00000
     14     -11.7041      2.00000
     15     -10.7159      2.00000
     16     -10.6924      2.00000
     17     -10.5846      2.00000
     18     -10.3911      2.00000
     19      -5.4465      2.00000
     20      -5.0719      2.00000
     21      -2.5090      2.00000
     22      -2.3789      2.00000
     23      -1.9617      2.00000
     24      -1.3690      2.00000
     25      -1.3294      2.00000
     26      -1.0521      2.00000
     27      -0.8316      2.00000
     28      -0.7659      2.00000
     29      -0.4245      2.00000
     30      -0.3417      2.00000
     31      -0.2728      2.00000
     32      -0.2079      2.00000
     33      -0.1444      2.00000
     34      -0.1402      2.00000
     35      -0.0141      2.00000
     36       0.0277      2.00000
     37       1.1717      2.00000
     38       1.3702      2.00000
     39       1.3964      2.00000
     40       1.4505      2.00000
     41       1.4537      2.00000
     42       1.4993      2.00000
     43       1.5172      2.00000
     44       1.5466      2.00000
     45       1.7446      2.00000
     46       1.8198      2.00000
     47       1.9723      2.00000
     48       2.2246      2.00000
     49       2.3975      2.00000
     50       2.6146      2.00000
     51       2.6557      2.00000
     52       2.9165      2.00000
     53       3.0688      2.00000
     54       3.1194      2.00000
     55       3.2866      2.00000
     56       3.5820      2.00000
     57       6.2857     -0.00000
     58       6.3782     -0.00000
     59       7.3521      0.00000
     60       7.5260      0.00000
     61       8.3085      0.00000
     62       8.3327      0.00000
     63       9.1074      0.00000
     64       9.3602      0.00000
     65       9.7167      0.00000
     66       9.9455      0.00000
     67      10.5237      0.00000
     68      10.9901      0.00000
     69      11.4236      0.00000
     70      11.5622      0.00000
     71      12.0134      0.00000
     72      12.2906      0.00000
     73      12.4295      0.00000
     74      12.4797      0.00000
     75      13.0344      0.00000
     76      13.1427      0.00000
     77      14.1385      0.00000
     78      14.4435      0.00000
     79      15.1713      0.00000
     80      15.8736      0.00000


--------------------------------------------------------------------------------------------------------


 soft charge-density along one line, spin component           1
         0         1         2         3         4         5         6         7         8         9
 total charge-density along one line
 
 pseudopotential strength for first ion, spin component:           1
-65.424   0.002   0.006   7.363   0.000  -0.003   0.001   0.007
  0.002 -65.394  -0.005   0.000   7.353   0.001  -0.001  -0.024
  0.006  -0.005 -65.384  -0.003   0.001   7.349  -0.037  -0.001
  7.363   0.000  -0.003   6.110   0.000   0.001   0.002  -0.003
  0.000   7.353   0.001   0.000   6.113  -0.000   0.000   0.007
 -0.003   0.001   7.349   0.001  -0.000   6.114   0.009   0.000
  0.001  -0.001  -0.037   0.002   0.000   0.009  -2.980  -0.003
  0.007  -0.024  -0.001  -0.003   0.007   0.000  -0.003  -2.985
  0.022   0.043   0.009  -0.005  -0.008  -0.003  -0.003   0.008
 -0.001  -0.017   0.007   0.000   0.005  -0.003   0.004   0.007
  0.025   0.000  -0.034  -0.007  -0.000   0.007  -0.000   0.007
  0.001  -0.001  -0.036   0.002   0.000   0.008  -3.626  -0.003
  0.007  -0.023  -0.001  -0.003   0.007   0.000  -0.003  -3.631
  0.022   0.042   0.009  -0.005  -0.008  -0.002  -0.003   0.008
 -0.001  -0.017   0.007   0.000   0.004  -0.003   0.004   0.007
  0.025   0.000  -0.034  -0.007  -0.000   0.006  -0.000   0.007
  0.007  -0.005   0.004  -0.001   0.001  -0.001  -0.002   0.000
  0.015  -0.010   0.009  -0.002   0.001  -0.002  -0.003   0.001
 total augmentation occupancy for first ion, spin component:           1
  2.000  -0.000   0.000  -0.003  -0.000   0.000   0.007  -0.005   0.001  -0.001  -0.005  -0.007   0.005  -0.001   0.001   0.004
 -0.000   2.000  -0.000  -0.000  -0.003   0.000  -0.001   0.005   0.004   0.001   0.000   0.001  -0.005  -0.005  -0.001  -0.000
  0.000  -0.000   2.000   0.000   0.000  -0.003  -0.000  -0.000  -0.001  -0.005  -0.004   0.001   0.000   0.001   0.005   0.005
 -0.003  -0.000   0.000   0.095   0.006  -0.005  -0.334   0.233  -0.074   0.011   0.017   0.281  -0.197   0.058  -0.007  -0.011
 -0.000  -0.003   0.000   0.006   0.102   0.001   0.020  -0.048  -0.445   0.015   0.011  -0.013   0.037   0.377  -0.011  -0.009
  0.000   0.000  -0.003  -0.005   0.001   0.099   0.098  -0.002  -0.014   0.236   0.354  -0.077   0.001   0.011  -0.202  -0.297
  0.007  -0.001  -0.000  -0.334   0.020   0.098   4.008  -0.793   0.097   0.216   0.147  -1.736   0.744  -0.089  -0.182  -0.141
 -0.005   0.005  -0.000   0.233  -0.048  -0.002  -0.793   3.512   0.292   0.159   0.297   0.744  -1.271  -0.215  -0.114  -0.206
  0.001   0.004  -0.001  -0.074  -0.445  -0.014   0.097   0.292   4.691  -0.041  -0.117  -0.089  -0.215  -2.399   0.035   0.086
 -0.001   0.001  -0.005   0.011   0.015   0.236   0.216   0.159  -0.041   3.635   0.798  -0.182  -0.115   0.035  -1.353  -0.759
 -0.005   0.000  -0.004   0.017   0.011   0.354   0.147   0.297  -0.117   0.798   3.995  -0.141  -0.206   0.086  -0.760  -1.741
 -0.007   0.001   0.001   0.281  -0.013  -0.077  -1.736   0.744  -0.089  -0.182  -0.141   1.442  -0.696   0.082   0.154   0.136
  0.005  -0.005   0.000  -0.197   0.037   0.001   0.744  -1.271  -0.215  -0.115  -0.206  -0.696   1.006   0.154   0.079   0.132
 -0.001  -0.005   0.001   0.058   0.377   0.011  -0.089  -0.215  -2.399   0.035   0.086   0.082   0.154   2.083  -0.029  -0.063
  0.001  -0.001   0.005  -0.007  -0.011  -0.202  -0.182  -0.114   0.035  -1.353  -0.760   0.154   0.079  -0.029   1.059   0.721
  0.004  -0.000   0.005  -0.011  -0.009  -0.297  -0.141  -0.206   0.086  -0.759  -1.741   0.136   0.132  -0.063   0.721   1.461
 -0.024   0.016  -0.013  -0.020   0.011  -0.006   0.080  -0.101  -0.023  -0.006   0.025  -0.063   0.088   0.035   0.006   0.005
  0.012  -0.008   0.006   0.001  -0.000  -0.000  -0.008   0.003  -0.004   0.004  -0.019   0.004  -0.005  -0.002  -0.001   0.003


------------------------ aborting loop because EDIFF is reached ----------------------------------------


    FORLOC:  cpu time    0.00: real time    0.00
    FORHF :  cpu time  497.39: real time  496.94
    FORNL :  cpu time    0.39: real time    0.39
    FORCOR:  cpu time    2.01: real time    2.01

 VOLUME and BASIS-vectors are now :
 -----------------------------------------------------------------------------
  energy-cutoff  :      400.00
  volume of cell :      221.90
      direct lattice vectors                 reciprocal lattice vectors
     3.224796000 -5.643830000  0.031572000     0.154525165 -0.088592321  0.053460880
     3.224796000  5.643830000  0.031572000     0.154525165  0.088592321  0.053460880
    -2.101946000  0.000000000  6.075537000    -0.001606004  0.000000000  0.164038877

  length of vectors
     6.500240234  6.500240234  6.428866683     0.185969598  0.185969598  0.164046738


 FORCES acting on ions:
    Electron-Ion                     Ewald-Force                    Non-Local-Force
 -----------------------------------------------------------------------------------------------
   -.144E+02 -.971E+02 0.114E+02   0.132E+02 0.946E+02 -.982E+01   0.103E+01 0.210E+01 -.141E+01
   -.132E+02 0.995E+02 0.104E+02   0.120E+02 -.970E+02 -.885E+01   0.960E+00 -.219E+01 -.138E+01
   0.250E+02 -.178E+02 0.442E+01   -.217E+02 0.176E+02 -.310E+01   -.283E+01 0.170E+00 -.114E+01
   0.241E+02 0.177E+02 0.494E+01   -.209E+02 -.175E+02 -.367E+01   -.283E+01 -.170E+00 -.112E+01
   -.107E+02 -.318E+02 -.110E+02   0.998E+01 0.304E+02 0.989E+01   0.633E+00 0.135E+01 0.111E+01
   -.110E+02 0.316E+02 -.111E+02   0.103E+02 -.302E+02 0.999E+01   0.681E+00 -.135E+01 0.113E+01
   -.135E+03 -.123E+02 -.487E+02   0.132E+03 0.124E+02 0.479E+02   0.286E+01 0.366E-01 0.741E+00
   0.703E+02 -.126E+03 0.963E+02   -.686E+02 0.123E+03 -.942E+02   -.157E+01 0.230E+01 -.188E+01
   0.667E+02 -.132E+03 -.498E+02   -.652E+02 0.130E+03 0.488E+02   -.136E+01 0.216E+01 0.878E+00
   0.704E+02 0.126E+03 0.962E+02   -.687E+02 -.124E+03 -.941E+02   -.158E+01 -.231E+01 -.187E+01
   -.135E+03 0.996E+01 -.492E+02   0.132E+03 -.999E+01 0.484E+02   0.278E+01 0.215E-01 0.737E+00
   0.666E+02 0.133E+03 -.498E+02   -.651E+02 -.130E+03 0.488E+02   -.135E+01 -.218E+01 0.878E+00
 -----------------------------------------------------------------------------------------------
   0.282E+01 0.458E-01 0.378E+01   -.284E-13 0.000E+00 -.426E-13   -.257E+01 -.618E-01 -.333E+01
 
 
 POSITION                                       TOTAL-FORCE (eV/Angst)
 -----------------------------------------------------------------------------------
      2.13385     -2.80652      0.74958        -0.002708     -0.000831      0.000242
      1.08288      2.80652      3.78735        -0.016311     -0.023243      0.011429
      5.40423     -0.97432      0.77721         0.001456      0.000818      0.004066
      4.35326      0.97432      3.81498         0.009732     -0.016053     -0.005917
      1.02081     -0.97328      3.66185        -0.050135      0.002161     -0.012169
      2.07178      0.97328      0.62409         0.001521     -0.004916      0.001288
      2.14594      4.68798      3.05299         0.073478      0.073697      0.005617
      1.11215     -0.89759      5.98620        -0.002033     -0.007061     -0.002291
      2.14287     -2.74882      3.03886        -0.003389     -0.008118     -0.001406
      2.16313      0.89759      2.94844        -0.009899     -0.003176      0.001092
      1.09993     -4.69667      6.09081         0.001301     -0.005538     -0.000982
      1.09189      2.74882      6.07662        -0.003015     -0.007740     -0.000968
 -----------------------------------------------------------------------------------
    total drift:                               -0.058948     -0.001112     -0.053984


--------------------------------------------------------------------------------------------------------



  FREE ENERGIE OF THE ION-ELECTRON SYSTEM (eV)
  ---------------------------------------------------
  free  energy   TOTEN  =       -69.59527044 eV

  energy  without entropy=      -69.59583319  energy(sigma->0) =      -69.59545803
 


--------------------------------------------------------------------------------------------------------


    POTLOK:  cpu time    2.07: real time    2.08


--------------------------------------------------------------------------------------------------------


 writing wavefunctions
     LOOP+:  cpu time 5838.83: real time 5835.34
    4ORBIT:  cpu time    0.00: real time    0.00

 total amount of memory used by VASP on root node   155705. kBytes
========================================================================

   base      :      30000. kBytes
   nonl-proj :      74517. kBytes
   fftplans  :        702. kBytes
   grid      :       2400. kBytes
   one-center:        186. kBytes
   HF        :        194. kBytes
   nonlr-proj:       5130. kBytes
   wavefun   :      42576. kBytes
 
  
  
 General timing and accounting informations for this job:
 ========================================================
  
                  Total CPU time used (sec):     5879.824
                            User time (sec):     5877.369
                          System time (sec):        2.456
                         Elapsed time (sec):     5876.949
  
                   Maximum memory used (kb):      298760.
                   Average memory used (kb):           0.
  
                          Minor page faults:        78925
                          Major page faults:            0
                 Voluntary context switches:         3731
