   12   12    1    1
  0.1849176E+02  0.6500240E-09  0.6500240E-09  0.6428867E-09  0.5000000E-15
  1.000000000000000E-004
  CAR 
 CGS                                     
  112   42   80
 
  0.0000000E+00  0.0000000E+00  0.0000000E+00  0.1250000E-01
   1      -68.646006
   2      -68.645318
   3      -68.635029
   4      -68.632417
   5      -68.614122
   6      -68.613467
   7      -68.596566
   8      -68.596006
   9      -68.578637
  10      -68.576483
  11      -68.561111
  12      -68.559714
  13      -12.721720
  14      -11.129969
  15      -10.918456
  16      -10.602970
  17      -10.250120
  18      -10.234258
  19       -5.984879
  20       -4.984302
  21       -2.761191
  22       -2.210358
  23       -2.070210
  24       -1.924196
  25       -1.576812
  26       -0.985383
  27       -0.946033
  28       -0.682917
  29       -0.402918
  30       -0.275774
  31       -0.261825
  32       -0.234688
  33       -0.188843
  34       -0.154414
  35       -0.044959
  36        0.034893
  37        1.349345
  38        1.363051
  39        1.415565
  40        1.457864
  41        1.471075
  42        1.473405
  43        1.520243
  44        1.531629
  45        1.574767
  46        1.711253
  47        1.891796
  48        1.928740
  49        2.060029
  50        2.652561
  51        2.724532
  52        3.092460
  53        3.218667
  54        4.005716
  55        4.038307
  56        4.171539
  57        5.537684
  58        6.356585
  59        7.629440
  60        7.986135
  61        8.616801
  62        8.791510
  63        9.570535
  64        9.738981
  65        9.814362
  66       10.419906
  67       10.577740
  68       10.695961
  69       10.717946
  70       11.284856
  71       11.712295
  72       12.391753
  73       12.453613
  74       12.727154
  75       13.321199
  76       13.382128
  77       13.831582
  78       13.886311
  79       14.144267
  80       14.179953
 
  0.2500000E+00  0.7372575E-17  0.1387779E-16  0.2500000E-01
   1      -68.645962
   2      -68.645292
   3      -68.635005
   4      -68.632378
   5      -68.613999
   6      -68.613377
   7      -68.596597
   8      -68.596003
   9      -68.578570
  10      -68.576431
  11      -68.561072
  12      -68.559681
  13      -12.596883
  14      -11.126615
  15      -10.984817
  16      -10.675619
  17      -10.368079
  18      -10.274993
  19       -5.933396
  20       -4.773552
  21       -2.646042
  22       -2.253113
  23       -2.088353
  24       -1.689469
  25       -1.344649
  26       -0.998064
  27       -0.766550
  28       -0.623347
  29       -0.553388
  30       -0.442411
  31       -0.357906
  32       -0.240649
  33       -0.194513
  34       -0.164045
  35       -0.049986
  36        0.041331
  37        1.279433
  38        1.335987
  39        1.355185
  40        1.392251
  41        1.427331
  42        1.471513
  43        1.498385
  44        1.529633
  45        1.724964
  46        1.857884
  47        2.057952
  48        2.094022
  49        2.231082
  50        2.412285
  51        2.555449
  52        2.826168
  53        2.949849
  54        3.242686
  55        3.660950
  56        4.038471
  57        6.169781
  58        6.905044
  59        8.137410
  60        8.267825
  61        8.593930
  62        9.013899
  63        9.242629
  64        9.532153
  65        9.863757
  66       10.376560
  67       10.634422
  68       10.813790
  69       10.937771
  70       11.191053
  71       11.656407
  72       11.769010
  73       12.119533
  74       12.440490
  75       12.618217
  76       13.009757
  77       13.506372
  78       13.876249
  79       14.211966
  80       14.710158
 
  0.5000000E+00  0.1474515E-16  0.2775558E-16  0.1250000E-01
   1      -68.645845
   2      -68.645125
   3      -68.634928
   4      -68.632294
   5      -68.613946
   6      -68.613363
   7      -68.596506
   8      -68.595942
   9      -68.578528
  10      -68.576417
  11      -68.560948
  12      -68.559511
  13      -12.437809
  14      -11.248227
  15      -10.958566
  16      -10.763567
  17      -10.430552
  18      -10.354454
  19       -5.871278
  20       -4.548232
  21       -2.494341
  22       -2.245578
  23       -1.945832
  24       -1.464990
  25       -1.227406
  26       -1.102282
  27       -0.902801
  28       -0.862410
  29       -0.601435
  30       -0.533898
  31       -0.271040
  32       -0.204597
  33       -0.196883
  34       -0.147104
  35       -0.031100
  36        0.081328
  37        1.255233
  38        1.328271
  39        1.347729
  40        1.396332
  41        1.470525
  42        1.478928
  43        1.499941
  44        1.551456
  45        1.753169
  46        1.789781
  47        1.966784
  48        2.146125
  49        2.320919
  50        2.363426
  51        2.555754
  52        2.667508
  53        2.939731
  54        3.080267
  55        3.248353
  56        3.859959
  57        6.384236
  58        7.096349
  59        7.980340
  60        8.203674
  61        8.518531
  62        8.820490
  63        9.329707
  64        9.888341
  65       10.011579
  66       10.518197
  67       10.692834
  68       10.794271
  69       11.142458
  70       11.402346
  71       11.611399
  72       11.774487
  73       11.944904
  74       12.502393
  75       12.781125
  76       12.998346
  77       13.401289
  78       13.540857
  79       13.939012
  80       14.269275
 
  0.7372575E-17  0.2500000E+00  0.1387779E-16  0.2500000E-01
   1      -68.645984
   2      -68.645270
   3      -68.634987
   4      -68.632392
   5      -68.614002
   6      -68.613374
   7      -68.596570
   8      -68.596029
   9      -68.578578
  10      -68.576416
  11      -68.561081
  12      -68.559682
  13      -12.596889
  14      -11.128453
  15      -10.984129
  16      -10.673207
  17      -10.366610
  18      -10.277657
  19       -5.933272
  20       -4.773990
  21       -2.647069
  22       -2.253631
  23       -2.085902
  24       -1.689588
  25       -1.345045
  26       -0.999080
  27       -0.765914
  28       -0.621137
  29       -0.555144
  30       -0.439451
  31       -0.358077
  32       -0.241443
  33       -0.193638
  34       -0.167660
  35       -0.050208
  36        0.041413
  37        1.278692
  38        1.335766
  39        1.355212
  40        1.392494
  41        1.427313
  42        1.471574
  43        1.497774
  44        1.531535
  45        1.725355
  46        1.858499
  47        2.057453
  48        2.092492
  49        2.231844
  50        2.412233
  51        2.556894
  52        2.825468
  53        2.948309
  54        3.241918
  55        3.662994
  56        4.038872
  57        6.169711
  58        6.905701
  59        8.137585
  60        8.268977
  61        8.594110
  62        9.012670
  63        9.242952
  64        9.531359
  65        9.863911
  66       10.376156
  67       10.632694
  68       10.814054
  69       10.937861
  70       11.190873
  71       11.653199
  72       11.770910
  73       12.117200
  74       12.443032
  75       12.618884
  76       13.006752
  77       13.520027
  78       13.901163
  79       14.272121
  80       14.841694
 
  0.2500000E+00  0.2500000E+00  0.0000000E+00  0.2500000E-01
   1      -68.645983
   2      -68.645295
   3      -68.634895
   4      -68.632273
   5      -68.614139
   6      -68.613505
   7      -68.596478
   8      -68.595899
   9      -68.578700
  10      -68.576547
  11      -68.561093
  12      -68.559698
  13      -12.441610
  14      -11.191902
  15      -10.944798
  16      -10.874612
  17      -10.388676
  18      -10.352508
  19       -5.876230
  20       -4.522106
  21       -2.418701
  22       -2.247061
  23       -1.792311
  24       -1.682316
  25       -1.356190
  26       -1.297487
  27       -1.079228
  28       -0.681791
  29       -0.527567
  30       -0.296013
  31       -0.281319
  32       -0.224247
  33       -0.183483
  34       -0.130083
  35       -0.091956
  36        0.081526
  37        1.293785
  38        1.311389
  39        1.414550
  40        1.426140
  41        1.463720
  42        1.482275
  43        1.496728
  44        1.570294
  45        1.671332
  46        1.879529
  47        1.940330
  48        2.134281
  49        2.278643
  50        2.319291
  51        2.559431
  52        2.650761
  53        2.904384
  54        2.945891
  55        3.696782
  56        3.830223
  57        6.171095
  58        6.990329
  59        8.004818
  60        8.327804
  61        8.435610
  62        8.571574
  63        9.145489
  64        9.248208
  65       10.360050
  66       10.494840
  67       10.919484
  68       11.185132
  69       11.328273
  70       11.558316
  71       11.814967
  72       11.962360
  73       12.314447
  74       12.502953
  75       12.709382
  76       12.916191
  77       13.337656
  78       13.448277
  79       14.256368
  80       14.365132
 
  0.5000000E+00  0.2500000E+00 -0.2775558E-16  0.2500000E-01
   1      -68.645610
   2      -68.645220
   3      -68.634956
   4      -68.632364
   5      -68.613890
   6      -68.613304
   7      -68.596507
   8      -68.595977
   9      -68.578427
  10      -68.576422
  11      -68.560928
  12      -68.559562
  13      -12.441709
  14      -11.354947
  15      -10.939331
  16      -10.735206
  17      -10.392221
  18      -10.268641
  19       -5.948073
  20       -4.642586
  21       -2.391845
  22       -2.227598
  23       -2.057777
  24       -1.641905
  25       -1.361731
  26       -1.282775
  27       -1.022462
  28       -0.509626
  29       -0.483809
  30       -0.327913
  31       -0.282782
  32       -0.212473
  33       -0.148527
  34       -0.137889
  35       -0.009969
  36        0.111092
  37        1.247106
  38        1.315566
  39        1.382196
  40        1.436975
  41        1.461937
  42        1.492739
  43        1.496900
  44        1.548984
  45        1.748395
  46        1.827698
  47        1.922149
  48        2.132654
  49        2.219961
  50        2.386902
  51        2.560101
  52        2.790792
  53        2.979723
  54        3.311099
  55        3.603699
  56        3.747218
  57        6.086709
  58        6.939674
  59        7.611148
  60        8.068210
  61        8.410618
  62        8.616244
  63        8.983881
  64        9.152623
  65       10.086409
  66       10.335896
  67       10.732587
  68       11.107842
  69       11.458741
  70       11.593317
  71       11.797769
  72       12.086630
  73       12.477709
  74       12.920051
  75       13.035422
  76       13.828398
  77       14.194891
  78       14.653442
  79       15.432542
  80       15.644518
 
 -0.2500000E+00  0.2500000E+00  0.0000000E+00  0.2500000E-01
   1      -68.645975
   2      -68.645283
   3      -68.634970
   4      -68.632356
   5      -68.613935
   6      -68.613307
   7      -68.596566
   8      -68.596002
   9      -68.578523
  10      -68.576370
  11      -68.561079
  12      -68.559683
  13      -12.599635
  14      -11.252236
  15      -10.993111
  16      -10.566939
  17      -10.369300
  18      -10.178046
  19       -6.010294
  20       -4.895225
  21       -2.647305
  22       -2.314836
  23       -1.974378
  24       -1.646737
  25       -1.494657
  26       -1.184244
  27       -0.790098
  28       -0.578957
  29       -0.444188
  30       -0.334841
  31       -0.292465
  32       -0.234439
  33       -0.174953
  34       -0.132686
  35       -0.007234
  36        0.067975
  37        1.259370
  38        1.320497
  39        1.364488
  40        1.423136
  41        1.431463
  42        1.476106
  43        1.503923
  44        1.543245
  45        1.724069
  46        1.812922
  47        1.995655
  48        2.071955
  49        2.416369
  50        2.463201
  51        2.528695
  52        2.871506
  53        3.142671
  54        3.229106
  55        3.783989
  56        4.069668
  57        5.978621
  58        6.688182
  59        7.533924
  60        8.222837
  61        8.616348
  62        8.914307
  63        9.305122
  64        9.432128
  65        9.803526
  66       10.271434
  67       10.543743
  68       10.831005
  69       10.972141
  70       11.379488
  71       11.471707
  72       11.734109
  73       12.099822
  74       12.662536
  75       12.945175
  76       13.103759
  77       13.350712
  78       13.519722
  79       14.476207
  80       14.755171
 
  0.1474515E-16  0.5000000E+00  0.2775558E-16  0.1250000E-01
   1      -68.645806
   2      -68.645155
   3      -68.634918
   4      -68.632306
   5      -68.613985
   6      -68.613326
   7      -68.596494
   8      -68.595955
   9      -68.578561
  10      -68.576359
  11      -68.560911
  12      -68.559578
  13      -12.437774
  14      -11.251262
  15      -10.958292
  16      -10.757836
  17      -10.428646
  18      -10.359233
  19       -5.871057
  20       -4.549214
  21       -2.496001
  22       -2.245165
  23       -1.945110
  24       -1.463644
  25       -1.227776
  26       -1.099519
  27       -0.903250
  28       -0.861420
  29       -0.599936
  30       -0.535279
  31       -0.273782
  32       -0.207668
  33       -0.196760
  34       -0.144609
  35       -0.032773
  36        0.081494
  37        1.253444
  38        1.328433
  39        1.347616
  40        1.396903
  41        1.470884
  42        1.478960
  43        1.500131
  44        1.553721
  45        1.752346
  46        1.792203
  47        1.966773
  48        2.147204
  49        2.320354
  50        2.360544
  51        2.554782
  52        2.668898
  53        2.937682
  54        3.080453
  55        3.250734
  56        3.859550
  57        6.384471
  58        7.098362
  59        7.983667
  60        8.203656
  61        8.518124
  62        8.821477
  63        9.327107
  64        9.886890
  65       10.009913
  66       10.515990
  67       10.691049
  68       10.792699
  69       11.142137
  70       11.407833
  71       11.610591
  72       11.774234
  73       11.942167
  74       12.503737
  75       12.825621
  76       13.031428
  77       13.553293
  78       13.683066
  79       14.552261
  80       15.251483
 
  0.2500000E+00  0.5000000E+00 -0.2775558E-16  0.2500000E-01
   1      -68.645644
   2      -68.645193
   3      -68.634911
   4      -68.632370
   5      -68.613875
   6      -68.613338
   7      -68.596503
   8      -68.596002
   9      -68.578446
  10      -68.576384
  11      -68.560853
  12      -68.559650
  13      -12.441704
  14      -11.355771
  15      -10.939567
  16      -10.733157
  17      -10.391524
  18      -10.270270
  19       -5.947983
  20       -4.642980
  21       -2.392959
  22       -2.227012
  23       -2.058820
  24       -1.638502
  25       -1.363370
  26       -1.281948
  27       -1.022924
  28       -0.512507
  29       -0.478665
  30       -0.329786
  31       -0.279998
  32       -0.214144
  33       -0.152261
  34       -0.134769
  35       -0.011348
  36        0.110439
  37        1.246100
  38        1.315702
  39        1.383005
  40        1.436944
  41        1.461536
  42        1.492431
  43        1.497054
  44        1.549874
  45        1.748940
  46        1.828744
  47        1.920346
  48        2.134253
  49        2.221477
  50        2.383619
  51        2.560168
  52        2.789946
  53        2.980896
  54        3.311597
  55        3.604661
  56        3.746785
  57        6.086765
  58        6.940049
  59        7.611805
  60        8.068215
  61        8.410852
  62        8.616453
  63        8.982664
  64        9.152571
  65       10.086430
  66       10.335446
  67       10.731897
  68       11.107231
  69       11.456426
  70       11.576338
  71       11.785027
  72       12.032457
  73       12.510882
  74       12.681344
  75       12.916391
  76       13.209891
  77       14.229682
  78       14.771976
  79       15.252272
  80       15.902668
 
  0.5000000E+00  0.5000000E+00  0.0000000E+00  0.1250000E-01
   1      -68.645626
   2      -68.644869
   3      -68.634751
   4      -68.632178
   5      -68.613676
   6      -68.613315
   7      -68.596292
   8      -68.595808
   9      -68.578409
  10      -68.576248
  11      -68.560737
  12      -68.559356
  13      -12.433334
  14      -11.502887
  15      -10.914561
  16      -10.613476
  17      -10.401409
  18      -10.196924
  19       -6.026587
  20       -4.810881
  21       -2.311322
  22       -2.266173
  23       -2.094954
  24       -1.703079
  25       -1.249765
  26       -1.110393
  27       -0.839199
  28       -0.781257
  29       -0.723189
  30       -0.239765
  31       -0.200652
  32       -0.182502
  33       -0.151958
  34       -0.039932
  35       -0.001353
  36        0.181387
  37        1.266834
  38        1.317815
  39        1.375445
  40        1.413656
  41        1.432392
  42        1.492080
  43        1.508878
  44        1.549682
  45        1.788842
  46        1.847167
  47        1.996239
  48        2.151259
  49        2.250767
  50        2.336166
  51        2.560730
  52        2.761724
  53        2.775254
  54        3.368567
  55        3.762073
  56        4.008184
  57        5.853520
  58        6.765105
  59        7.084611
  60        8.412465
  61        8.560774
  62        8.769593
  63        9.141402
  64        9.241882
  65        9.958014
  66       10.284830
  67       10.726700
  68       10.825811
  69       10.875451
  70       11.274270
  71       11.754907
  72       11.913841
  73       11.973040
  74       12.366647
  75       12.539560
  76       13.458079
  77       14.283721
  78       14.674827
  79       16.748054
  80       16.749740
 
 -0.2168404E-18 -0.2168404E-18  0.2000000E+00  0.2500000E-01
   1      -68.646015
   2      -68.645313
   3      -68.634998
   4      -68.632386
   5      -68.614034
   6      -68.613397
   7      -68.596593
   8      -68.596023
   9      -68.578609
  10      -68.576456
  11      -68.561113
  12      -68.559718
  13      -12.618520
  14      -11.426031
  15      -10.779434
  16      -10.608183
  17      -10.248915
  18      -10.236229
  19       -5.831323
  20       -5.047720
  21       -2.601070
  22       -2.372080
  23       -1.962614
  24       -1.775819
  25       -1.445499
  26       -1.122316
  27       -1.064777
  28       -0.773218
  29       -0.470110
  30       -0.292728
  31       -0.238525
  32       -0.232180
  33       -0.192441
  34       -0.147012
  35       -0.021630
  36        0.028306
  37        1.332593
  38        1.381785
  39        1.416594
  40        1.439579
  41        1.464580
  42        1.467129
  43        1.514579
  44        1.545350
  45        1.632583
  46        1.758088
  47        1.786870
  48        1.950677
  49        2.089067
  50        2.656672
  51        2.720592
  52        3.196388
  53        3.253418
  54        3.519430
  55        3.894335
  56        3.976632
  57        6.045955
  58        6.415405
  59        7.824341
  60        7.907262
  61        8.365470
  62        8.818328
  63        9.776480
  64        9.794002
  65       10.061256
  66       10.585089
  67       10.645212
  68       10.815975
  69       10.855366
  70       11.494704
  71       11.556670
  72       12.026002
  73       12.580370
  74       12.774608
  75       12.912965
  76       13.204925
  77       13.534908
  78       13.822173
  79       14.198168
  80       14.704536
 
  0.2500000E+00  0.1517883E-17  0.2000000E+00  0.2500000E-01
   1      -68.645948
   2      -68.645254
   3      -68.634983
   4      -68.632372
   5      -68.614072
   6      -68.613445
   7      -68.596559
   8      -68.595970
   9      -68.578623
  10      -68.576462
  11      -68.561045
  12      -68.559661
  13      -12.459646
  14      -11.467161
  15      -10.865075
  16      -10.688470
  17      -10.373374
  18      -10.244456
  19       -5.767087
  20       -4.804504
  21       -2.445474
  22       -2.233557
  23       -1.850670
  24       -1.714162
  25       -1.433996
  26       -1.185304
  27       -0.890164
  28       -0.748550
  29       -0.605425
  30       -0.522233
  31       -0.310725
  32       -0.245440
  33       -0.174621
  34       -0.119315
  35       -0.054859
  36        0.064609
  37        1.302406
  38        1.336005
  39        1.369119
  40        1.432244
  41        1.446566
  42        1.479416
  43        1.520860
  44        1.547099
  45        1.643239
  46        1.868869
  47        1.978868
  48        2.048101
  49        2.194080
  50        2.475192
  51        2.594489
  52        2.839204
  53        2.964671
  54        3.134149
  55        3.565831
  56        3.723366
  57        6.440983
  58        6.956508
  59        8.171251
  60        8.245926
  61        8.833748
  62        9.128362
  63        9.465470
  64        9.797537
  65       10.084329
  66       10.299788
  67       10.738773
  68       11.077922
  69       11.291704
  70       11.425881
  71       11.634530
  72       11.724887
  73       12.083587
  74       12.264636
  75       12.541142
  76       12.657587
  77       12.955972
  78       13.059564
  79       13.639475
  80       14.691898
 
  0.5000000E+00  0.9107298E-17  0.2000000E+00  0.2500000E-01
   1      -68.645696
   2      -68.645157
   3      -68.634887
   4      -68.632306
   5      -68.613914
   6      -68.613323
   7      -68.596439
   8      -68.595920
   9      -68.578477
  10      -68.576413
  11      -68.560962
  12      -68.559597
  13      -12.357467
  14      -11.413919
  15      -10.952743
  16      -10.684498
  17      -10.479001
  18      -10.332967
  19       -5.752384
  20       -4.722247
  21       -2.522168
  22       -2.185278
  23       -1.954527
  24       -1.535648
  25       -1.301054
  26       -1.098891
  27       -0.870287
  28       -0.754177
  29       -0.550366
  30       -0.445600
  31       -0.286571
  32       -0.179266
  33       -0.146582
  34       -0.105966
  35       -0.044915
  36        0.024423
  37        1.271996
  38        1.298797
  39        1.351704
  40        1.429476
  41        1.452649
  42        1.479819
  43        1.501143
  44        1.587074
  45        1.719772
  46        1.929453
  47        2.075737
  48        2.145280
  49        2.268036
  50        2.403888
  51        2.568611
  52        2.598191
  53        2.898038
  54        3.009655
  55        3.359830
  56        3.897825
  57        6.364691
  58        6.896180
  59        7.573368
  60        8.084656
  61        8.546744
  62        8.797449
  63        9.281004
  64        9.628625
  65        9.930559
  66       10.276703
  67       10.657539
  68       10.930041
  69       10.972571
  70       11.281345
  71       11.519592
  72       11.785039
  73       12.248058
  74       12.543867
  75       13.098121
  76       13.517919
  77       14.297406
  78       14.565760
  79       15.128315
  80       16.271344
 
 -0.2500000E+00 -0.4098284E-16  0.2000000E+00  0.2500000E-01
   1      -68.646006
   2      -68.645310
   3      -68.634973
   4      -68.632361
   5      -68.614035
   6      -68.613410
   7      -68.596585
   8      -68.596001
   9      -68.578621
  10      -68.576481
  11      -68.561109
  12      -68.559706
  13      -12.542238
  14      -11.338238
  15      -10.873541
  16      -10.606432
  17      -10.398948
  18      -10.280996
  19       -5.824996
  20       -4.975339
  21       -2.664736
  22       -2.454655
  23       -2.039876
  24       -1.576911
  25       -1.170599
  26       -0.983520
  27       -0.790903
  28       -0.659670
  29       -0.516417
  30       -0.388687
  31       -0.269237
  32       -0.252187
  33       -0.189513
  34       -0.144216
  35       -0.048669
  36        0.015205
  37        1.289525
  38        1.311043
  39        1.389132
  40        1.408466
  41        1.433748
  42        1.455642
  43        1.492063
  44        1.564509
  45        1.688120
  46        1.915748
  47        1.986864
  48        2.146675
  49        2.333586
  50        2.563791
  51        2.615461
  52        2.831497
  53        2.973961
  54        3.248284
  55        3.682718
  56        3.942582
  57        6.178769
  58        6.636708
  59        7.766467
  60        7.972485
  61        8.214980
  62        8.563001
  63        9.379068
  64        9.576314
  65        9.907669
  66       10.251369
  67       10.543784
  68       10.786410
  69       10.842699
  70       11.067815
  71       11.566657
  72       12.023290
  73       12.528953
  74       12.753048
  75       12.952161
  76       13.308181
  77       13.412099
  78       13.739939
  79       13.846755
  80       14.727028
 
  0.1517883E-17  0.2500000E+00  0.2000000E+00  0.2500000E-01
   1      -68.645949
   2      -68.645252
   3      -68.634984
   4      -68.632372
   5      -68.614068
   6      -68.613449
   7      -68.596565
   8      -68.595964
   9      -68.578618
  10      -68.576473
  11      -68.561051
  12      -68.559649
  13      -12.459646
  14      -11.467711
  15      -10.864346
  16      -10.688402
  17      -10.372405
  18      -10.245586
  19       -5.766948
  20       -4.805020
  21       -2.445948
  22       -2.232628
  23       -1.851069
  24       -1.715068
  25       -1.432281
  26       -1.187784
  27       -0.887451
  28       -0.747347
  29       -0.604753
  30       -0.524059
  31       -0.310053
  32       -0.244724
  33       -0.175162
  34       -0.120797
  35       -0.055660
  36        0.064706
  37        1.301365
  38        1.336433
  39        1.369649
  40        1.431782
  41        1.446196
  42        1.478702
  43        1.521359
  44        1.546430
  45        1.643780
  46        1.871564
  47        1.976082
  48        2.048727
  49        2.195230
  50        2.474824
  51        2.596687
  52        2.839168
  53        2.964226
  54        3.132409
  55        3.565846
  56        3.724111
  57        6.441237
  58        6.957223
  59        8.170818
  60        8.245769
  61        8.834245
  62        9.129114
  63        9.466693
  64        9.796022
  65       10.084942
  66       10.298048
  67       10.740007
  68       11.077239
  69       11.290759
  70       11.424613
  71       11.628692
  72       11.721557
  73       12.084357
  74       12.268111
  75       12.542003
  76       12.660687
  77       12.954602
  78       13.059636
  79       13.656796
  80       14.697883
 
  0.2500000E+00  0.2500000E+00  0.2000000E+00  0.2500000E-01
   1      -68.645855
   2      -68.645166
   3      -68.634838
   4      -68.632215
   5      -68.613911
   6      -68.613285
   7      -68.596426
   8      -68.595859
   9      -68.578494
  10      -68.576332
  11      -68.560966
  12      -68.559559
  13      -12.327999
  14      -11.476245
  15      -10.860499
  16      -10.859051
  17      -10.404050
  18      -10.288842
  19       -5.748479
  20       -4.692096
  21       -2.242078
  22       -2.139594
  23       -1.928816
  24       -1.851008
  25       -1.453608
  26       -1.393848
  27       -1.039418
  28       -0.519974
  29       -0.461613
  30       -0.348305
  31       -0.249921
  32       -0.217848
  33       -0.160453
  34       -0.113362
  35       -0.089562
  36        0.081735
  37        1.262121
  38        1.347508
  39        1.397565
  40        1.435801
  41        1.452963
  42        1.510438
  43        1.535382
  44        1.543803
  45        1.753993
  46        1.818091
  47        2.039368
  48        2.133686
  49        2.285300
  50        2.309685
  51        2.521737
  52        2.769687
  53        2.899018
  54        3.262721
  55        3.494133
  56        3.800112
  57        6.182303
  58        6.841676
  59        7.827594
  60        8.044103
  61        8.188192
  62        8.727647
  63        9.154190
  64        9.306542
  65       10.219438
  66       10.442769
  67       10.591241
  68       11.004762
  69       11.240036
  70       11.488605
  71       11.811242
  72       12.172937
  73       12.205120
  74       12.574467
  75       12.691905
  76       13.112682
  77       13.417352
  78       13.881398
  79       14.007401
  80       14.524537
 
  0.5000000E+00  0.2500000E+00  0.2000000E+00  0.2500000E-01
   1      -68.645602
   2      -68.645150
   3      -68.634900
   4      -68.632382
   5      -68.613810
   6      -68.613431
   7      -68.596487
   8      -68.595938
   9      -68.578412
  10      -68.576468
  11      -68.560828
  12      -68.559630
  13      -12.374341
  14      -11.474758
  15      -10.938161
  16      -10.650819
  17      -10.420915
  18      -10.302778
  19       -5.801222
  20       -4.836725
  21       -2.526952
  22       -2.244379
  23       -1.874079
  24       -1.644581
  25       -1.504770
  26       -1.306278
  27       -0.901981
  28       -0.532086
  29       -0.375277
  30       -0.348366
  31       -0.223010
  32       -0.180854
  33       -0.160817
  34       -0.077093
  35       -0.024279
  36        0.078457
  37        1.190123
  38        1.364642
  39        1.397233
  40        1.441741
  41        1.463265
  42        1.506088
  43        1.519153
  44        1.585222
  45        1.739653
  46        1.819099
  47        2.034952
  48        2.236501
  49        2.269011
  50        2.362876
  51        2.486782
  52        2.671296
  53        3.053307
  54        3.411334
  55        3.728002
  56        3.863804
  57        5.930760
  58        6.613130
  59        7.352995
  60        7.942377
  61        8.064793
  62        8.724482
  63        8.907475
  64        9.138849
  65        9.844486
  66       10.325615
  67       10.555640
  68       10.927323
  69       11.221918
  70       11.416183
  71       11.750964
  72       12.003463
  73       12.497986
  74       12.832882
  75       13.206269
  76       14.182023
  77       14.713075
  78       15.161218
  79       15.919887
  80       16.566851
 
 -0.2500000E+00  0.2500000E+00  0.2000000E+00  0.2500000E-01
   1      -68.645910
   2      -68.645257
   3      -68.635034
   4      -68.632411
   5      -68.614007