 vasp.5.3.3 18Dez12 (build Nov 13 2015 09:58:40) complex                        
  
 executed on             LinuxIFC date 2017.10.18  13:04:00
 running on   48 total cores
 distrk:  each k-point on   16 cores,    3 groups
 distr:  one band on NCORES_PER_BAND=   1 cores,   16 groups


--------------------------------------------------------------------------------------------------------


 INCAR:
 POTCAR:    PAW_PBE Cu_pv 06Sep2000               
 POTCAR:    PAW_PBE Ge 05Jan2001                  
 POTCAR:    PAW_PBE S 17Jan2003                   

 ----------------------------------------------------------------------------- 
|                                                                             |
|           W    W    AA    RRRRR   N    N  II  N    N   GGGG   !!!           |
|           W    W   A  A   R    R  NN   N  II  NN   N  G    G  !!!           |
|           W    W  A    A  R    R  N N  N  II  N N  N  G       !!!           |
|           W WW W  AAAAAA  RRRRR   N  N N  II  N  N N  G  GGG   !            |
|           WW  WW  A    A  R   R   N   NN  II  N   NN  G    G                |
|           W    W  A    A  R    R  N    N  II  N    N   GGGG   !!!           |
|                                                                             |
|      For optimal performance we recommend that you set                      |
|        NPAR = 4 - approx SQRT( number of cores)                             |
|      (number of cores/NPAR must be integer)                                 |
|      This setting will greatly improve the performance of VASP for DFT.     |
|      The default NPAR=number of cores might be grossly inefficient          |
|      on modern multi-core architectures or massively parallel machines.     |
|      Do your own testing.                                                   |
|      Unfortunately you need to use the default for hybrid, GW and RPA       |
|      calculations.                                                          |
|                                                                             |
 ----------------------------------------------------------------------------- 


 ----------------------------------------------------------------------------- 
|                                                                             |
|           W    W    AA    RRRRR   N    N  II  N    N   GGGG   !!!           |
|           W    W   A  A   R    R  NN   N  II  NN   N  G    G  !!!           |
|           W    W  A    A  R    R  N N  N  II  N N  N  G       !!!           |
|           W WW W  AAAAAA  RRRRR   N  N N  II  N  N N  G  GGG   !            |
|           WW  WW  A    A  R   R   N   NN  II  N   NN  G    G                |
|           W    W  A    A  R    R  N    N  II  N    N   GGGG   !!!           |
|                                                                             |
|      You have enabled k-point parallelism (KPAR>1).                         |
|      This developmental code was originally  written by Paul Kent at ORNL,  |
|      and carefully double checked in Vienna.                                |
|      GW as well as linear response parallelism added by Martijn Marsman     |
|      and Georg Kresse.                                                      |
|      Carefully verify results versus KPAR=1.                                |
|      Report problems to Paul Kent and Vienna.                               |
|                                                                             |
 ----------------------------------------------------------------------------- 

 POTCAR:    PAW_PBE Cu_pv 06Sep2000               
   VRHFIN =Cu: d10 p1                                                           
   LEXCH  = PE                                                                  
   EATOM  =  4120.1201 eV,  302.8203 Ry                                         
                                                                                
   TITEL  = PAW_PBE Cu_pv 06Sep2000                                             
   LULTRA =        F    use ultrasoft PP ?                                      
   IUNSCR =        1    unscreen: 0-lin 1-nonlin 2-no                           
   RPACOR =    1.500    partial core radius                                     
   POMASS =   63.546; ZVAL   =   17.000    mass and valenz                      
   RCORE  =    2.000    outmost cutoff radius                                   
   RWIGS  =    2.000; RWIGS  =    1.058    wigner-seitz radius (au A)           
   ENMAX  =  368.648; ENMIN  =  276.486 eV                                      
   RCLOC  =    1.304    cutoff for local pot                                    
   LCOR   =        T    correct aug charges                                     
   LPAW   =        T    paw PP                                                  
   EAUG   =  758.233                                                            
   DEXC   =    0.000                                                            
   RMAX   =    2.046    core radius for proj-oper                               
   RAUG   =    1.300    factor for augmentation sphere                          
   RDEP   =    2.025    radius for radial grids                                 
   RDEPT  =    1.558    core radius for aug-charge                              
                                                                                
   Atomic configuration                                                         
    8 entries                                                                   
     n  l   j            E        occ.                                          
     1  0  0.50     -8850.2467   2.0000                                         
     2  0  0.50     -1062.3498   2.0000                                         
     2  1  1.50      -916.8226   6.0000                                         
     3  0  0.50      -114.6929   2.0000                                         
     3  1  1.50       -72.1325   6.0000                                         
     3  2  2.50        -5.0394  10.0000                                         
     4  0  0.50        -4.6097   1.0000                                         
     4  3  2.50        -1.3606   0.0000                                         
   Description                                                                  
     l       E           TYP  RCUT    TYP  RCUT                                 
     1    -72.1324777     23  1.700                                             
     1     -1.3605826     23  1.700                                             
     2     -5.0393776     23  2.000                                             
     2     -6.3999602     23  2.000                                             
     0     -4.6097062     23  1.800                                             
     0     14.1620818     23  1.800                                             
  local pseudopotential read in
  partial core-charges read in
  partial kinetic energy density read in
  atomic valenz-charges read in
  non local Contribution for L=           1  read in
    real space projection operators read in
  non local Contribution for L=           1  read in
    real space projection operators read in
  non local Contribution for L=           2  read in
    real space projection operators read in
  non local Contribution for L=           2  read in
    real space projection operators read in
  non local Contribution for L=           0  read in
    real space projection operators read in
  non local Contribution for L=           0  read in
    real space projection operators read in
    PAW grid and wavefunctions read in
 
   number of l-projection  operators is LMAX  =           6
   number of lm-projection operators is LMMAX =          18
 
 POTCAR:    PAW_PBE Ge 05Jan2001                  
   VRHFIN =Ge: s2p2                                                             
   LEXCH  = PE                                                                  
   EATOM  =   104.9960 eV,    7.7170 Ry                                         
                                                                                
   TITEL  = PAW_PBE Ge 05Jan2001                                                
   LULTRA =        F    use ultrasoft PP ?                                      
   IUNSCR =        1    unscreen: 0-lin 1-nonlin 2-no                           
   RPACOR =    2.170    partial core radius                                     
   POMASS =   72.610; ZVAL   =    4.000    mass and valenz                      
   RCORE  =    2.300    outmost cutoff radius                                   
   RWIGS  =    2.300; RWIGS  =    1.217    wigner-seitz radius (au A)           
   ENMAX  =  173.807; ENMIN  =  130.355 eV                                      
   ICORE  =        3    local potential                                         
   LCOR   =        T    correct aug charges                                     
   LPAW   =        T    paw PP                                                  
   EAUG   =  385.843                                                            
   DEXC   =    0.000                                                            
   RMAX   =    2.342    core radius for proj-oper                               
   RAUG   =    1.300    factor for augmentation sphere                          
   RDEP   =    2.318    radius for radial grids                                 
   RDEPT  =    2.103    core radius for aug-charge                              
                                                                                
   Atomic configuration                                                         
   10 entries                                                                   
     n  l   j            E        occ.                                          
     1  0  0.50    -10959.8463   2.0000                                         
     2  0  0.50     -1371.6056   2.0000                                         
     2  1  1.50     -1198.4791   6.0000                                         
     3  0  0.50      -168.4733   2.0000                                         
     3  1  1.50      -115.6019   6.0000                                         
     3  2  2.50       -29.3106  10.0000                                         
     4  0  0.50       -11.7309   2.0000                                         
     4  1  0.50        -3.8952   2.0000                                         
     4  2  1.50        -4.0817   0.0000                                         
     4  3  2.50        -4.0817   0.0000                                         
   Description                                                                  
     l       E           TYP  RCUT    TYP  RCUT                                 
     0    -11.7309493     23  2.300                                             
     0     -7.4578696     23  2.300                                             
     1     -3.8952261     23  2.300                                             
     1      6.1178114     23  2.300                                             
     2     -4.0817478     23  2.300                                             
     3     -1.3605826      7  2.300                                             
  local pseudopotential read in
  partial core-charges read in
  partial kinetic energy density read in
  atomic valenz-charges read in
  non local Contribution for L=           0  read in
    real space projection operators read in
  non local Contribution for L=           0  read in
    real space projection operators read in
  non local Contribution for L=           1  read in
    real space projection operators read in
  non local Contribution for L=           1  read in
    real space projection operators read in
  non local Contribution for L=           2  read in
    real space projection operators read in
    PAW grid and wavefunctions read in
 
   number of l-projection  operators is LMAX  =           5
   number of lm-projection operators is LMMAX =          13
 
 POTCAR:    PAW_PBE S 17Jan2003                   
   VRHFIN =S : s2p4                                                             
   LEXCH  = PE                                                                  
   EATOM  =   276.8230 eV,   20.3459 Ry                                         
                                                                                
   TITEL  = PAW_PBE S 17Jan2003                                                 
   LULTRA =        F    use ultrasoft PP ?                                      
   IUNSCR =        1    unscreen: 0-lin 1-nonlin 2-no                           
   RPACOR =    1.500    partial core radius                                     
   POMASS =   32.066; ZVAL   =    6.000    mass and valenz                      
   RCORE  =    1.900    outmost cutoff radius                                   
   RWIGS  =    2.200; RWIGS  =    1.164    wigner-seitz radius (au A)           
   ENMAX  =  280.000; ENMIN  =  194.016 eV                                      
   ICORE  =        2    local potential                                         
   LCOR   =        T    correct aug charges                                     
   LPAW   =        T    paw PP                                                  
   EAUG   =  335.092                                                            
   DEXC   =     .000                                                            
   RMAX   =    2.867    core radius for proj-oper                               
   RAUG   =    1.300    factor for augmentation sphere                          
   RDEP   =    1.954    radius for radial grids                                 
   QCUT   =   -4.360; QGAM   =    8.721    optimization parameters              
                                                                                
   Description                                                                  
     l     E      TYP  RCUT    TYP  RCUT                                        
     0   .000     23  1.900                                                     
     0   .000     23  1.900                                                     
     1   .000     23  1.900                                                     
     1   .000     23  1.900                                                     
     2   .000     23  1.900                                                     
  local pseudopotential read in
  partial core-charges read in
  atomic valenz-charges read in
  non local Contribution for L=           0  read in
    real space projection operators read in
  non local Contribution for L=           0  read in
    real space projection operators read in
  non local Contribution for L=           1  read in
    real space projection operators read in
  non local Contribution for L=           1  read in
    real space projection operators read in
    PAW grid and wavefunctions read in
 
   number of l-projection  operators is LMAX  =           4
   number of lm-projection operators is LMMAX =           8
 
  PAW_PBE Cu_pv 06Sep2000               :
 energy of atom  1       EATOM=-4120.1201
 kinetic energy error for atom=    0.0996 (will be added to EATOM!!)
  PAW_PBE Ge 05Jan2001                  :
 energy of atom  2       EATOM= -104.9960
 kinetic energy error for atom=    0.0003 (will be added to EATOM!!)
  PAW_PBE S 17Jan2003                   :
 energy of atom  3       EATOM= -276.8230
 kinetic energy error for atom=    0.0046 (will be added to EATOM!!)
 
 
 POSCAR: Cu Ge S                                 
  positions in direct lattice
  No initial velocities read in
 exchange correlation table for  LEXCH =        8
   RHO(1)=    0.500       N(1)  =     2000
   RHO(2)=  100.500       N(2)  =     4000
 


--------------------------------------------------------------------------------------------------------


 ion  position               nearest neighbor table
   1  0.618  0.121  0.120-   9 2.29  11 2.29  12 2.30   8 2.35
   2  0.121  0.618  0.620-  12 2.29   7 2.29   9 2.30  10 2.35
   3  0.963  0.789  0.119-  12 2.29  11 2.31   7 2.31   8 2.35
   4  0.790  0.963  0.619-   7 2.30   9 2.30  11 2.31  10 2.36
   5  0.440  0.267  0.599-   7 2.19   9 2.19  10 2.31   8 2.33
   6  0.267  0.440  0.099-  11 2.19  12 2.19   8 2.31  10 2.33
   7  0.079  0.912  0.497-   5 2.19   2 2.29   4 2.30   3 2.31
   8  0.571  0.412  0.980-   6 2.31   5 2.33   1 2.35   3 2.35
   9  0.737  0.250  0.495-   5 2.19   1 2.29   4 2.30   2 2.30
  10  0.412  0.571  0.480-   5 2.31   6 2.33   2 2.35   4 2.36
  11  0.912  0.079  0.997-   6 2.19   1 2.29   3 2.31   4 2.31
  12  0.250  0.737  0.995-   6 2.19   2 2.29   3 2.29   1 2.30
 
  Warning from LATTYP: Got some problem with cell dimensions!
  Tried to take original basis but could not verify dimensions!
  LATTYP: Found a base centered monoclinic cell.
 ALAT       =     6.4499010947
 B/A-ratio  =     1.7500516418
 C/A-ratio  =     1.9305142024
 COS(beta)  =    -0.4326083233
  
  Lattice vectors:
  
 A1 = (   3.2247960000,   5.6438300000,   0.0315720000)
 A2 = (   3.2247960000,  -5.6438300000,   0.0315720000)
 A3 = ( -10.7972380000,   0.0000000000,  -6.2018250000)


Analysis of symmetry for initial positions (statically):
=====================================================================
 Subroutine PRICEL returns:
 Original cell was already a primitive cell.
 

 Routine SETGRP: Setting up the symmetry group for a 
 base centered monoclinic supercell.


 Subroutine GETGRP returns: Found  1 space group operations
 (whereof  1 operations were pure point group operations)
 out of a pool of  4 trial point group operations.


The static configuration has the point symmetry C_1 .


Analysis of symmetry for dynamics (positions and initial velocities):
=====================================================================
 Subroutine PRICEL returns:
 Original cell was already a primitive cell.
 

 Routine SETGRP: Setting up the symmetry group for a 
 base centered monoclinic supercell.


 Subroutine GETGRP returns: Found  1 space group operations
 (whereof  1 operations were pure point group operations)
 out of a pool of  4 trial point group operations.


The dynamic configuration has the point symmetry C_1 .


 irot  :   1
 --------------------------------------------------------------------
 isymop:   1   0   0
           0   1   0
           0   0   1

 gtrans:     0.0000000     0.0000000     0.0000000

 ptrans:     0.0000000     0.0000000     0.0000000
 rotmap:
 (   1->   1)  (   2->   2)  (   3->   3)  (   4->   4)  (   5->   5) 
 (   6->   6)  (   7->   7)  (   8->   8)  (   9->   9)  (  10->  10) 
 (  11->  11)  (  12->  12) 
 
 
 KPOINTS: pymatgen 4.7.6+ generated KPOINTS with g

Automatic generation of k-mesh.
Space group operators:
 irot       det(A)        alpha          n_x          n_y          n_z        tau_x        tau_y        tau_z
    1     1.000000     0.000000     1.000000     0.000000     0.000000     0.000000     0.000000     0.000000
 
 Subroutine IBZKPT returns following result:
 ===========================================
 
 Found     42 irreducible k-points:
 
 Following reciprocal coordinates:
            Coordinates               Weight
  0.000000  0.000000  0.000000      1.000000
  0.250000  0.000000  0.000000      2.000000
  0.500000  0.000000  0.000000      1.000000
  0.000000  0.250000  0.000000      2.000000
  0.250000  0.250000  0.000000      2.000000
  0.500000  0.250000 -0.000000      2.000000
 -0.250000  0.250000  0.000000      2.000000
  0.000000  0.500000  0.000000      1.000000
  0.250000  0.500000 -0.000000      2.000000
  0.500000  0.500000  0.000000      1.000000
 -0.000000 -0.000000  0.200000      2.000000
  0.250000  0.000000  0.200000      2.000000
  0.500000  0.000000  0.200000      2.000000
 -0.250000 -0.000000  0.200000      2.000000
  0.000000  0.250000  0.200000      2.000000
  0.250000  0.250000  0.200000      2.000000
  0.500000  0.250000  0.200000      2.000000
 -0.250000  0.250000  0.200000      2.000000
  0.000000  0.500000  0.200000      2.000000
  0.250000  0.500000  0.200000      2.000000
  0.500000  0.500000  0.200000      2.000000
 -0.250000  0.500000  0.200000      2.000000
 -0.000000 -0.250000  0.200000      2.000000
  0.250000 -0.250000  0.200000      2.000000
  0.500000 -0.250000  0.200000      2.000000
 -0.250000 -0.250000  0.200000      2.000000
 -0.000000 -0.000000  0.400000      2.000000
  0.250000  0.000000  0.400000      2.000000
  0.500000  0.000000  0.400000      2.000000
 -0.250000  0.000000  0.400000      2.000000
  0.000000  0.250000  0.400000      2.000000
  0.250000  0.250000  0.400000      2.000000
  0.500000  0.250000  0.400000      2.000000
 -0.250000  0.250000  0.400000      2.000000
  0.000000  0.500000  0.400000      2.000000
  0.250000  0.500000  0.400000      2.000000
  0.500000  0.500000  0.400000      2.000000
 -0.250000  0.500000  0.400000      2.000000
  0.000000 -0.250000  0.400000      2.000000
  0.250000 -0.250000  0.400000      2.000000
  0.500000 -0.250000  0.400000      2.000000
 -0.250000 -0.250000  0.400000      2.000000
 
 Following cartesian coordinates:
            Coordinates               Weight
  0.000000  0.000000  0.000000      1.000000
  0.038631 -0.022148  0.013365      2.000000
  0.077263 -0.044296  0.026730      1.000000
  0.038631  0.022148  0.013365      2.000000
  0.077263  0.000000  0.026730      2.000000
  0.115894 -0.022148  0.040096      2.000000
  0.000000  0.044296  0.000000      2.000000
  0.077263  0.044296  0.026730      1.000000
  0.115894  0.022148  0.040096      2.000000
  0.154525  0.000000  0.053461      1.000000
 -0.000321  0.000000  0.032808      2.000000
  0.038310 -0.022148  0.046173      2.000000
  0.076941 -0.044296  0.059538      2.000000
 -0.038952  0.022148  0.019443      2.000000
  0.038310  0.022148  0.046173      2.000000
  0.076941  0.000000  0.059538      2.000000
  0.115573 -0.022148  0.072903      2.000000
 -0.000321  0.044296  0.032808      2.000000
  0.076941  0.044296  0.059538      2.000000
  0.115573  0.022148  0.072903      2.000000
  0.154204  0.000000  0.086269      2.000000
  0.038310  0.066444  0.046173      2.000000
 -0.038952 -0.022148  0.019443      2.000000
 -0.000321 -0.044296  0.032808      2.000000
  0.038310 -0.066444  0.046173      2.000000
 -0.077584  0.000000  0.006077      2.000000
 -0.000642  0.000000  0.065616      2.000000
  0.037989 -0.022148  0.078981      2.000000
  0.076620 -0.044296  0.092346      2.000000
 -0.039274  0.022148  0.052250      2.000000
  0.037989  0.022148  0.078981      2.000000
  0.076620  0.000000  0.092346      2.000000
  0.115251 -0.022148  0.105711      2.000000
 -0.000642  0.044296  0.065616      2.000000
  0.076620  0.044296  0.092346      2.000000
  0.115251  0.022148  0.105711      2.000000
  0.153883  0.000000  0.119076      2.000000
  0.037989  0.066444  0.078981      2.000000
 -0.039274 -0.022148  0.052250      2.000000
 -0.000642 -0.044296  0.065616      2.000000
  0.037989 -0.066444  0.078981      2.000000
 -0.077905  0.000000  0.038885      2.000000
 
 
 Subroutine IBZKPT_HF returns following result:
 ==============================================
 
 Found     80 k-points in 1st BZ
 the following     80 k-points will be used (e.g. in the exchange kernel)
 Following reciprocal coordinates:   # in IRBZ
  0.000000  0.000000  0.000000       1 t-inv F
  0.250000  0.000000  0.000000       2 t-inv F
  0.500000  0.000000  0.000000       3 t-inv F
  0.000000  0.250000  0.000000       4 t-inv F
  0.250000  0.250000  0.000000       5 t-inv F
  0.500000  0.250000 -0.000000       6 t-inv F
 -0.250000  0.250000  0.000000       7 t-inv F
  0.000000  0.500000  0.000000       8 t-inv F
  0.250000  0.500000 -0.000000       9 t-inv F
  0.500000  0.500000  0.000000      10 t-inv F
 -0.000000 -0.000000  0.200000      11 t-inv F
  0.250000  0.000000  0.200000      12 t-inv F
  0.500000  0.000000  0.200000      13 t-inv F
 -0.250000 -0.000000  0.200000      14 t-inv F
  0.000000  0.250000  0.200000      15 t-inv F
  0.250000  0.250000  0.200000      16 t-inv F
  0.500000  0.250000  0.200000      17 t-inv F
 -0.250000  0.250000  0.200000      18 t-inv F
  0.000000  0.500000  0.200000      19 t-inv F
  0.250000  0.500000  0.200000      20 t-inv F
  0.500000  0.500000  0.200000      21 t-inv F
 -0.250000  0.500000  0.200000      22 t-inv F
 -0.000000 -0.250000  0.200000      23 t-inv F
  0.250000 -0.250000  0.200000      24 t-inv F
  0.500000 -0.250000  0.200000      25 t-inv F
 -0.250000 -0.250000  0.200000      26 t-inv F
 -0.000000 -0.000000  0.400000      27 t-inv F
  0.250000  0.000000  0.400000      28 t-inv F
  0.500000  0.000000  0.400000      29 t-inv F
 -0.250000  0.000000  0.400000      30 t-inv F
  0.000000  0.250000  0.400000      31 t-inv F
  0.250000  0.250000  0.400000      32 t-inv F
  0.500000  0.250000  0.400000      33 t-inv F
 -0.250000  0.250000  0.400000      34 t-inv F
  0.000000  0.500000  0.400000      35 t-inv F
  0.250000  0.500000  0.400000      36 t-inv F
  0.500000  0.500000  0.400000      37 t-inv F
 -0.250000  0.500000  0.400000      38 t-inv F
  0.000000 -0.250000  0.400000      39 t-inv F
  0.250000 -0.250000  0.400000      40 t-inv F
  0.500000 -0.250000  0.400000      41 t-inv F
 -0.250000 -0.250000  0.400000      42 t-inv F
 -0.250000 -0.000000 -0.000000       2 t-inv T
 -0.000000 -0.250000 -0.000000       4 t-inv T
 -0.250000 -0.250000  0.000000       5 t-inv T
 -0.500000 -0.250000  0.000000       6 t-inv T
  0.250000 -0.250000  0.000000       7 t-inv T
 -0.250000 -0.500000  0.000000       9 t-inv T
  0.000000  0.000000 -0.200000      11 t-inv T
 -0.250000 -0.000000 -0.200000      12 t-inv T
 -0.500000 -0.000000 -0.200000      13 t-inv T
  0.250000  0.000000 -0.200000      14 t-inv T
 -0.000000 -0.250000 -0.200000      15 t-inv T
 -0.250000 -0.250000 -0.200000      16 t-inv T
 -0.500000 -0.250000 -0.200000      17 t-inv T
  0.250000 -0.250000 -0.200000      18 t-inv T
 -0.000000 -0.500000 -0.200000      19 t-inv T
 -0.250000 -0.500000 -0.200000      20 t-inv T
 -0.500000 -0.500000 -0.200000      21 t-inv T
  0.250000 -0.500000 -0.200000      22 t-inv T
  0.000000  0.250000 -0.200000      23 t-inv T
 -0.250000  0.250000 -0.200000      24 t-inv T
 -0.500000  0.250000 -0.200000      25 t-inv T
  0.250000  0.250000 -0.200000      26 t-inv T
  0.000000  0.000000 -0.400000      27 t-inv T
 -0.250000 -0.000000 -0.400000      28 t-inv T
 -0.500000 -0.000000 -0.400000      29 t-inv T
  0.250000 -0.000000 -0.400000      30 t-inv T
 -0.000000 -0.250000 -0.400000      31 t-inv T
 -0.250000 -0.250000 -0.400000      32 t-inv T
 -0.500000 -0.250000 -0.400000      33 t-inv T
  0.250000 -0.250000 -0.400000      34 t-inv T
 -0.000000 -0.500000 -0.400000      35 t-inv T
 -0.250000 -0.500000 -0.400000      36 t-inv T
 -0.500000 -0.500000 -0.400000      37 t-inv T
  0.250000 -0.500000 -0.400000      38 t-inv T
 -0.000000  0.250000 -0.400000      39 t-inv T
 -0.250000  0.250000 -0.400000      40 t-inv T
 -0.500000  0.250000 -0.400000      41 t-inv T
  0.250000  0.250000 -0.400000      42 t-inv T


--------------------------------------------------------------------------------------------------------




 Dimension of arrays:
   k-points           NKPTS =     42   k-points in BZ     NKDIM =     80   number of bands    NBANDS=     80
   number of dos      NEDOS =    301   number of ions     NIONS =     12
   non local maximal  LDIM  =      6   non local SUM 2l+1 LMDIM =     18
   total plane-waves  NPLWV =  32768
   max r-space proj   IRMAX =      1   max aug-charges    IRDMAX=   8224
   dimension x,y,z NGX =    32 NGY =   32 NGZ =   32
   dimension x,y,z NGXF=    64 NGYF=   64 NGZF=   64
   support grid    NGXF=    64 NGYF=   64 NGZF=   64
   ions per type =               4   2   6
 NGX,Y,Z   is equivalent  to a cutoff of   8.18,  8.18,  8.27 a.u.
 NGXF,Y,Z  is equivalent  to a cutoff of  16.37, 16.37, 16.55 a.u.


 I would recommend the setting:
   dimension x,y,z NGX =    32 NGY =   32 NGZ =   31
 SYSTEM =  CGS                                     
 POSCAR =  Cu Ge S                                 

 Startparameter for this run:
   NWRITE =      2    write-flag & timer
   PREC   = normal    normal or accurate (medium, high low for compatibility)
   ISTART =      1    job   : 0-new  1-cont  2-samecut
   ICHARG =      0    charge: 1-file 2-atom 10-const
   ISPIN  =      1    spin polarized calculation?
   LNONCOLLINEAR =      F non collinear calculations
   LSORBIT =      F    spin-orbit coupling
   INIWAV =      1    electr: 0-lowe 1-rand  2-diag
   LASPH  =      F    aspherical Exc in radial PAW
   METAGGA=      F    non-selfconsistent MetaGGA calc.

 Electronic Relaxation 1
   ENCUT  =  400.0 eV  29.40 Ry    5.42 a.u.  10.60 10.60 10.48*2*pi/ulx,y,z
   ENINI  =  400.0     initial cutoff
   ENAUG  =  758.2 eV  augmentation charge cutoff
   NELM   =     60;   NELMIN=  2; NELMDL=  0     # of ELM steps 
   EDIFF  = 0.1E-04   stopping-criterion for ELM
   LREAL  =      F    real-space projection
   NLSPLINE    = F    spline interpolate recip. space projectors
   LCOMPAT=      F    compatible to vasp.4.4
   GGA_COMPAT  = T    GGA compatible to vasp.4.4-vasp.4.6
   LMAXPAW     = -100 max onsite density
   LMAXMIX     =    2 max onsite mixed and CHGCAR
   VOSKOWN=      0    Vosko Wilk Nusair interpolation
   ROPT   =    0.00000   0.00000   0.00000
 Ionic relaxation
   EDIFFG = 0.1E-03   stopping-criterion for IOM
   NSW    =      0    number of steps for IOM
   NBLOCK =      1;   KBLOCK =      1    inner block; outer block 
   IBRION =     -1    ionic relax: 0-MD 1-quasi-New 2-CG
   NFREE  =      0    steps in history (QN), initial steepest desc. (CG)
   ISIF   =      0    stress and relaxation
   IWAVPR =     10    prediction:  0-non 1-charg 2-wave 3-comb
   ISYM   =      3    0-nonsym 1-usesym 2-fastsym
   LCORR  =      T    Harris-Foulkes like correction to forces

   POTIM  = 0.5000    time-step for ionic-motion
   TEIN   =    0.0    initial temperature
   TEBEG  =    0.0;   TEEND  =   0.0 temperature during run
   SMASS  =  -3.00    Nose mass-parameter (am)
   estimated Nose-frequenzy (Omega)   =  0.10E-29 period in steps =****** mass=  -0.966E-27a.u.
   SCALEE = 1.0000    scale energy and forces
   NPACO  =    256;   APACO  = 16.0  distance and # of slots for P.C.
   PSTRESS=    0.0 pullay stress

  Mass of Ions in am
   POMASS =  63.55 72.61 32.07
  Ionic Valenz
   ZVAL   =  17.00  4.00  6.00
  Atomic Wigner-Seitz radii
   RWIGS  =  -1.00 -1.00 -1.00
  virtual crystal weights 
   VCA    =   1.00  1.00  1.00
   NELECT =     112.0000    total number of electrons
   NUPDOWN=      -1.0000    fix difference up-down

 DOS related values:
   EMIN   =  10.00;   EMAX   =-10.00  energy-range for DOS
   EFERMI =   0.00
   ISMEAR =     1;   SIGMA  =   0.10  broadening in eV -4-tet -1-fermi 0-gaus

 Electronic relaxation 2 (details)
   IALGO  =     53    algorithm
   LDIAG  =      T    sub-space diagonalisation (order eigenvalues)
   LSUBROT=      T    optimize rotation matrix (better conditioning)
   TURBO    =      0    0=normal 1=particle mesh
   IRESTART =      0    0=no restart 2=restart with 2 vectors
   NREBOOT  =      0    no. of reboots
   NMIN     =      0    reboot dimension
   EREF     =   0.00    reference energy to select bands
   IMIX   =      4    mixing-type and parameters
     AMIX     =   0.40;   BMIX     =  1.00
     AMIX_MAG =   1.60;   BMIX_MAG =  1.00
     AMIN     =   0.10
     WC   =   100.;   INIMIX=   1;  MIXPRE=   1;  MAXMIX= -45

 Intra band minimization:
   WEIMIN = 0.0000     energy-eigenvalue tresh-hold
   EBREAK =  0.31E-07  absolut break condition
   DEPER  =   0.30     relativ break condition  

   TIME   =   0.40     timestep for ELM

  volume/ion in A,a.u.               =      18.49       124.79
  Fermi-wavevector in a.u.,A,eV,Ry     =   1.303450  2.463163 23.116052  1.698982
  Thomas-Fermi vector in A             =   2.434451
 
 Write flags
   LWAVE  =      T    write WAVECAR
   LCHARG =      T    write CHGCAR
   LVTOT  =      F    write LOCPOT, total local potential
   LVHAR  =      F    write LOCPOT, Hartree potential only
   LELF   =      F    write electronic localiz. function (ELF)
   LORBIT =      0    0 simple, 1 ext, 2 COOP (PROOUT)


 Dipole corrections
   LMONO  =      F    monopole corrections only (constant potential shift)
   LDIPOL =      F    correct potential (dipole corrections)
   IDIPOL =      0    1-x, 2-y, 3-z, 4-all directions 
   EPSILON=  1.0000000 bulk dielectric constant

 Exchange correlation treatment:
   GGA     =    PE    GGA type
   LEXCH   =     8    internal setting for exchange type
   VOSKOWN=      0    Vosko Wilk Nusair interpolation
   EXXOEP  =     0    0=HF, 1=EXX-LHF (local Hartree Fock) 2=EXX OEP
   LHFCALC =     T    Hartree Fock is set to
   LSYMGRAD=     F    symmetrize gradient (conserves proper symmetry)
   PRECFOCK=fast      Normal, Fast or Accurate (Low or Medium for compatibility)
   LRHFCALC=     F    long range Hartree Fock
   LRSCOR  =     F    long range correlation only (use DFT for short range part)
   LTHOMAS =     F    Thomas Fermi screening in HF
   LMODELHF=     F    short range full HF, long range fraction AEXX
   ENCUT4O =  -1.0   cutoff for four orbital integrals eV
   LMAXFOCK=     4    L truncation for augmentation on plane wave grid
   LMAXFOCKAE=  -1    L truncation for all-electron charge restoration on plane wave grid
   NMAXFOCKAE=   1    number of basis functions for all-electron charge restoration
   LFOCKAEDFT=     F  apply the AE augmentation even for DFT
   NKREDX  =     1    reduce k-point grid by
   NKREDY  =     1    reduce k-point grid by
   NKREDZ  =     1    reduce k-point grid by
   SHIFTRED=     F    shift reduced grid of Gamma
   HFKIDENT=     F    idential grid for each k-point
   ODDONLY =     F    use only odd q-grid points
   EVENONLY=     F    use only even q-grid points
   HFALPHA =   -1.0000 decay constant for conv. correction
   MCALPHA =    0.0000 extent of test-charge in conv. correction in multipole expansion
   AEXX    =    0.2500 exact exchange contribution
   HFSCREEN=    0.2000 screening length (either q_TF or 0.3 A-1)
   HFSCREENC=   0.2000 screening length for correlation (either q_TF or 0.3 A-1)
   HFRCUT  =    0.0000 spherical cutoff for potential kernel
   ALDAX   =    0.7500 LDA exchange part
   AGGAX   =    0.7500 GGA exchange part
   ALDAC   =    1.0000 LDA correlation
   AGGAC   =    1.0000 GGA correlation
   NBANDSGWLOW=     1    first orbital included in HF term
 Linear response parameters
   LEPSILON=     F    determine dielectric tensor
   LRPA    =     F    only Hartree local field effects (RPA)
   LNABLA  =     F    use nabla operator in PAW spheres
   LVEL    =     F    velocity operator in full k-point grid
   LINTERFAST=   F  fast interpolation
   KINTER  =     0    interpolate to denser k-point grid
   CSHIFT  =0.1000    complex shift for real part using Kramers Kronig
   OMEGAMAX=  -1.0    maximum frequency
   DEG_THRESHOLD= 0.2000000E-02 threshold for treating states as degnerate
   RTIME   =    0.100 relaxation time in fs

 Orbital magnetization related:
   ORBITALMAG=     F  switch on orbital magnetization
   LCHIMAG   =     F  perturbation theory with respect to B field
   DQ        =  0.001000  dq finite difference perturbation B field



--------------------------------------------------------------------------------------------------------


 Static calculation
 charge density and potential will be updated during run
 non-spin polarized calculation
 Conjugate gradient for all bands, subspace preconditioning
 perform sub-space diagonalisation
    before iterative eigenvector-optimisation
 modified Broyden-mixing scheme, WC =      100.0
 initial mixing is a Kerker type mixing with AMIX =  0.4000 and BMIX =      1.0000
 Hartree-type preconditioning will be used
 using additional bands           24
 reciprocal scheme for non local part
 use partial core corrections
 no Harris-corrections to forces 
 use gradient corrections 
 use of overlap-Matrix (Vanderbilt PP)
 Methfessel and Paxton  Order N= 1 SIGMA  =   0.10


--------------------------------------------------------------------------------------------------------


  energy-cutoff  :      400.00
  volume of cell :      221.90
      direct lattice vectors                 reciprocal lattice vectors
     3.224796000 -5.643830000  0.031572000     0.154525165 -0.088592321  0.053460880
     3.224796000  5.643830000  0.031572000     0.154525165  0.088592321  0.053460880
    -2.101946000  0.000000000  6.075537000    -0.001606004  0.000000000  0.164038877

  length of vectors
     6.500240234  6.500240234  6.428866683     0.185969598  0.185969598  0.164046738


 
 old parameters found on file WAVECAR:
  energy-cutoff  :      400.00
  volume of cell :      222.35
      direct lattice vectors                 reciprocal lattice vectors
     3.227235519 -5.642745207  0.030241751     0.154430495 -0.088609353  0.053450002
     3.227235519  5.642745207  0.030241751     0.154430495  0.088609353  0.053450002
    -2.106135241  0.000000000  6.085154262    -0.001534965  0.000000000  0.163803104

  length of vectors

 
 k-points in units of 2pi/SCALE and weight: pymatgen 4.7.6+ generated KPOINTS with g
   0.00000000  0.00000000  0.00000000       0.013
   0.03863129 -0.02214808  0.01336522       0.025
   0.07726258 -0.04429616  0.02673044       0.013
   0.03863129  0.02214808  0.01336522       0.025
   0.07726258  0.00000000  0.02673044       0.025
   0.11589387 -0.02214808  0.04009566       0.025
   0.00000000  0.04429616  0.00000000       0.025
   0.07726258  0.04429616  0.02673044       0.013
   0.11589387  0.02214808  0.04009566       0.025
   0.15452516  0.00000000  0.05346088       0.013
  -0.00032120  0.00000000  0.03280778       0.025
   0.03831009 -0.02214808  0.04617300       0.025
   0.07694138 -0.04429616  0.05953822       0.025
  -0.03895249  0.02214808  0.01944256       0.025
   0.03831009  0.02214808  0.04617300       0.025
   0.07694138  0.00000000  0.05953822       0.025
   0.11557267 -0.02214808  0.07290344       0.025
  -0.00032120  0.04429616  0.03280778       0.025
   0.07694138  0.04429616  0.05953822       0.025
   0.11557267  0.02214808  0.07290344       0.025
   0.15420396  0.00000000  0.08626865       0.025
   0.03831009  0.06644424  0.04617300       0.025
  -0.03895249 -0.02214808  0.01944256       0.025
  -0.00032120 -0.04429616  0.03280778       0.025
   0.03831009 -0.06644424  0.04617300       0.025
  -0.07758378  0.00000000  0.00607734       0.025
  -0.00064240  0.00000000  0.06561555       0.025
   0.03798889 -0.02214808  0.07898077       0.025
   0.07662018 -0.04429616  0.09234599       0.025
  -0.03927369  0.02214808  0.05225033       0.025
   0.03798889  0.02214808  0.07898077       0.025
   0.07662018  0.00000000  0.09234599       0.025
   0.11525147 -0.02214808  0.10571121       0.025
  -0.00064240  0.04429616  0.06561555       0.025
   0.07662018  0.04429616  0.09234599       0.025
   0.11525147  0.02214808  0.10571121       0.025
   0.15388276  0.00000000  0.11907643       0.025
   0.03798889  0.06644424  0.07898077       0.025
  -0.03927369 -0.02214808  0.05225033       0.025
  -0.00064240 -0.04429616  0.06561555       0.025
   0.03798889 -0.06644424  0.07898077       0.025
  -0.07790498  0.00000000  0.03888511       0.025
 
 k-points in reciprocal lattice and weights: pymatgen 4.7.6+ generated KPOINTS with g
   0.00000000  0.00000000  0.00000000       0.013
   0.25000000  0.00000000  0.00000000       0.025
   0.50000000  0.00000000  0.00000000       0.013
   0.00000000  0.25000000  0.00000000       0.025
   0.25000000  0.25000000  0.00000000       0.025
   0.50000000  0.25000000 -0.00000000       0.025
  -0.25000000  0.25000000  0.00000000       0.025
   0.00000000  0.50000000  0.00000000       0.013
   0.25000000  0.50000000 -0.00000000       0.025
   0.50000000  0.50000000  0.00000000       0.013
  -0.00000000 -0.00000000  0.20000000       0.025
   0.25000000  0.00000000  0.20000000       0.025
   0.50000000  0.00000000  0.20000000       0.025
  -0.25000000 -0.00000000  0.20000000       0.025
   0.00000000  0.25000000  0.20000000       0.025
   0.25000000  0.25000000  0.20000000       0.025
   0.50000000  0.25000000  0.20000000       0.025
  -0.25000000  0.25000000  0.20000000       0.025
   0.00000000  0.50000000  0.20000000       0.025
   0.25000000  0.50000000  0.20000000       0.025
   0.50000000  0.50000000  0.20000000       0.025
  -0.25000000  0.50000000  0.20000000       0.025
  -0.00000000 -0.25000000  0.20000000       0.025
   0.25000000 -0.25000000  0.20000000       0.025
   0.50000000 -0.25000000  0.20000000       0.025
  -0.25000000 -0.25000000  0.20000000       0.025
  -0.00000000 -0.00000000  0.40000000       0.025
   0.25000000  0.00000000  0.40000000       0.025
   0.50000000  0.00000000  0.40000000       0.025
  -0.25000000  0.00000000  0.40000000       0.025
   0.00000000  0.25000000  0.40000000       0.025
   0.25000000  0.25000000  0.40000000       0.025
   0.50000000  0.25000000  0.40000000       0.025
  -0.25000000  0.25000000  0.40000000       0.025
   0.00000000  0.50000000  0.40000000       0.025
   0.25000000  0.50000000  0.40000000       0.025
   0.50000000  0.50000000  0.40000000       0.025
  -0.25000000  0.50000000  0.40000000       0.025
   0.00000000 -0.25000000  0.40000000       0.025
   0.25000000 -0.25000000  0.40000000       0.025
   0.50000000 -0.25000000  0.40000000       0.025
  -0.25000000 -0.25000000  0.40000000       0.025
 
 position of ions in fractional coordinates (direct lattice) 
   0.61844300  0.12117100  0.11953300
   0.12117100  0.61844300  0.61953300
   0.96295700  0.78878360  0.11881300
   0.79032200  0.96295700  0.61881300
   0.43973200  0.26728100  0.59904700
   0.26728100  0.43973200  0.09904700
   0.07949800  0.91167500  0.49736300
   0.57140300  0.41236400  0.98018400
   0.73711100  0.25006200  0.49504900
   0.41236400  0.57140300  0.48018400
   0.91167500  0.07949800  0.99736300
   0.25006200  0.73711100  0.99504900
 
 position of ions in cartesian coordinates  (Angst):
   2.13385236 -2.80651863  0.74957826
   1.08287936  2.80651863  3.78734676
   5.39926755 -0.98300509  0.77715873
   4.35325560  0.97432259  3.81497580
   1.02080825 -0.97328413  3.66185403
   2.07178125  0.97328413  0.62408553
   2.15090056  4.69666552  3.05304062
   1.11215405 -0.89758908  5.98620365
   2.14286528 -2.74882176  3.03885554
   2.16312705  0.89758908  2.94843515
   1.09992756 -4.69666552  6.09080912
   1.09189228  2.74882176  6.07662404
 


--------------------------------------------------------------------------------------------------------


 k-point  1 :   0.0000 0.0000 0.0000  plane waves:    4051
 k-point  2 :   0.2500 0.0000 0.0000  plane waves:    4032
 k-point  3 :   0.5000 0.0000 0.0000  plane waves:    4030
 k-point  4 :   0.0000 0.2500 0.0000  plane waves:    4032
 k-point  5 :   0.2500 0.2500 0.0000  plane waves:    4038
 k-point  6 :   0.5000 0.2500-0.0000  plane waves:    4037
 k-point  7 :  -0.2500 0.2500 0.0000  plane waves:    4042
 k-point  8 :   0.0000 0.5000 0.0000  plane waves:    4030
 k-point  9 :   0.2500 0.5000-0.0000  plane waves:    4037
 k-point 10 :   0.5000 0.5000 0.0000  plane waves:    4026
 k-point 11 :  -0.0000-0.0000 0.2000  plane waves:    4046
 k-point 12 :   0.2500 0.0000 0.2000  plane waves:    4034
 k-point 13 :   0.5000 0.0000 0.2000  plane waves:    4025
 k-point 14 :  -0.2500-0.0000 0.2000  plane waves:    4044
 k-point 15 :   0.0000 0.2500 0.2000  plane waves:    4034
 k-point 16 :   0.2500 0.2500 0.2000  plane waves:    4017
 k-point 17 :   0.5000 0.2500 0.2000  plane waves:    4039
 k-point 18 :  -0.2500 0.2500 0.2000  plane waves:    4042
 k-point 19 :   0.0000 0.5000 0.2000  plane waves:    4025
 k-point 20 :   0.2500 0.5000 0.2000  plane waves:    4039
 k-point 21 :   0.5000 0.5000 0.2000  plane waves:    4030
 k-point 22 :  -0.2500 0.5000 0.2000  plane waves:    4030
 k-point 23 :  -0.0000-0.2500 0.2000  plane waves:    4044
 k-point 24 :   0.2500-0.2500 0.2000  plane waves:    4042
 k-point 25 :   0.5000-0.2500 0.2000  plane waves:    4030
 k-point 26 :  -0.2500-0.2500 0.2000  plane waves:    4020
 k-point 27 :  -0.0000-0.0000 0.4000  plane waves:    4027
 k-point 28 :   0.2500 0.0000 0.4000  plane waves:    4034
 k-point 29 :   0.5000 0.0000 0.4000  plane waves:    4013
 k-point 30 :  -0.2500 0.0000 0.4000  plane waves:    4042
 k-point 31 :   0.0000 0.2500 0.4000  plane waves:    4034
 k-point 32 :   0.2500 0.2500 0.4000  plane waves:    4009
 k-point 33 :   0.5000 0.2500 0.4000  plane waves:    4026
 k-point 34 :  -0.2500 0.2500 0.4000  plane waves:    4027
 k-point 35 :   0.0000 0.5000 0.4000  plane waves:    4013
 k-point 36 :   0.2500 0.5000 0.4000  plane waves:    4026
 k-point 37 :   0.5000 0.5000 0.4000  plane waves:    4037
 k-point 38 :  -0.2500 0.5000 0.4000  plane waves:    4022
 k-point 39 :   0.0000-0.2500 0.4000  plane waves:    4042
 k-point 40 :   0.2500-0.2500 0.4000  plane waves:    4027
 k-point 41 :   0.5000-0.2500 0.4000  plane waves:    4022
 k-point 42 :  -0.2500-0.2500 0.4000  plane waves:    4015

 maximum and minimum number of plane-waves per node :      4051     4009

 maximum number of plane-waves:      4051
 maximum index in each direction: 
   IXMAX=   10   IYMAX=   10   IZMAX=   10
   IXMIN=  -11   IYMIN=  -11   IZMIN=  -10

 WARNING: aliasing errors must be expected set NGX to  44 to avoid them
 WARNING: aliasing errors must be expected set NGY to  44 to avoid them
 WARNING: aliasing errors must be expected set NGZ to  42 to avoid them
 aliasing errors are usually negligible using standard VASP settings
 and one can safely disregard these warnings

 serial   3D FFT for wavefunctions
 parallel 3D FFT for charge:
    minimum data exchange during FFTs selected (reduces bandwidth)


 FFT grid for exact exchange (Hartree Fock) 
  NGX = 24; NGY = 24; NGZ = 24

 
 Radii for the augmentation spheres in the non-local exchange
 for species   1 augmentation radius   1.120 (default was   0.830)
       energy cutoff for augmentation   1600.0
 for species   2 augmentation radius   1.570 (default was   1.163)
       energy cutoff for augmentation   1600.0
 for species   3 augmentation radius   1.034 (default was   0.970)
       energy cutoff for augmentation   1600.0

 total amount of memory used by VASP on root node   151697. kBytes
========================================================================

   base      :      30000. kBytes
   nonl-proj :      74517. kBytes
   fftplans  :        702. kBytes
   grid      :       2400. kBytes
   one-center:        186. kBytes
   HF        :        194. kBytes
   nonlr-proj:       1122. kBytes
   wavefun   :      42576. kBytes
 
 Broyden mixing: mesh for mixing (old mesh)
   NGX = 21   NGY = 21   NGZ = 21
  (NGX  = 64   NGY  = 64   NGZ  = 64)
  gives a total of   9261 points

 charge density for first step will be calculated from the start-wavefunctions


--------------------------------------------------------------------------------------------------------


 Maximum index for augmentation-charges          485 (set IRDMAX)


--------------------------------------------------------------------------------------------------------


 initial charge from wavefunction
 First call to EWALD:  gamma=   0.293
 Maximum number of real-space cells 3x 3x 3
 Maximum number of reciprocal cells 3x 3x 3

 FEWALD executed in parallel
    FEWALD:  cpu time    0.00: real time    0.00


----------------------------------------- Iteration    1(   1)  ---------------------------------------


    POTLOK:  cpu time    0.06: real time    0.06
    SETDIJ:  cpu time    2.12: real time    2.11
 
    SUBROT:  cpu time    0.74: real time    0.74
    SUBROT:  cpu time    0.35: real time    0.35
    SUBROT:  cpu time    0.35: real time    0.35
    --------------------------------------------
    SUBRT+:  cpu time    1.44: real time    1.44

 Broyden mixing:
  rms(total) = 0.30163E-01    rms(broyden)= 0.30147E-01
  rms(prec ) = 0.45722E-01
  weight for this iteration     100.00

 eigenvalues of (default mixing * dielectric matrix)
  average eigenvalue GAMMA=   1.7276
  1.0028  2.4524
 
    TRIAL :  cpu time  247.49: real time  247.28
    CORREC:  cpu time    0.00: real time    0.00
    CHARGE:  cpu time    0.06: real time    0.06
    --------------------------------------------
      LOOP:  cpu time  249.73: real time  249.53

 eigenvalue-minimisations  :     0
 total energy-change (2. order) : 0.7570670E+02  (-0.2135957E+03)
 number of electron     112.0001436 magnetization 
 augmentation part       38.9144690 magnetization 

 Free energy of the ion-electron system (eV)
  ---------------------------------------------------
  alpha Z        PSCENC =       339.31929130
  Ewald energy   TEWEN  =     -9064.59068195
  -1/2 Hartree   DENC   =     -8067.03119249
  -exchange  EXHF       =       327.44079420
  -V(xc)+E(xc)   XCENC  =       369.89408635
  PAW double counting   =     16959.94365961   -17452.67739146
  entropy T*S    EENTRO =        -0.00144015
  eigenvalues    EBANDS =     -1657.57554877
  atomic energy  EATOM  =     18320.98302006
  ---------------------------------------------------
  free energy    TOTEN  =        75.70670014 eV

  energy without entropy =       75.70814030  energy(sigma->0) =       75.70718019


--------------------------------------------------------------------------------------------------------




----------------------------------------- Iteration    1(   2)  ---------------------------------------


    POTLOK:  cpu time    0.05: real time    0.05
    SETDIJ:  cpu time    2.10: real time    2.10
 
    SUBROT:  cpu time    0.72: real time    0.73
    SUBROT:  cpu time    0.37: real time    0.37
    SUBROT:  cpu time    0.37: real time    0.37
    SUBROT:  cpu time    0.37: real time    0.37
    --------------------------------------------
    SUBRT+:  cpu time    1.83: real time    1.85

 Broyden mixing:
  rms(total) = 0.28108E-01    rms(broyden)= 0.28098E-01
  rms(prec ) = 0.51070E-01
  weight for this iteration     100.00

 eigenvalues of (default mixing * dielectric matrix)
  average eigenvalue GAMMA=   1.5895
  2.5481  0.8705  1.3499
 
    TRIAL :  cpu time  255.17: real time  254.96
    CORREC:  cpu time    0.00: real time    0.00
    CHARGE:  cpu time    0.06: real time    0.06
    --------------------------------------------
      LOOP:  cpu time  257.38: real time  257.19

 eigenvalue-minimisations  :     0
 total energy-change (2. order) :-0.8394974E+02  (-0.1472069E+03)
 number of electron     112.0001343 magnetization 
 augmentation part       35.4489218 magnetization 

 Free energy of the ion-electron system (eV)
  ---------------------------------------------------
  alpha Z        PSCENC =       339.31929130
  Ewald energy   TEWEN  =     -9064.59068195
  -1/2 Hartree   DENC   =     -8371.29218486
  -exchange  EXHF       =       338.96736945
  -V(xc)+E(xc)   XCENC  =       377.33842721
  PAW double counting   =     17434.46370247   -17973.73190524
  entropy T*S    EENTRO =        -0.00126169
  eigenvalues    EBANDS =     -1409.69863494
  atomic energy  EATOM  =     18320.98302006
  ---------------------------------------------------
  free energy    TOTEN  =        -8.24303665 eV

  energy without entropy =       -8.24177497  energy(sigma->0) =       -8.24261609


--------------------------------------------------------------------------------------------------------




----------------------------------------- Iteration    1(   3)  ---------------------------------------


    POTLOK:  cpu time    0.06: real time    0.06
    SETDIJ:  cpu time    2.13: real time    2.13
 
    SUBROT:  cpu time    0.74: real time    0.74
    SUBROT:  cpu time    0.36: real time    0.36
    SUBROT:  cpu time    0.35: real time    0.35
    SUBROT:  cpu time    0.37: real time    0.37
    --------------------------------------------
    SUBRT+:  cpu time    1.81: real time    1.84

 Broyden mixing:
  rms(total) = 0.28114E-01    rms(broyden)= 0.28103E-01
  rms(prec ) = 0.52443E-01
  weight for this iteration     100.00

 eigenvalues of (default mixing * dielectric matrix)
  average eigenvalue GAMMA=   1.7753
  1.0117  2.4994  1.8149
 
    TRIAL :  cpu time  255.90: real time  255.70
    CORREC:  cpu time    0.00: real time    0.00
    CHARGE:  cpu time    0.06: real time    0.06
    --------------------------------------------
      LOOP:  cpu time  258.14: real time  257.95

 eigenvalue-minimisations  :     0
 total energy-change (2. order) :-0.6793611E+01  (-0.2055809E+03)
 number of electron     112.0001466 magnetization 
 augmentation part       39.6880152 magnetization 

 Free energy of the ion-electron system (eV)
  ---------------------------------------------------
  alpha Z        PSCENC =       339.31929130
  Ewald energy   TEWEN  =     -9064.59068195
  -1/2 Hartree   DENC   =     -7476.34177297
  -exchange  EXHF       =       324.95611666
  -V(xc)+E(xc)   XCENC  =       357.36178975
  PAW double counting   =     15152.42702690   -15581.80681573
  entropy T*S    EENTRO =         0.00019950
  eigenvalues    EBANDS =     -2387.34336028
  atomic energy  EATOM  =     18320.98302006
  ---------------------------------------------------
  free energy    TOTEN  =       -15.03664794 eV

  energy without entropy =      -15.03684744  energy(sigma->0) =      -15.03671444


--------------------------------------------------------------------------------------------------------




----------------------------------------- Iteration    1(   4)  ---------------------------------------


    POTLOK:  cpu time    0.10: real time    0.10
    SETDIJ:  cpu time    2.14: real time    2.13
 
    SUBROT:  cpu time    0.72: real time    0.73
    SUBROT:  cpu time    0.35: real time    0.35
    SUBROT:  cpu time    0.35: real time    0.35
    SUBROT:  cpu time    0.35: real time    0.35
    SUBROT:  cpu time    0.37: real time    0.37
    --------------------------------------------
    SUBRT+:  cpu time    2.15: real time    2.15

 Broyden mixing:
  rms(total) = 0.11683E+00    rms(broyden)= 0.11663E+00
  rms(prec ) = 0.20573E+00
  weight for this iteration     100.00

 eigenvalues of (default mixing * dielectric matrix)
  average eigenvalue GAMMA=   1.2182
  2.5562  1.2839  0.6481  0.3846
 
    TRIAL :  cpu time  255.45: real time  255.23
    CORREC:  cpu time    0.00: real time    0.00
    CHARGE:  cpu time    0.07: real time    0.07
    --------------------------------------------
      LOOP:  cpu time  257.76: real time  257.54

 eigenvalue-minimisations  :     0
 total energy-change (2. order) :-0.7499961E+01  (-0.1076303E+03)
 number of electron     112.0001388 magnetization 
 augmentation part       37.2438385 magnetization 

 Free energy of the ion-electron system (eV)
  ---------------------------------------------------
  alpha Z        PSCENC =       339.31929130
  Ewald energy   TEWEN  =     -9064.59068195
  -1/2 Hartree   DENC   =     -8543.95382944
  -exchange  EXHF       =       342.99915527
  -V(xc)+E(xc)   XCENC  =       381.67105613
  PAW double counting   =     17637.02077687   -18217.94509752
  entropy T*S    EENTRO =         0.00036535
  eigenvalues    EBANDS =     -1218.04049897
  atomic energy  EATOM  =     18320.98302006
  ---------------------------------------------------
  free energy    TOTEN  =       -22.53660875 eV

  energy without entropy =      -22.53697410  energy(sigma->0) =      -22.53673053


--------------------------------------------------------------------------------------------------------




----------------------------------------- Iteration    1(   5)  ---------------------------------------


    POTLOK:  cpu time    0.05: real time    0.05
    SETDIJ:  cpu time    2.07: real time    2.06
 
    SUBROT:  cpu time    0.74: real time    0.74
    SUBROT:  cpu time    0.37: real time    0.37
    SUBROT:  cpu time    0.35: real time    0.35
    SUBROT:  cpu time    0.35: real time    0.35
    --------------------------------------------
    SUBRT+:  cpu time    1.82: real time    1.82

 Broyden mixing:
  rms(total) = 0.45677E-01    rms(broyden)= 0.45666E-01
  rms(prec ) = 0.92839E-01
  weight for this iteration     100.00

 eigenvalues of (default mixing * dielectric matrix)
  average eigenvalue GAMMA=   1.6862
  2.4590  0.9353  1.6642
 
    TRIAL :  cpu time  248.74: real time  248.52
    CORREC:  cpu time    0.00: real time    0.00
    CHARGE:  cpu time    0.05: real time    0.05
    --------------------------------------------
      LOOP:  cpu time  250.91: real time  250.70

 eigenvalue-minimisations  :     0
 total energy-change (2. order) :-0.3827221E+02  (-0.1506088E+02)
 number of electron     112.0001387 magnetization 
 augmentation part       37.2422587 magnetization 

 Free energy of the ion-electron system (eV)
  ---------------------------------------------------
  alpha Z        PSCENC =       339.31929130
  Ewald energy   TEWEN  =     -9064.59068195
  -1/2 Hartree   DENC   =     -8008.28684636
  -exchange  EXHF       =       336.38045709
  -V(xc)+E(xc)   XCENC  =       368.39655624
  PAW double counting   =     15870.86588469   -16340.33965950
  entropy T*S    EENTRO =         0.00061247
  eigenvalues    EBANDS =     -1883.53720092
  atomic energy  EATOM  =     18320.98302006
  ---------------------------------------------------
  free energy    TOTEN  =       -60.80881398 eV

  energy without entropy =      -60.80942645  energy(sigma->0) =      -60.80901814


--------------------------------------------------------------------------------------------------------




----------------------------------------- Iteration    1(   6)  ---------------------------------------


    POTLOK:  cpu time    0.06: real time    0.06
    SETDIJ:  cpu time    2.13: real time    2.13
 
    SUBROT:  cpu time    0.75: real time    0.75
    SUBROT:  cpu time    0.37: real time    0.37
    SUBROT:  cpu time    0.36: real time    0.36
    SUBROT:  cpu time    0.36: real time    0.36
    --------------------------------------------
    SUBRT+:  cpu time    1.84: real time    1.84

 Broyden mixing:
  rms(total) = 0.26945E-02    rms(broyden)= 0.26939E-02
  rms(prec ) = 0.44854E-02
  weight for this iteration     100.00

 eigenvalues of (default mixing * dielectric matrix)
  average eigenvalue GAMMA=   1.8194
  1.0171  2.5244  1.9167
 
    TRIAL :  cpu time  252.26: real time  252.03
    CORREC:  cpu time    0.00: real time    0.00
    CHARGE:  cpu time    0.05: real time    0.05
    --------------------------------------------
      LOOP:  cpu time  254.50: real time  254.28

 eigenvalue-minimisations  :     0
 total energy-change (2. order) :-0.5104572E+01  (-0.8230711E+01)
 number of electron     112.0001417 magnetization 
 augmentation part       38.2292186 magnetization 

 Free energy of the ion-electron system (eV)
  ---------------------------------------------------
  alpha Z        PSCENC =       339.31929130
  Ewald energy   TEWEN  =     -9064.59068195
  -1/2 Hartree   DENC   =     -8000.42576610
  -exchange  EXHF       =       337.12596055
  -V(xc)+E(xc)   XCENC  =       368.76023099
  PAW double counting   =     15770.23619259   -16239.17652978
  entropy T*S    EENTRO =         0.00067004
  eigenvalues    EBANDS =     -1898.14571656
  atomic energy  EATOM  =     18320.98302006
  ---------------------------------------------------
  free energy    TOTEN  =       -65.91338643 eV

  energy without entropy =      -65.91405647  energy(sigma->0) =      -65.91360978


--------------------------------------------------------------------------------------------------------




----------------------------------------- Iteration    1(   7)  ---------------------------------------


    POTLOK:  cpu time    0.11: real time    0.11
    SETDIJ:  cpu time    2.12: real time    2.12
 
    SUBROT:  cpu time    0.73: real time    0.73
    SUBROT:  cpu time    0.36: real time    0.36
    SUBROT:  cpu time    0.35: real time    0.35
    SUBROT:  cpu time    0.36: real time    0.36
    --------------------------------------------
    SUBRT+:  cpu time    1.79: real time    1.82

 Broyden mixing:
  rms(total) = 0.13300E-01    rms(broyden)= 0.13295E-01
  rms(prec ) = 0.23576E-01
  weight for this iteration     100.00

 eigenvalues of (default mixing * dielectric matrix)
  average eigenvalue GAMMA=   1.6145
  2.5026  0.8910  1.4498
 
    TRIAL :  cpu time  252.33: real time  252.14
    CORREC:  cpu time    0.00: real time    0.00
    CHARGE:  cpu time    0.05: real time    0.05
    --------------------------------------------
      LOOP:  cpu time  254.62: real time  254.43

 eigenvalue-minimisations  :     0
 total energy-change (2. order) :-0.1549615E+01  (-0.4154596E+01)
 number of electron     112.0001400 magnetization 
 augmentation part       37.7056225 magnetization 

 Free energy of the ion-electron system (eV)
  ---------------------------------------------------
  alpha Z        PSCENC =       339.31929130
  Ewald energy   TEWEN  =     -9064.59068195
  -1/2 Hartree   DENC   =     -8243.80567876
  -exchange  EXHF       =       341.62296492
  -V(xc)+E(xc)   XCENC  =       374.56642542
  PAW double counting   =     16208.41343455   -16711.85284255
  entropy T*S    EENTRO =         0.00043963
  eigenvalues    EBANDS =     -1632.11960463
  atomic energy  EATOM  =     18320.98302006
  ---------------------------------------------------
  free energy    TOTEN  =       -67.46300161 eV

  energy without entropy =      -67.46344124  energy(sigma->0) =      -67.46314815


--------------------------------------------------------------------------------------------------------




----------------------------------------- Iteration    1(   8)  ---------------------------------------


    POTLOK:  cpu time    0.10: real time    0.10
    SETDIJ:  cpu time    2.12: real time    2.11
 
    SUBROT:  cpu time    0.75: real time    0.75
    SUBROT:  cpu time    0.37: real time    0.37
    SUBROT:  cpu time    0.39: real time    0.39
    SUBROT:  cpu time    0.39: real time    0.39
    --------------------------------------------
    SUBRT+:  cpu time    1.89: real time    1.90

 Broyden mixing:
  rms(total) = 0.84134E-02    rms(broyden)= 0.84109E-02
  rms(prec ) = 0.14109E-01
  weight for this iteration     100.00

 eigenvalues of (default mixing * dielectric matrix)
  average eigenvalue GAMMA=   1.6757
  2.4560  0.9466  1.6244
 
    TRIAL :  cpu time  252.67: real time  252.46
    CORREC:  cpu time    0.00: real time    0.00
    CHARGE:  cpu time    0.08: real time    0.08
    --------------------------------------------
      LOOP:  cpu time  254.97: real time  254.76

 eigenvalue-minimisations  :     0
 total energy-change (2. order) :-0.1620674E+01  (-0.7725538E+00)
 number of electron     112.0001401 magnetization 
 augmentation part       37.7237621 magnetization 

 Free energy of the ion-electron system (eV)
  ---------------------------------------------------
  alpha Z        PSCENC =       339.31929130
  Ewald energy   TEWEN  =     -9064.59068195
  -1/2 Hartree   DENC   =     -8116.81917604
  -exchange  EXHF       =       339.51904692
  -V(xc)+E(xc)   XCENC  =       371.38063127
  PAW double counting   =     15916.21953107   -16397.58626302
  entropy T*S    EENTRO =         0.00072216
  eigenvalues    EBANDS =     -1777.50951521
  atomic energy  EATOM  =     18320.98302006
  ---------------------------------------------------
  free energy    TOTEN  =       -69.08367597 eV

  energy without entropy =      -69.08439813  energy(sigma->0) =      -69.08391669


--------------------------------------------------------------------------------------------------------




----------------------------------------- Iteration    1(   9)  ---------------------------------------


    POTLOK:  cpu time    0.05: real time    0.06
    SETDIJ:  cpu time    2.13: real time    2.13
 
    SUBROT:  cpu time    0.79: real time    0.79
    SUBROT:  cpu time    0.39: real time    0.39
    SUBROT:  cpu time    0.37: real time    0.37
    SUBROT:  cpu time    0.39: real time    0.39
    --------------------------------------------
    SUBRT+:  cpu time    1.94: real time    1.95

 Broyden mixing:
  rms(total) = 0.52183E-03    rms(broyden)= 0.52121E-03
  rms(prec ) = 0.83364E-03
  weight for this iteration     100.00

 eigenvalues of (default mixing * dielectric matrix)
  average eigenvalue GAMMA=   1.7078
  2.5265  1.0022  1.5946
 
    TRIAL :  cpu time  251.74: real time  251.52
    CORREC:  cpu time    0.00: real time    0.00
    CHARGE:  cpu time    0.06: real time    0.06
    --------------------------------------------
      LOOP:  cpu time  253.99: real time  253.78

 eigenvalue-minimisations  :     0
 total energy-change (2. order) :-0.3103640E+00  (-0.3889812E+00)
 number of electron     112.0001406 magnetization 
 augmentation part       37.9058447 magnetization 

 Free energy of the ion-electron system (eV)
  ---------------------------------------------------
  alpha Z        PSCENC =       339.31929130
  Ewald energy   TEWEN  =     -9064.59068195
  -1/2 Hartree   DENC   =     -8124.26680534
  -exchange  EXHF       =       339.59016394
  -V(xc)+E(xc)   XCENC  =       371.43908852
  PAW double counting   =     15912.07293271   -16393.30008463
  entropy T*S    EENTRO =         0.00085554
  eigenvalues    EBANDS =     -1770.64168674
  atomic energy  EATOM  =     18320.98302006
  ---------------------------------------------------
  free energy    TOTEN  =       -69.39403998 eV

  energy without entropy =      -69.39489552  energy(sigma->0) =      -69.39432516


--------------------------------------------------------------------------------------------------------




----------------------------------------- Iteration    1(  10)  ---------------------------------------


    POTLOK:  cpu time    0.09: real time    0.09
    SETDIJ:  cpu time    2.13: real time    2.12
 
    SUBROT:  cpu time    0.76: real time    0.76
    SUBROT:  cpu time    0.39: real time    0.39
    SUBROT:  cpu time    0.40: real time    0.40
    SUBROT:  cpu time    0.40: real time    0.40
    --------------------------------------------
    SUBRT+:  cpu time    1.94: real time    1.96

 Broyden mixing:
  rms(total) = 0.23084E-02    rms(broyden)= 0.23079E-02
  rms(prec ) = 0.38805E-02
  weight for this iteration     100.00

 eigenvalues of (default mixing * dielectric matrix)
  average eigenvalue GAMMA=   1.6856
  2.4751  0.9886  1.5932
 
    TRIAL :  cpu time  251.93: real time  251.72
    CORREC:  cpu time    0.00: real time    0.00
    CHARGE:  cpu time    0.07: real time    0.07
    --------------------------------------------
      LOOP:  cpu time  254.22: real time  254.02

 eigenvalue-minimisations  :     0
 total energy-change (2. order) :-0.1045803E+00  (-0.1527659E+00)
 number of electron     112.0001404 magnetization 
 augmentation part       37.8187611 magnetization 

 Free energy of the ion-electron system (eV)
  ---------------------------------------------------
  alpha Z        PSCENC =       339.31929130
  Ewald energy   TEWEN  =     -9064.59068195
  -1/2 Hartree   DENC   =     -8171.85931646
  -exchange  EXHF       =       340.39773946
  -V(xc)+E(xc)   XCENC  =       372.54127685
  PAW double counting   =     15994.23121348   -16482.21705264
  entropy T*S    EENTRO =         0.00073107
  eigenvalues    EBANDS =     -1718.30496588
  atomic energy  EATOM  =     18320.98302006
  ---------------------------------------------------
  free energy    TOTEN  =       -69.49862023 eV

  energy without entropy =      -69.49935130  energy(sigma->0) =      -69.49886392


--------------------------------------------------------------------------------------------------------




----------------------------------------- Iteration    1(  11)  ---------------------------------------


    POTLOK:  cpu time    0.13: real time    0.13
    SETDIJ:  cpu time    2.12: real time    2.12
 
    SUBROT:  cpu time    0.79: real time    0.79
    SUBROT:  cpu time    0.38: real time    0.38
    SUBROT:  cpu time    0.39: real time    0.39
    SUBROT:  cpu time    0.40: real time    0.40
    --------------------------------------------
    SUBRT+:  cpu time    1.95: real time    1.97

 Broyden mixing:
  rms(total) = 0.77944E-03    rms(broyden)= 0.77919E-03
  rms(prec ) = 0.15609E-02
  weight for this iteration     100.00

 eigenvalues of (default mixing * dielectric matrix)
  average eigenvalue GAMMA=   1.6713
  2.4945  0.9841  1.5354
 
    TRIAL :  cpu time  252.22: real time  252.01
    CORREC:  cpu time    0.00: real time    0.00
    CHARGE:  cpu time    0.09: real time    0.09
    --------------------------------------------
      LOOP:  cpu time  254.56: real time  254.35

 eigenvalue-minimisations  :     0
 total energy-change (2. order) :-0.6987786E-01  (-0.3706420E-01)
 number of electron     112.0001403 magnetization 
 augmentation part       37.7856465 magnetization 

 Free energy of the ion-electron system (eV)
  ---------------------------------------------------
  alpha Z        PSCENC =       339.31929130
  Ewald energy   TEWEN  =     -9064.59068195
  -1/2 Hartree   DENC   =     -8150.51113294
  -exchange  EXHF       =       340.06998135
  -V(xc)+E(xc)   XCENC  =       372.06852838
  PAW double counting   =     15942.18952083   -16427.13672512
  entropy T*S    EENTRO =         0.00060976
  eigenvalues    EBANDS =     -1741.96103107
  atomic energy  EATOM  =     18320.98302006
  ---------------------------------------------------
  free energy    TOTEN  =       -69.56849809 eV

  energy without entropy =      -69.56910785  energy(sigma->0) =      -69.56870134


--------------------------------------------------------------------------------------------------------




----------------------------------------- Iteration    1(  12)  ---------------------------------------


    POTLOK:  cpu time    0.12: real time    0.12
    SETDIJ:  cpu time    2.10: real time    2.09
 
    SUBROT:  cpu time    0.79: real time    0.79
    SUBROT:  cpu time    0.39: real time    0.39
    SUBROT:  cpu time    0.37: real time    0.37
    SUBROT:  cpu time    0.37: real time    0.37
    --------------------------------------------
    SUBRT+:  cpu time    1.92: real time    1.93

 Broyden mixing:
  rms(total) = 0.21119E-03    rms(broyden)= 0.21110E-03
  rms(prec ) = 0.46086E-03
  weight for this iteration     100.00

 eigenvalues of (default mixing * dielectric matrix)
  average eigenvalue GAMMA=   1.6506
  2.5056  0.9992  1.4469
 
    TRIAL :  cpu time  251.60: real time  251.38
    CORREC:  cpu time    0.00: real time    0.00
    CHARGE:  cpu time    0.08: real time    0.08
    --------------------------------------------
      LOOP:  cpu time  253.90: real time  253.69

 eigenvalue-minimisations  :     0
 total energy-change (2. order) :-0.1236987E-01  (-0.2296446E-01)
 number of electron     112.0001404 magnetization 
 augmentation part       37.8260482 magnetization 

 Free energy of the ion-electron system (eV)
  ---------------------------------------------------
  alpha Z        PSCENC =       339.31929130
  Ewald energy   TEWEN  =     -9064.59068195
  -1/2 Hartree   DENC   =     -8142.05628014
  -exchange  EXHF       =       339.95268954
  -V(xc)+E(xc)   XCENC  =       371.89179058
  PAW double counting   =     15920.15170113   -16404.00192638
  entropy T*S    EENTRO =         0.00055652
  eigenvalues    EBANDS =     -1751.23108187
  atomic energy  EATOM  =     18320.98302006
  ---------------------------------------------------
  free energy    TOTEN  =       -69.58086796 eV

  energy without entropy =      -69.58142448  energy(sigma->0) =      -69.58105347


--------------------------------------------------------------------------------------------------------




----------------------------------------- Iteration    1(  13)  ---------------------------------------


    POTLOK:  cpu time    0.05: real time    0.05
    SETDIJ:  cpu time    2.06: real time    2.06
 
    SUBROT:  cpu time    0.79: real time    0.80
    SUBROT:  cpu time    0.40: real time    0.40
    SUBROT:  cpu time    0.40: real time    0.40
    SUBROT:  cpu time    0.39: real time    0.39
    --------------------------------------------
    SUBRT+:  cpu time    1.98: real time    2.00

 Broyden mixing:
  rms(total) = 0.55617E-03    rms(broyden)= 0.55605E-03
  rms(prec ) = 0.94576E-03
  weight for this iteration     100.00

 eigenvalues of (default mixing * dielectric matrix)
  average eigenvalue GAMMA=   1.6941
  2.4802  0.9961  1.6061
 
    TRIAL :  cpu time  254.31: real time  254.10
    CORREC:  cpu time    0.00: real time    0.00
    CHARGE:  cpu time    0.09: real time    0.09
    --------------------------------------------
      LOOP:  cpu time  256.51: real time  256.30

 eigenvalue-minimisations  :     0
 total energy-change (2. order) :-0.9717740E-02  (-0.5134857E-02)
 number of electron     112.0001404 magnetization 
 augmentation part       37.8300373 magnetization 

 Free energy of the ion-electron system (eV)
  ---------------------------------------------------
  alpha Z        PSCENC =       339.31929130
  Ewald energy   TEWEN  =     -9064.59068195
  -1/2 Hartree   DENC   =     -8151.97253193
  -exchange  EXHF       =       340.12550999
  -V(xc)+E(xc)   XCENC  =       372.12628034
  PAW double counting   =     15936.37760106   -16421.72397883
  entropy T*S    EENTRO =         0.00054582
  eigenvalues    EBANDS =     -1740.23565227
  atomic energy  EATOM  =     18320.98302006
  ---------------------------------------------------
  free energy    TOTEN  =       -69.59058570 eV

  energy without entropy =      -69.59113152  energy(sigma->0) =      -69.59076764


--------------------------------------------------------------------------------------------------------




----------------------------------------- Iteration    1(  14)  ---------------------------------------


    POTLOK:  cpu time    0.05: real time    0.05
    SETDIJ:  cpu time    2.14: real time    2.14
 
    SUBROT:  cpu time    0.83: real time    0.83
    SUBROT:  cpu time    0.40: real time    0.40
    SUBROT:  cpu time    0.39: real time    0.39
    SUBROT:  cpu time    0.42: real time    0.42
    --------------------------------------------
    SUBRT+:  cpu time    2.04: real time    2.04

 Broyden mixing:
  rms(total) = 0.69856E-04    rms(broyden)= 0.69841E-04
  rms(prec ) = 0.14299E-03
  weight for this iteration     100.00

 eigenvalues of (default mixing * dielectric matrix)
  average eigenvalue GAMMA=   1.6746
  2.5150  0.9908  1.5180
 
    TRIAL :  cpu time  255.75: real time  255.52
    CORREC:  cpu time    0.00: real time    0.00
    CHARGE:  cpu time    0.09: real time    0.09
    --------------------------------------------
      LOOP:  cpu time  258.03: real time  257.81

 eigenvalue-minimisations  :     0
 total energy-change (2. order) :-0.2459322E-02  (-0.3801761E-02)
 number of electron     112.0001404 magnetization 
 augmentation part       37.8124174 magnetization 

 Free energy of the ion-electron system (eV)
  ---------------------------------------------------
  alpha Z        PSCENC =       339.31929130
  Ewald energy   TEWEN  =     -9064.59068195
  -1/2 Hartree   DENC   =     -8152.52715126
  -exchange  EXHF       =       340.12398106
  -V(xc)+E(xc)   XCENC  =       372.13620761
  PAW double counting   =     15934.35038511   -16419.86387504
  entropy T*S    EENTRO =         0.00056532
  eigenvalues    EBANDS =     -1739.52476773
  atomic energy  EATOM  =     18320.98302006
  ---------------------------------------------------
  free energy    TOTEN  =       -69.59304502 eV

  energy without entropy =      -69.59361034  energy(sigma->0) =      -69.59323346


--------------------------------------------------------------------------------------------------------




----------------------------------------- Iteration    1(  15)  ---------------------------------------


    POTLOK:  cpu time    0.05: real time    0.06
    SETDIJ:  cpu time    2.15: real time    2.14
 
    SUBROT:  cpu time    0.83: real time    0.83
    SUBROT:  cpu time    0.39: real time    0.39
    SUBROT:  cpu time    0.40: real time    0.40
    SUBROT:  cpu time    0.41: real time    0.41
    --------------------------------------------
    SUBRT+:  cpu time    2.02: real time    2.02

 Broyden mixing:
  rms(total) = 0.19419E-03    rms(broyden)= 0.19413E-03
  rms(prec ) = 0.33188E-03
  weight for this iteration     100.00

 eigenvalues of (default mixing * dielectric matrix)
  average eigenvalue GAMMA=   1.6863
  2.4720  0.9891  1.5979
 
    TRIAL :  cpu time  255.71: real time  255.48
    CORREC:  cpu time    0.00: real time    0.00
    CHARGE:  cpu time    0.08: real time    0.08
    --------------------------------------------
      LOOP:  cpu time  258.00: real time  257.77

 eigenvalue-minimisations  :     0
 total energy-change (2. order) :-0.1513958E-02  (-0.1041592E-02)
 number of electron     112.0001404 magnetization 
 augmentation part       37.8167441 magnetization 

 Free energy of the ion-electron system (eV)
  ---------------------------------------------------
  alpha Z        PSCENC =       339.31929130
  Ewald energy   TEWEN  =     -9064.59068195
  -1/2 Hartree   DENC   =     -8147.79613187
  -exchange  EXHF       =       340.03449934
  -V(xc)+E(xc)   XCENC  =       372.02451264
  PAW double counting   =     15922.23693953   -16407.13691163
  entropy T*S    EENTRO =         0.00057868
  eigenvalues    EBANDS =     -1744.66966172
  atomic energy  EATOM  =     18320.98302006
  ---------------------------------------------------
  free energy    TOTEN  =       -69.59455898 eV

  energy without entropy =      -69.59513766  energy(sigma->0) =      -69.59475187


--------------------------------------------------------------------------------------------------------




----------------------------------------- Iteration    1(  16)  ---------------------------------------


    POTLOK:  cpu time    0.06: real time    0.06
    SETDIJ:  cpu time    2.12: real time    2.12
 
    SUBROT:  cpu time    0.82: real time    0.82
    SUBROT:  cpu time    0.39: real time    0.39
    SUBROT:  cpu time    0.38: real time    0.38
    SUBROT:  cpu time    0.39: real time    0.39
    --------------------------------------------
    SUBRT+:  cpu time    1.99: real time    1.99

 Broyden mixing:
  rms(total) = 0.84451E-04    rms(broyden)= 0.84433E-04
  rms(prec ) = 0.14090E-03
  weight for this iteration     100.00

 eigenvalues of (default mixing * dielectric matrix)
  average eigenvalue GAMMA=   1.6868
  2.4862  0.9895  1.5846
 
    TRIAL :  cpu time  255.81: real time  255.59
    CORREC:  cpu time    0.00: real time    0.00
    CHARGE:  cpu time    0.09: real time    0.09
    --------------------------------------------
      LOOP:  cpu time  258.08: real time  257.86

 eigenvalue-minimisations  :     0
 total energy-change (2. order) :-0.5733113E-03  (-0.4112090E-03)
 number of electron     112.0001404 magnetization 
 augmentation part       37.8215759 magnetization 

 Free energy of the ion-electron system (eV)
  ---------------------------------------------------
  alpha Z        PSCENC =       339.31929130
  Ewald energy   TEWEN  =     -9064.59068195
  -1/2 Hartree   DENC   =     -8148.91533729
  -exchange  EXHF       =       340.05308270
  -V(xc)+E(xc)   XCENC  =       372.05172005
  PAW double counting   =     15923.08468974   -16408.17343776
  entropy T*S    EENTRO =         0.00057909
  eigenvalues    EBANDS =     -1743.40805784
  atomic energy  EATOM  =     18320.98302006
  ---------------------------------------------------
  free energy    TOTEN  =       -69.59513229 eV

[...]
     22      -2.2883      2.00000
     23      -1.9501      2.00000
     24      -1.6185      2.00000
     25      -1.2162      2.00000
     26      -1.0063      2.00000
     27      -0.9780      2.00000
     28      -0.7117      2.00000
     29      -0.5518      2.00000
     30      -0.3891      2.00000
     31      -0.2866      2.00000
     32      -0.1976      2.00000
     33      -0.1820      2.00000
     34      -0.1398      2.00000
     35      -0.0207      2.00000
     36       0.0202      2.00000
     37       1.2952      2.00000
     38       1.3082      2.00000
     39       1.3697      2.00000
     40       1.4116      2.00000
     41       1.4513      2.00000
     42       1.4667      2.00000
     43       1.5061      2.00000
     44       1.5496      2.00000
     45       1.7653      2.00000
     46       1.8936      2.00000
     47       1.9825      2.00000
     48       2.1531      2.00000
     49       2.3718      2.00000
     50       2.5755      2.00000
     51       2.7049      2.00000
     52       2.9108      2.00000
     53       3.0094      2.00000
     54       3.2210      2.00000
     55       3.4000      2.00000
     56       3.6565      2.00000
     57       6.3784     -0.00000
     58       6.5185     -0.00000
     59       7.7193      0.00000
     60       7.9014      0.00000
     61       8.2959      0.00000
     62       8.5734      0.00000
     63       9.3268      0.00000
     64       9.8446      0.00000
     65      10.0217      0.00000
     66      10.3530      0.00000
     67      10.5853      0.00000
     68      10.7876      0.00000
     69      10.9779      0.00000
     70      11.2545      0.00000
     71      11.2999      0.00000
     72      11.7042      0.00000
     73      12.2527      0.00000
     74      12.4653      0.00000
     75      13.0965      0.00000
     76      13.4649      0.00000
     77      13.7950      0.00000
     78      14.6656      0.00000
     79      14.9952      0.00000
     80      15.7201      0.00000

 k-point  40 :       0.2500   -0.2500    0.4000
  band No.  band energies     occupation 
      1     -68.6458      2.00000
      2     -68.6451      2.00000
      3     -68.6350      2.00000
      4     -68.6324      2.00000
      5     -68.6139      2.00000
      6     -68.6133      2.00000
      7     -68.5965      2.00000
      8     -68.5960      2.00000
      9     -68.5785      2.00000
     10     -68.5763      2.00000
     11     -68.5609      2.00000
     12     -68.5596      2.00000
     13     -12.2207      2.00000
     14     -11.8195      2.00000
     15     -10.8239      2.00000
     16     -10.6702      2.00000
     17     -10.3490      2.00000
     18     -10.2753      2.00000
     19      -5.4468      2.00000
     20      -5.1167      2.00000
     21      -2.4299      2.00000
     22      -2.1538      2.00000
     23      -2.0173      2.00000
     24      -1.5231      2.00000
     25      -1.3563      2.00000
     26      -1.1701      2.00000
     27      -0.9352      2.00000
     28      -0.8102      2.00000
     29      -0.5831      2.00000
     30      -0.5380      2.00000
     31      -0.2791      2.00000
     32      -0.2408      2.00000
     33      -0.1361      2.00000
     34      -0.0909      2.00000
     35      -0.0206      2.00000
     36       0.0342      2.00000
     37       1.3119      2.00000
     38       1.3458      2.00000
     39       1.3636      2.00000
     40       1.3976      2.00000
     41       1.4514      2.00000
     42       1.4815      2.00000
     43       1.4991      2.00000
     44       1.5648      2.00000
     45       1.8029      2.00000
     46       1.8474      2.00000
     47       1.9598      2.00000
     48       2.1078      2.00000
     49       2.2951      2.00000
     50       2.5308      2.00000
     51       2.6402      2.00000
     52       2.7694      2.00000
     53       2.9276      2.00000
     54       3.1615      2.00000
     55       3.3029      2.00000
     56       3.5747      2.00000
     57       6.5620     -0.00000
     58       6.7180     -0.00000
     59       7.9646      0.00000
     60       8.0024      0.00000
     61       8.7300      0.00000
     62       9.0916      0.00000
     63       9.4568      0.00000
     64       9.8280      0.00000
     65      10.2987      0.00000
     66      10.3658      0.00000
     67      10.7809      0.00000
     68      10.8483      0.00000
     69      11.1148      0.00000
     70      11.2713      0.00000
     71      11.3715      0.00000
     72      11.6214      0.00000
     73      12.0457      0.00000
     74      12.2942      0.00000
     75      12.6491      0.00000
     76      13.1211      0.00000
     77      13.2791      0.00000
     78      14.2418      0.00000
     79      15.6321      0.00000
     80      15.8459      0.00000

 k-point  41 :       0.5000   -0.2500    0.4000
  band No.  band energies     occupation 
      1     -68.6456      2.00000
      2     -68.6451      2.00000
      3     -68.6348      2.00000
      4     -68.6322      2.00000
      5     -68.6138      2.00000
      6     -68.6134      2.00000
      7     -68.5963      2.00000
      8     -68.5958      2.00000
      9     -68.5785      2.00000
     10     -68.5764      2.00000
     11     -68.5609      2.00000
     12     -68.5595      2.00000
     13     -12.0805      2.00000
     14     -11.7769      2.00000
     15     -10.8477      2.00000
     16     -10.7583      2.00000
     17     -10.5324      2.00000
     18     -10.3144      2.00000
     19      -5.4193      2.00000
     20      -4.9406      2.00000
     21      -2.4006      2.00000
     22      -2.1313      2.00000
     23      -1.8622      2.00000
     24      -1.7224      2.00000
     25      -1.4485      2.00000
     26      -1.1223      2.00000
     27      -0.8845      2.00000
     28      -0.6446      2.00000
     29      -0.6024      2.00000
     30      -0.4505      2.00000
     31      -0.2635      2.00000
     32      -0.1839      2.00000
     33      -0.1219      2.00000
     34      -0.0528      2.00000
     35      -0.0175      2.00000
     36       0.0241      2.00000
     37       1.2610      2.00000
     38       1.3159      2.00000
     39       1.4097      2.00000
     40       1.4375      2.00000
     41       1.4837      2.00000
     42       1.4925      2.00000
     43       1.5155      2.00000
     44       1.5749      2.00000
     45       1.7619      2.00000
     46       1.8412      2.00000
     47       2.1179      2.00000
     48       2.1848      2.00000
     49       2.3662      2.00000
     50       2.4600      2.00000
     51       2.4929      2.00000
     52       2.6928      2.00000
     53       2.8230      2.00000
     54       3.0878      2.00000
     55       3.2902      2.00000
     56       3.5258      2.00000
     57       6.4958     -0.00000
     58       6.5847     -0.00000
     59       7.4535      0.00000
     60       7.7203      0.00000
     61       8.5893      0.00000
     62       8.7448      0.00000
     63       9.3008      0.00000
     64       9.5328      0.00000
     65       9.9502      0.00000
     66      10.1857      0.00000
     67      10.6795      0.00000
     68      11.1144      0.00000
     69      11.2508      0.00000
     70      11.5682      0.00000
     71      11.7070      0.00000
     72      11.8944      0.00000
     73      12.3007      0.00000
     74      12.6577      0.00000
     75      13.0117      0.00000
     76      13.2307      0.00000
     77      13.6660      0.00000
     78      14.0684      0.00000
     79      14.3911      0.00000
     80      16.5104      0.00000

 k-point  42 :      -0.2500   -0.2500    0.4000
  band No.  band energies     occupation 
      1     -68.6459      2.00000
      2     -68.6452      2.00000
      3     -68.6347      2.00000
      4     -68.6322      2.00000
      5     -68.6137      2.00000
      6     -68.6136      2.00000
      7     -68.5963      2.00000
      8     -68.5959      2.00000
      9     -68.5785      2.00000
     10     -68.5764      2.00000
     11     -68.5610      2.00000
     12     -68.5597      2.00000
     13     -12.1799      2.00000
     14     -11.7069      2.00000
     15     -10.7168      2.00000
     16     -10.6948      2.00000
     17     -10.5837      2.00000
     18     -10.3916      2.00000
     19      -5.4460      2.00000
     20      -5.0728      2.00000
     21      -2.5087      2.00000
     22      -2.3817      2.00000
     23      -1.9628      2.00000
     24      -1.3670      2.00000
     25      -1.3308      2.00000
     26      -1.0527      2.00000
     27      -0.8333      2.00000
     28      -0.7678      2.00000
     29      -0.4234      2.00000
     30      -0.3402      2.00000
     31      -0.2726      2.00000
     32      -0.2078      2.00000
     33      -0.1405      2.00000
     34      -0.1378      2.00000
     35      -0.0133      2.00000
     36       0.0281      2.00000
     37       1.1729      2.00000
     38       1.3712      2.00000
     39       1.3975      2.00000
     40       1.4528      2.00000
     41       1.4541      2.00000
     42       1.4984      2.00000
     43       1.5172      2.00000
     44       1.5490      2.00000
     45       1.7455      2.00000
     46       1.8217      2.00000
     47       1.9750      2.00000
     48       2.2276      2.00000
     49       2.3963      2.00000
     50       2.6135      2.00000
     51       2.6557      2.00000
     52       2.9147      2.00000
     53       3.0685      2.00000
     54       3.1149      2.00000
     55       3.2860      2.00000
     56       3.5834      2.00000
     57       6.2898     -0.00000
     58       6.3799     -0.00000
     59       7.3584      0.00000
     60       7.5250      0.00000
     61       8.3070      0.00000
     62       8.3347      0.00000
     63       9.1053      0.00000
     64       9.3597      0.00000
     65       9.7165      0.00000
     66       9.9468      0.00000
     67      10.5242      0.00000
     68      10.9884      0.00000
     69      11.4269      0.00000
     70      11.5669      0.00000
     71      12.0139      0.00000
     72      12.2841      0.00000
     73      12.4273      0.00000
     74      12.4782      0.00000
     75      13.0312      0.00000
     76      13.1531      0.00000
     77      14.1417      0.00000
     78      14.4354      0.00000
     79      15.1644      0.00000
     80      15.8642      0.00000


--------------------------------------------------------------------------------------------------------


 soft charge-density along one line, spin component           1
         0         1         2         3         4         5         6         7         8         9
 total charge-density along one line
 
 pseudopotential strength for first ion, spin component:           1
-65.424   0.002   0.006   7.363   0.000  -0.003   0.001   0.007
  0.002 -65.393  -0.005   0.000   7.353   0.001  -0.001  -0.024
  0.006  -0.005 -65.384  -0.003   0.001   7.349  -0.037  -0.001
  7.363   0.000  -0.003   6.110   0.000   0.001   0.002  -0.003
  0.000   7.353   0.001   0.000   6.113  -0.000   0.000   0.007
 -0.003   0.001   7.349   0.001  -0.000   6.114   0.009   0.000
  0.001  -0.001  -0.037   0.002   0.000   0.009  -2.979  -0.003
  0.007  -0.024  -0.001  -0.003   0.007   0.000  -0.003  -2.985
  0.022   0.043   0.009  -0.005  -0.008  -0.003  -0.003   0.008
 -0.001  -0.017   0.007   0.000   0.004  -0.003   0.004   0.007
  0.026   0.000  -0.034  -0.007  -0.000   0.007  -0.000   0.007
  0.001  -0.001  -0.036   0.002   0.000   0.008  -3.626  -0.003
  0.007  -0.023  -0.001  -0.003   0.007   0.000  -0.003  -3.631
  0.022   0.042   0.009  -0.005  -0.008  -0.002  -0.003   0.008
 -0.001  -0.017   0.007   0.000   0.004  -0.003   0.004   0.007
  0.025   0.000  -0.034  -0.007  -0.000   0.006  -0.000   0.007
  0.007  -0.005   0.004  -0.001   0.001  -0.001  -0.002   0.000
  0.015  -0.010   0.009  -0.002   0.001  -0.002  -0.003   0.001
 total augmentation occupancy for first ion, spin component:           1
  2.000  -0.000   0.000  -0.003  -0.000   0.000   0.007  -0.005   0.001  -0.001  -0.005  -0.007   0.005  -0.001   0.001   0.004
 -0.000   2.000  -0.000  -0.000  -0.003   0.000  -0.001   0.005   0.004   0.001   0.000   0.001  -0.005  -0.005  -0.001  -0.000
  0.000  -0.000   2.000   0.000   0.000  -0.003  -0.000  -0.000  -0.001  -0.005  -0.004   0.001   0.000   0.001   0.005   0.005
 -0.003  -0.000   0.000   0.095   0.006  -0.005  -0.334   0.233  -0.074   0.011   0.017   0.281  -0.197   0.058  -0.007  -0.011
 -0.000  -0.003   0.000   0.006   0.102   0.001   0.020  -0.048  -0.445   0.015   0.011  -0.013   0.037   0.377  -0.010  -0.009
  0.000   0.000  -0.003  -0.005   0.001   0.099   0.098  -0.003  -0.014   0.236   0.354  -0.077   0.001   0.011  -0.202  -0.297
  0.007  -0.001  -0.000  -0.334   0.020   0.098   4.007  -0.793   0.097   0.216   0.147  -1.736   0.744  -0.089  -0.182  -0.141
 -0.005   0.005  -0.000   0.233  -0.048  -0.003  -0.793   3.512   0.292   0.158   0.297   0.744  -1.271  -0.215  -0.114  -0.206
  0.001   0.004  -0.001  -0.074  -0.445  -0.014   0.097   0.292   4.690  -0.042  -0.117  -0.089  -0.216  -2.399   0.035   0.086
 -0.001   0.001  -0.005   0.011   0.015   0.236   0.216   0.158  -0.042   3.635   0.798  -0.182  -0.114   0.035  -1.354  -0.759
 -0.005   0.000  -0.004   0.017   0.011   0.354   0.147   0.297  -0.117   0.798   3.996  -0.142  -0.206   0.086  -0.760  -1.742
 -0.007   0.001   0.001   0.281  -0.013  -0.077  -1.736   0.744  -0.089  -0.182  -0.142   1.441  -0.696   0.082   0.154   0.136
  0.005  -0.005   0.000  -0.197   0.037   0.001   0.744  -1.271  -0.216  -0.114  -0.206  -0.696   1.006   0.154   0.079   0.133
 -0.001  -0.005   0.001   0.058   0.377   0.011  -0.089  -0.215  -2.399   0.035   0.086   0.082   0.154   2.083  -0.029  -0.063
  0.001  -0.001   0.005  -0.007  -0.010  -0.202  -0.182  -0.114   0.035  -1.354  -0.760   0.154   0.079  -0.029   1.059   0.721
  0.004  -0.000   0.005  -0.011  -0.009  -0.297  -0.141  -0.206   0.086  -0.759  -1.742   0.136   0.133  -0.063   0.721   1.462
 -0.025   0.016  -0.013  -0.020   0.011  -0.006   0.080  -0.101  -0.023  -0.006   0.025  -0.063   0.088   0.035   0.006   0.005
  0.012  -0.008   0.006   0.001  -0.000  -0.000  -0.008   0.003  -0.004   0.004  -0.019   0.004  -0.005  -0.002  -0.001   0.003


------------------------ aborting loop because EDIFF is reached ----------------------------------------


    FORLOC:  cpu time    0.00: real time    0.00
    FORHF :  cpu time  478.71: real time  478.28
    FORNL :  cpu time    0.40: real time    0.40
    FORCOR:  cpu time    2.15: real time    2.15

 VOLUME and BASIS-vectors are now :
 -----------------------------------------------------------------------------
  energy-cutoff  :      400.00
  volume of cell :      221.90
      direct lattice vectors                 reciprocal lattice vectors
     3.224796000 -5.643830000  0.031572000     0.154525165 -0.088592321  0.053460880
     3.224796000  5.643830000  0.031572000     0.154525165  0.088592321  0.053460880
    -2.101946000  0.000000000  6.075537000    -0.001606004  0.000000000  0.164038877

  length of vectors
     6.500240234  6.500240234  6.428866683     0.185969598  0.185969598  0.164046738


 FORCES acting on ions:
    Electron-Ion                     Ewald-Force                    Non-Local-Force
 -----------------------------------------------------------------------------------------------
   -.136E+02 -.959E+02 0.115E+02   0.124E+02 0.934E+02 -.989E+01   0.102E+01 0.212E+01 -.141E+01
   -.146E+02 0.977E+02 0.111E+02   0.134E+02 -.953E+02 -.954E+01   0.103E+01 -.211E+01 -.141E+01
   0.239E+02 -.213E+02 0.482E+01   -.207E+02 0.210E+02 -.355E+01   -.279E+01 0.296E+00 -.111E+01
   0.253E+02 0.174E+02 0.411E+01   -.220E+02 -.173E+02 -.282E+01   -.284E+01 -.161E+00 -.112E+01
   -.109E+02 -.317E+02 -.110E+02   0.102E+02 0.303E+02 0.985E+01   0.682E+00 0.135E+01 0.113E+01
   -.108E+02 0.320E+02 -.112E+02   0.101E+02 -.306E+02 0.100E+02   0.682E+00 -.134E+01 0.113E+01
   -.136E+03 -.108E+02 -.492E+02   0.133E+03 0.108E+02 0.484E+02   0.278E+01 -.376E-01 0.730E+00
   0.713E+02 -.127E+03 0.967E+02   -.696E+02 0.124E+03 -.946E+02   -.155E+01 0.229E+01 -.187E+01
   0.667E+02 -.132E+03 -.497E+02   -.652E+02 0.130E+03 0.487E+02   -.135E+01 0.218E+01 0.875E+00
   0.703E+02 0.126E+03 0.961E+02   -.686E+02 -.124E+03 -.941E+02   -.156E+01 -.229E+01 -.187E+01
   -.134E+03 0.120E+02 -.501E+02   0.131E+03 -.121E+02 0.493E+02   0.279E+01 0.361E-01 0.727E+00
   0.653E+02 0.133E+03 -.492E+02   -.638E+02 -.131E+03 0.483E+02   -.136E+01 -.218E+01 0.875E+00
 -----------------------------------------------------------------------------------------------
   0.274E+01 -.131E+00 0.377E+01   -.426E-13 -.284E-13 -.142E-13   -.247E+01 0.148E+00 -.333E+01
 
 
 POSITION                                       TOTAL-FORCE (eV/Angst)
 -----------------------------------------------------------------------------------
      2.13385     -2.80652      0.74958        -0.002134     -0.003992      0.000291
      1.08288      2.80652      3.78735        -0.003506      0.000257     -0.000435
      5.39927     -0.98301      0.77716         0.022816      0.051438      0.000591
      4.35326      0.97432      3.81498         0.001852     -0.001287      0.001793
      1.02081     -0.97328      3.66185         0.000486      0.004420     -0.001070
      2.07178      0.97328      0.62409        -0.008040     -0.009618      0.000727
      2.15090      4.69667      3.05304         0.000160      0.001853     -0.002647
      1.11215     -0.89759      5.98620        -0.007637     -0.007994     -0.001441
      2.14287     -2.74882      3.03886        -0.002748      0.001821     -0.001561
      2.16313      0.89759      2.94844         0.000209      0.006099      0.000870
      1.09993     -4.69667      6.09081        -0.008123     -0.027116      0.009523
      1.09189      2.74882      6.07662         0.006664     -0.015882     -0.006642
 -----------------------------------------------------------------------------------
    total drift:                               -0.051060      0.012456     -0.052803


--------------------------------------------------------------------------------------------------------



  FREE ENERGIE OF THE ION-ELECTRON SYSTEM (eV)
  ---------------------------------------------------
  free  energy   TOTEN  =       -69.59547952 eV

  energy  without entropy=      -69.59605197  energy(sigma->0) =      -69.59567033
 


--------------------------------------------------------------------------------------------------------


    POTLOK:  cpu time    2.25: real time    2.25


--------------------------------------------------------------------------------------------------------


 writing wavefunctions
     LOOP+:  cpu time 5856.84: real time 5853.41
    4ORBIT:  cpu time    0.00: real time    0.00

 total amount of memory used by VASP on root node   155705. kBytes
========================================================================

   base      :      30000. kBytes
   nonl-proj :      74517. kBytes
   fftplans  :        702. kBytes
   grid      :       2400. kBytes
   one-center:        186. kBytes
   HF        :        194. kBytes
   nonlr-proj:       5130. kBytes
   wavefun   :      42576. kBytes
 
  
  
 General timing and accounting informations for this job:
 ========================================================
  
                  Total CPU time used (sec):     5897.279
                            User time (sec):     5892.491
                          System time (sec):        4.788
                         Elapsed time (sec):     5897.610
  
                   Maximum memory used (kb):      293912.
                   Average memory used (kb):           0.
  
                          Minor page faults:        77716
                          Major page faults:            1
                 Voluntary context switches:         8380
