<?xml version="1.0" encoding="ISO-8859-1"?>
<modeling>
 <generator>
  <i name="program" type="string">vasp </i>
  <i name="version" type="string">5.3.3  </i>
  <i name="subversion" type="string">18Dez12 (build Nov 13 2015 09:58:40) complex                          parallel </i>
  <i name="platform" type="string">LinuxIFC </i>
  <i name="date" type="string">2017 10 18 </i>
  <i name="time" type="string">13:04:00 </i>
 </generator>
 <incar>
  <i type="string" name="SYSTEM"> CGS</i>
  <i type="string" name="PREC">normal</i>
  <i type="string" name="ALGO"> D</i>
  <i type="logical" name="LDIAG"> T  </i>
  <i name="EDIFF">      0.00001000</i>
  <i name="ENCUT">    400.00000000</i>
  <i name="TIME">      0.40000000</i>
  <i type="int" name="ISMEAR">     1</i>
  <i name="SIGMA">      0.10000000</i>
  <i type="logical" name="LHFCALC"> T  </i>
  <i type="string" name="GGA"> PE</i>
  <i name="HFSCREEN">      0.20000000</i>
  <i name="AEXX">      0.25000000</i>
  <i type="string" name="PRECFOCK">fast</i>
 </incar>
 <kpoints>
  <generation param="Gamma">
   <v type="int" name="divisions">       4        4        5 </v>
   <v name="usershift">      0.00000000       0.00000000       0.00000000 </v>
   <v name="genvec1">      0.25000000       0.00000000       0.00000000 </v>
   <v name="genvec2">      0.00000000       0.25000000       0.00000000 </v>
   <v name="genvec3">      0.00000000       0.00000000       0.20000000 </v>
   <v name="shift">      0.00000000       0.00000000       0.00000000 </v>
  </generation>
  <varray name="kpointlist" >
   <v>       0.00000000       0.00000000       0.00000000 </v>
   <v>       0.25000000       0.00000000       0.00000000 </v>
   <v>       0.50000000       0.00000000       0.00000000 </v>
   <v>       0.00000000       0.25000000       0.00000000 </v>
   <v>       0.25000000       0.25000000       0.00000000 </v>
   <v>       0.50000000       0.25000000      -0.00000000 </v>
   <v>      -0.25000000       0.25000000       0.00000000 </v>
   <v>       0.00000000       0.50000000       0.00000000 </v>
   <v>       0.25000000       0.50000000      -0.00000000 </v>
   <v>       0.50000000       0.50000000       0.00000000 </v>
   <v>      -0.00000000      -0.00000000       0.20000000 </v>
   <v>       0.25000000       0.00000000       0.20000000 </v>
   <v>       0.50000000       0.00000000       0.20000000 </v>
   <v>      -0.25000000      -0.00000000       0.20000000 </v>
   <v>       0.00000000       0.25000000       0.20000000 </v>
   <v>       0.25000000       0.25000000       0.20000000 </v>
   <v>       0.50000000       0.25000000       0.20000000 </v>
   <v>      -0.25000000       0.25000000       0.20000000 </v>
   <v>       0.00000000       0.50000000       0.20000000 </v>
   <v>       0.25000000       0.50000000       0.20000000 </v>
   <v>       0.50000000       0.50000000       0.20000000 </v>
   <v>      -0.25000000       0.50000000       0.20000000 </v>
   <v>      -0.00000000      -0.25000000       0.20000000 </v>
   <v>       0.25000000      -0.25000000       0.20000000 </v>
   <v>       0.50000000      -0.25000000       0.20000000 </v>
   <v>      -0.25000000      -0.25000000       0.20000000 </v>
   <v>      -0.00000000      -0.00000000       0.40000000 </v>
   <v>       0.25000000       0.00000000       0.40000000 </v>
   <v>       0.50000000       0.00000000       0.40000000 </v>
   <v>      -0.25000000       0.00000000       0.40000000 </v>
   <v>       0.00000000       0.25000000       0.40000000 </v>
   <v>       0.25000000       0.25000000       0.40000000 </v>
   <v>       0.50000000       0.25000000       0.40000000 </v>
   <v>      -0.25000000       0.25000000       0.40000000 </v>
   <v>       0.00000000       0.50000000       0.40000000 </v>
   <v>       0.25000000       0.50000000       0.40000000 </v>
   <v>       0.50000000       0.50000000       0.40000000 </v>
   <v>      -0.25000000       0.50000000       0.40000000 </v>
   <v>       0.00000000      -0.25000000       0.40000000 </v>
   <v>       0.25000000      -0.25000000       0.40000000 </v>
   <v>       0.50000000      -0.25000000       0.40000000 </v>
   <v>      -0.25000000      -0.25000000       0.40000000 </v>
  </varray>
  <varray name="weights" >
   <v>       0.01250000 </v>
   <v>       0.02500000 </v>
   <v>       0.01250000 </v>
   <v>       0.02500000 </v>
   <v>       0.02500000 </v>
   <v>       0.02500000 </v>
   <v>       0.02500000 </v>
   <v>       0.01250000 </v>
   <v>       0.02500000 </v>
   <v>       0.01250000 </v>
   <v>       0.02500000 </v>
   <v>       0.02500000 </v>
   <v>       0.02500000 </v>
   <v>       0.02500000 </v>
   <v>       0.02500000 </v>
   <v>       0.02500000 </v>
   <v>       0.02500000 </v>
   <v>       0.02500000 </v>
   <v>       0.02500000 </v>
   <v>       0.02500000 </v>
   <v>       0.02500000 </v>
   <v>       0.02500000 </v>
   <v>       0.02500000 </v>
   <v>       0.02500000 </v>
   <v>       0.02500000 </v>
   <v>       0.02500000 </v>
   <v>       0.02500000 </v>
   <v>       0.02500000 </v>
   <v>       0.02500000 </v>
   <v>       0.02500000 </v>
   <v>       0.02500000 </v>
   <v>       0.02500000 </v>
   <v>       0.02500000 </v>
   <v>       0.02500000 </v>
   <v>       0.02500000 </v>
   <v>       0.02500000 </v>
   <v>       0.02500000 </v>
   <v>       0.02500000 </v>
   <v>       0.02500000 </v>
   <v>       0.02500000 </v>
   <v>       0.02500000 </v>
   <v>       0.02500000 </v>
  </varray>
 </kpoints>
 <parameters>
  <separator name="general" >
   <i type="string" name="SYSTEM">CGS</i>
   <i type="logical" name="LCOMPAT"> F  </i>
  </separator>
  <separator name="electronic" >
   <i type="string" name="PREC">normal</i>
   <i name="ENMAX">    400.00000000</i>
   <i name="ENAUG">    758.23300000</i>
   <i name="EDIFF">      0.00001000</i>
   <i type="int" name="IALGO">    53</i>
   <i type="int" name="IWAVPR">    10</i>
   <i type="int" name="NBANDS">    80</i>
   <i name="NELECT">    112.00000000</i>
   <i type="int" name="TURBO">     0</i>
   <i type="int" name="IRESTART">     0</i>
   <i type="int" name="NREBOOT">     0</i>
   <i type="int" name="NMIN">     0</i>
   <i name="EREF">      0.00000000</i>
   <separator name="electronic smearing" >
    <i type="int" name="ISMEAR">     1</i>
    <i name="SIGMA">      0.10000000</i>
    <i name="KSPACING">      0.50000000</i>
    <i type="logical" name="KGAMMA"> T  </i>
   </separator>
   <separator name="electronic projectors" >
    <i type="logical" name="LREAL"> F  </i>
    <v name="ROPT">      0.00000000      0.00000000      0.00000000</v>
    <i type="int" name="LMAXPAW">  -100</i>
    <i type="int" name="LMAXMIX">     2</i>
    <i type="logical" name="NLSPLINE"> F  </i>
   </separator>
   <separator name="electronic startup" >
    <i type="int" name="ISTART">     1</i>
    <i type="int" name="ICHARG">     0</i>
    <i type="int" name="INIWAV">     1</i>
   </separator>
   <separator name="electronic spin" >
    <i type="int" name="ISPIN">     1</i>
    <i type="logical" name="LNONCOLLINEAR"> F  </i>
    <v name="MAGMOM">      1.00000000      1.00000000      1.00000000      1.00000000      1.00000000      1.00000000      1.00000000      1.00000000      1.00000000      1.00000000      1.00000000      1.00000000</v>
    <i name="NUPDOWN">     -1.00000000</i>
    <i type="logical" name="LSORBIT"> F  </i>
    <v name="SAXIS">      0.00000000      0.00000000      1.00000000</v>
    <i type="logical" name="LSPIRAL"> F  </i>
    <v name="QSPIRAL">      0.00000000      0.00000000      0.00000000</v>
    <i type="logical" name="LZEROZ"> F  </i>
   </separator>
   <separator name="electronic exchange-correlation" >
    <i type="logical" name="LASPH"> F  </i>
    <i type="logical" name="LMETAGGA"> F  </i>
   </separator>
   <separator name="electronic convergence" >
    <i type="int" name="NELM">    60</i>
    <i type="int" name="NELMDL">     0</i>
    <i type="int" name="NELMIN">     2</i>
    <i name="ENINI">    400.00000000</i>
    <separator name="electronic convergence detail" >
     <i type="logical" name="LDIAG"> T  </i>
     <i type="logical" name="LSUBROT"> T  </i>
     <i name="WEIMIN">      0.00000000</i>
     <i name="EBREAK">      0.00000003</i>
     <i name="DEPER">      0.30000000</i>
     <i type="int" name="NRMM">     4</i>
     <i name="TIME">      0.40000000</i>
    </separator>
   </separator>
   <separator name="electronic mixer" >
    <i name="AMIX">      0.40000000</i>
    <i name="BMIX">      1.00000000</i>
    <i name="AMIN">      0.10000000</i>
    <i name="AMIX_MAG">      1.60000000</i>
    <i name="BMIX_MAG">      1.00000000</i>
    <separator name="electronic mixer details" >
     <i type="int" name="IMIX">     4</i>
     <i type="int" name="MAXMIX">   -45</i>
     <i name="WC">    100.00000000</i>
     <i type="int" name="INIMIX">     1</i>
     <i type="int" name="MIXPRE">     1</i>
     <i type="int" name="MREMOVE">     5</i>
    </separator>
   </separator>
   <separator name="electronic dipolcorrection" >
    <i type="logical" name="LDIPOL"> F  </i>
    <i type="logical" name="LMONO"> F  </i>
    <i type="int" name="IDIPOL">     0</i>
    <i name="EPSILON">      1.00000000</i>
    <v name="DIPOL">   -100.00000000   -100.00000000   -100.00000000</v>
    <i name="EFIELD">      0.00000000</i>
   </separator>
  </separator>
  <separator name="grids" >
   <i type="int" name="NGX">    32</i>
   <i type="int" name="NGY">    32</i>
   <i type="int" name="NGZ">    32</i>
   <i type="int" name="NGXF">    64</i>
   <i type="int" name="NGYF">    64</i>
   <i type="int" name="NGZF">    64</i>
   <i type="logical" name="ADDGRID"> F  </i>
  </separator>
  <separator name="ionic" >
   <i type="int" name="NSW">     0</i>
   <i type="int" name="IBRION">    -1</i>
   <i type="int" name="ISIF">     0</i>
   <i name="PSTRESS">      0.00000000</i>
   <i name="EDIFFG">      0.00010000</i>
   <i type="int" name="NFREE">     0</i>
   <i name="POTIM">      0.50000000</i>
   <i name="SMASS">     -3.00000000</i>
   <i name="SCALEE">      1.00000000</i>
  </separator>
  <separator name="ionic md" >
   <i name="TEBEG">      0.00010000</i>
   <i name="TEEND">      0.00010000</i>
   <i type="int" name="NBLOCK">     1</i>
   <i type="int" name="KBLOCK">     1</i>
   <i type="int" name="NPACO">   256</i>
   <i name="APACO">     16.00000000</i>
  </separator>
  <separator name="symmetry" >
   <i type="int" name="ISYM">     3</i>
   <i name="SYMPREC">      0.00001000</i>
  </separator>
  <separator name="dos" >
   <i type="logical" name="LORBIT"> F  </i>
   <v name="RWIGS">     -1.00000000     -1.00000000     -1.00000000</v>
   <i type="int" name="NEDOS">   301</i>
   <i name="EMIN">     10.00000000</i>
   <i name="EMAX">    -10.00000000</i>
   <i name="EFERMI">      0.00000000</i>
  </separator>
  <separator name="writing" >
   <i type="int" name="NWRITE">     2</i>
   <i type="logical" name="LWAVE"> T  </i>
   <i type="logical" name="LCHARG"> T  </i>
   <i type="logical" name="LPARD"> F  </i>
   <i type="logical" name="LVTOT"> F  </i>
   <i type="logical" name="LVHAR"> F  </i>
   <i type="logical" name="LELF"> F  </i>
   <i type="logical" name="LOPTICS"> F  </i>
   <v name="STM">      0.00000000      0.00000000      0.00000000      0.00000000      0.00000000      0.00000000      0.00000000</v>
  </separator>
  <separator name="performance" >
   <i type="int" name="NPAR">    16</i>
   <i type="int" name="NSIM">     4</i>
   <i type="int" name="NBLK">    -1</i>
   <i type="logical" name="LPLANE"> T  </i>
   <i type="logical" name="LSCALAPACK"> T  </i>
   <i type="logical" name="LSCAAWARE"> F  </i>
   <i type="logical" name="LSCALU"> F  </i>
   <i type="logical" name="LASYNC"> F  </i>
   <i type="logical" name="LORBITALREAL"> F  </i>
  </separator>
  <separator name="miscellaneous" >
   <i type="int" name="IDIOT">     3</i>
   <i type="logical" name="LMUSIC"> F  </i>
   <v name="POMASS">     63.54600000     72.61000000     32.06600000</v>
   <v name="DARWINR">      0.00000000      0.00000000      0.00000000</v>
   <v name="DARWINV">      1.00000000      1.00000000      1.00000000</v>
   <i type="logical" name="LCORR"> T  </i>
  </separator>
  <i type="logical" name="GGA_COMPAT"> T  </i>
  <i type="logical" name="LBERRY"> F  </i>
  <i type="int" name="ICORELEVEL">     0</i>
  <i type="logical" name="LDAU"> F  </i>
  <i type="int" name="I_CONSTRAINED_M">     0</i>
  <separator name="electronic exchange-correlation" >
   <i type="string" name="GGA">PE</i>
   <i type="int" name="VOSKOWN">     0</i>
   <i type="logical" name="LHFCALC"> T  </i>
   <i type="string" name="PRECFOCK">fast</i>
   <i type="logical" name="LSYMGRAD"> F  </i>
   <i type="logical" name="LHFONE"> F  </i>
   <i type="logical" name="LRHFCALC"> F  </i>
   <i type="logical" name="LTHOMAS"> F  </i>
   <i type="logical" name="LMODELHF"> F  </i>
   <i name="ENCUT4O">     -1.00000000</i>
   <i type="int" name="EXXOEP">     0</i>
   <i type="int" name="FOURORBIT">     0</i>
   <i name="AEXX">      0.25000000</i>
   <i name="HFALPHA">     -1.00000000</i>
   <i name="MCALPHA">      0.00000000</i>
   <i name="ALDAX">      0.75000000</i>
   <i name="AGGAX">      0.75000000</i>
   <i name="ALDAC">      1.00000000</i>
   <i name="AGGAC">      1.00000000</i>
   <i type="int" name="NKREDX">     1</i>
   <i type="int" name="NKREDY">     1</i>
   <i type="int" name="NKREDZ">     1</i>
   <i type="logical" name="SHIFTRED"> F  </i>
   <i type="logical" name="ODDONLY"> F  </i>
   <i type="logical" name="EVENONLY"> F  </i>
   <i type="int" name="LMAXFOCK">     4</i>
   <i type="int" name="NMAXFOCKAE">     1</i>
   <i type="logical" name="LFOCKAEDFT"> F  </i>
   <i name="HFSCREEN">      0.20000000</i>
   <i name="HFSCREENC">      0.20000000</i>
   <i type="int" name="NBANDSGWLOW">     1</i>
  </separator>
  <separator name="vdW DFT" >
   <i type="logical" name="LUSE_VDW"> F  </i>
   <i name="Zab_VDW">     -0.84910000</i>
   <i name="PARAM1">      0.12340000</i>
   <i name="PARAM2">      1.00000000</i>
   <i name="PARAM3">      0.00000000</i>
  </separator>
  <separator name="model GW" >
   <i type="int" name="MODEL_GW">     0</i>
   <i name="MODEL_EPS0">     11.09505304</i>
   <i name="MODEL_ALPHA">      1.00000000</i>
  </separator>
  <separator name="linear response parameters" >
   <i type="logical" name="LEPSILON"> F  </i>
   <i type="logical" name="LRPA"> F  </i>
   <i type="logical" name="LNABLA"> F  </i>
   <i type="logical" name="LVEL"> F  </i>
   <i type="int" name="KINTER">     0</i>
   <i name="CSHIFT">      0.10000000</i>
   <i name="OMEGAMAX">     -1.00000000</i>
   <i name="DEG_THRESHOLD">      0.00200000</i>
  </separator>
  <separator name="orbital magnetization" >
   <i type="logical" name="NUCIND"> F  </i>
   <v name="MAGPOS">      0.00000000      0.00000000      0.00000000</v>
   <i type="logical" name="LNICSALL"> T  </i>
   <i type="logical" name="ORBITALMAG"> F  </i>
   <i type="logical" name="LMAGBLOCH"> F  </i>
   <i type="logical" name="LCHIMAG"> F  </i>
   <i type="logical" name="LGAUGE"> T  </i>
   <i type="int" name="MAGATOM">     0</i>
   <v name="MAGDIPOL">      0.00000000      0.00000000      0.00000000</v>
   <v name="AVECCONST">      0.00000000      0.00000000      0.00000000</v>
  </separator>
  <separator name="response functions" >
   <i type="logical" name="LADDER"> F  </i>
   <i type="logical" name="LFXC"> F  </i>
   <i type="logical" name="LHARTREE"> T  </i>
   <i type="int" name="IBSE">     0</i>
   <i type="logical" name="LTCTE"> F  </i>
   <i type="logical" name="LTETE"> F  </i>
   <i type="logical" name="LTRIPLET"> F  </i>
   <i type="logical" name="LFXCEPS"> F  </i>
   <i type="logical" name="L2ORDER"> F  </i>
   <i type="logical" name="LUSEW"> F  </i>
   <i name="ENCUTGW">     -2.00000000</i>
   <i name="ENCUTGWSOFT">     -2.00000000</i>
   <i name="ENCUTLF">     -1.00000000</i>
   <i type="int" name="LMAXMP2">    -1</i>
   <i name="SCISSOR">      0.00000000</i>
   <i type="int" name="NOMEGA">     0</i>
   <i type="int" name="NOMEGAR">     0</i>
   <i type="int" name="NBANDSGW">    -1</i>
   <i type="int" name="NBANDSO">    -1</i>
   <i type="int" name="NBANDSV">    -1</i>
   <i type="int" name="NELM">     1</i>
   <i type="int" name="DIM">     3</i>
   <i type="int" name="ANTIRES">     0</i>
   <i name="OMEGAMAX">    -30.00000000</i>
   <i name="OMEGATL">   -200.00000000</i>
   <i type="int" name="OMEGAGRID">     0</i>
   <i name="CSHIFT">     -0.10000000</i>
   <i type="logical" name="SELFENERGY"> F  </i>
   <i type="logical" name="LSPECTRAL"> F  </i>
   <i type="logical" name="ODDONLYGW"> F  </i>
   <i type="logical" name="EVENONLYGW"> F  </i>
   <i type="int" name="NKREDLFX">     1</i>
   <i type="int" name="NKREDLFY">     1</i>
   <i type="int" name="NKREDLFZ">     1</i>
   <i type="int" name="MAXMEM">  1800</i>
   <i type="int" name="TELESCOPE">     0</i>
  </separator>
 </parameters>
 <atominfo>
  <atoms>      12 </atoms>
  <types>       3 </types>
  <array name="atoms" >
   <dimension dim="1">ion</dimension>
   <field type="string">element</field>
   <field type="int">atomtype</field>
   <set>
    <rc><c>Cu</c><c>   1</c></rc>
    <rc><c>Cu</c><c>   1</c></rc>
    <rc><c>Cu</c><c>   1</c></rc>
    <rc><c>Cu</c><c>   1</c></rc>
    <rc><c>Ge</c><c>   2</c></rc>
    <rc><c>Ge</c><c>   2</c></rc>
    <rc><c>S </c><c>   3</c></rc>
    <rc><c>S </c><c>   3</c></rc>
    <rc><c>S </c><c>   3</c></rc>
    <rc><c>S </c><c>   3</c></rc>
    <rc><c>S </c><c>   3</c></rc>
    <rc><c>S </c><c>   3</c></rc>
   </set>
  </array>
  <array name="atomtypes" >
   <dimension dim="1">type</dimension>
   <field type="int">atomspertype</field>
   <field type="string">element</field>
   <field>mass</field>
   <field>valence</field>
   <field type="string">pseudopotential</field>
   <set>
    <rc><c>   4</c><c>Cu</c><c>     63.54600000</c><c>     17.00000000</c><c>  PAW_PBE Cu_pv 06Sep2000               </c></rc>
    <rc><c>   2</c><c>Ge</c><c>     72.61000000</c><c>      4.00000000</c><c>  PAW_PBE Ge 05Jan2001                  </c></rc>
    <rc><c>   6</c><c>S </c><c>     32.06600000</c><c>      6.00000000</c><c>  PAW_PBE S 17Jan2003                   </c></rc>
   </set>
  </array>
 </atominfo>
 <structure name="initialpos" >
  <crystal>
   <varray name="basis" >
    <v>       3.22479600      -5.64383000       0.03157200 </v>
    <v>       3.22479600       5.64383000       0.03157200 </v>
    <v>      -2.10194600       0.00000000       6.07553700 </v>
   </varray>
   <i name="volume">    221.90106089 </i>
   <varray name="rec_basis" >
    <v>       0.15452516      -0.08859232       0.05346088 </v>
    <v>       0.15452516       0.08859232       0.05346088 </v>
    <v>      -0.00160600       0.00000000       0.16403888 </v>
   </varray>
  </crystal>
  <varray name="positions" >
   <v>       0.61844300       0.12117100       0.11953300 </v>
   <v>       0.12117100       0.61844300       0.61953300 </v>
   <v>       0.96295700       0.78878360       0.11881300 </v>
   <v>       0.79032200       0.96295700       0.61881300 </v>
   <v>       0.43973200       0.26728100       0.59904700 </v>
   <v>       0.26728100       0.43973200       0.09904700 </v>
   <v>       0.07949800       0.91167500       0.49736300 </v>
   <v>       0.57140300       0.41236400       0.98018400 </v>
   <v>       0.73711100       0.25006200       0.49504900 </v>
   <v>       0.41236400       0.57140300       0.48018400 </v>
   <v>       0.91167500       0.07949800       0.99736300 </v>
   <v>       0.25006200       0.73711100       0.99504900 </v>
  </varray>
 </structure>
 <calculation>
  <scstep>
   <time name="total">  249.73  249.53</time>
   <energy>
    <i name="alphaZ">    339.31929130 </i>
    <i name="ewald">  -9064.59068195 </i>
    <i name="hartreedc">  -8067.03119249 </i>
    <i name="XCdc">    369.89408635 </i>
    <i name="pawpsdc">  16959.94365961 </i>
    <i name="pawaedc"> -17452.67739146 </i>
    <i name="eentropy">     -0.00144015 </i>
    <i name="bandstr">  -1657.57554877 </i>
    <i name="atom">  18320.98302006 </i>
    <i name="e_fr_energy">     75.70670014 </i>
    <i name="e_wo_entrp">     75.70814030 </i>
    <i name="e_0_energy">     75.70718019 </i>
   </energy>
  </scstep>
  <scstep>
   <time name="total">  257.38  257.19</time>
   <energy>
    <i name="e_fr_energy">     -8.24303665 </i>
    <i name="e_wo_entrp">     -8.24177497 </i>
    <i name="e_0_energy">     -8.24261609 </i>
   </energy>
  </scstep>
  <scstep>
   <time name="total">  258.14  257.95</time>
   <energy>
    <i name="e_fr_energy">    -15.03664794 </i>
    <i name="e_wo_entrp">    -15.03684744 </i>
    <i name="e_0_energy">    -15.03671444 </i>
   </energy>
  </scstep>
  <scstep>
   <time name="total">  257.76  257.54</time>
   <energy>
    <i name="e_fr_energy">    -22.53660875 </i>
    <i name="e_wo_entrp">    -22.53697410 </i>
    <i name="e_0_energy">    -22.53673053 </i>
   </energy>
  </scstep>
  <scstep>
   <time name="total">  250.91  250.70</time>
   <energy>
    <i name="e_fr_energy">    -60.80881398 </i>
    <i name="e_wo_entrp">    -60.80942645 </i>
    <i name="e_0_energy">    -60.80901814 </i>
   </energy>
  </scstep>
  <scstep>
   <time name="total">  254.50  254.28</time>
   <energy>
    <i name="e_fr_energy">    -65.91338643 </i>
    <i name="e_wo_entrp">    -65.91405647 </i>
    <i name="e_0_energy">    -65.91360978 </i>
   </energy>
  </scstep>
  <scstep>
   <time name="total">  254.62  254.43</time>
   <energy>
    <i name="e_fr_energy">    -67.46300161 </i>
    <i name="e_wo_entrp">    -67.46344124 </i>
    <i name="e_0_energy">    -67.46314815 </i>
   </energy>
  </scstep>
  <scstep>
   <time name="total">  254.97  254.76</time>
   <energy>
    <i name="e_fr_energy">    -69.08367597 </i>
    <i name="e_wo_entrp">    -69.08439813 </i>
    <i name="e_0_energy">    -69.08391669 </i>
   </energy>
  </scstep>
  <scstep>
   <time name="total">  253.99  253.78</time>
   <energy>
    <i name="e_fr_energy">    -69.39403998 </i>
    <i name="e_wo_entrp">    -69.39489552 </i>
    <i name="e_0_energy">    -69.39432516 </i>
   </energy>
  </scstep>
  <scstep>
   <time name="total">  254.22  254.02</time>
   <energy>
    <i name="e_fr_energy">    -69.49862023 </i>
    <i name="e_wo_entrp">    -69.49935130 </i>
    <i name="e_0_energy">    -69.49886392 </i>
   </energy>
  </scstep>
  <scstep>
   <time name="total">  254.56  254.35</time>
   <energy>
    <i name="e_fr_energy">    -69.56849809 </i>
    <i name="e_wo_entrp">    -69.56910785 </i>
    <i name="e_0_energy">    -69.56870134 </i>
   </energy>
  </scstep>
  <scstep>
   <time name="total">  253.90  253.69</time>
   <energy>
    <i name="e_fr_energy">    -69.58086796 </i>
    <i name="e_wo_entrp">    -69.58142448 </i>
    <i name="e_0_energy">    -69.58105347 </i>
   </energy>
  </scstep>
  <scstep>
   <time name="total">  256.51  256.30</time>
   <energy>
    <i name="e_fr_energy">    -69.59058570 </i>
    <i name="e_wo_entrp">    -69.59113152 </i>
    <i name="e_0_energy">    -69.59076764 </i>
   </energy>
  </scstep>
  <scstep>
   <time name="total">  258.03  257.81</time>
   <energy>
    <i name="e_fr_energy">    -69.59304502 </i>
    <i name="e_wo_entrp">    -69.59361034 </i>
    <i name="e_0_energy">    -69.59323346 </i>
   </energy>
  </scstep>
  <scstep>
   <time name="total">  258.00  257.77</time>
   <energy>
    <i name="e_fr_energy">    -69.59455898 </i>
    <i name="e_wo_entrp">    -69.59513766 </i>
    <i name="e_0_energy">    -69.59475187 </i>
   </energy>
  </scstep>
  <scstep>
   <time name="total">  258.08  257.86</time>
   <energy>
    <i name="e_fr_energy">    -69.59513229 </i>
    <i name="e_wo_entrp">    -69.59571138 </i>
    <i name="e_0_energy">    -69.59532532 </i>
   </energy>
  </scstep>
  <scstep>
   <time name="total">  257.99  257.77</time>
   <energy>
    <i name="e_fr_energy">    -69.59530586 </i>
    <i name="e_wo_entrp">    -69.59588158 </i>
    <i name="e_0_energy">    -69.59549777 </i>
   </energy>
  </scstep>
  <scstep>
   <time name="total">  257.57  257.36</time>
   <energy>
    <i name="e_fr_energy">    -69.59542335 </i>
    <i name="e_wo_entrp">    -69.59599599 </i>
    <i name="e_0_energy">    -69.59561423 </i>
   </energy>
  </scstep>
  <scstep>
   <time name="total">  257.49  257.29</time>
   <energy>
    <i name="e_fr_energy">    -69.59545230 </i>
    <i name="e_wo_entrp">    -69.59602363 </i>
    <i name="e_0_energy">    -69.59564274 </i>
   </energy>
  </scstep>
  <scstep>
   <time name="total">  256.97  256.76</time>
   <energy>
    <i name="e_fr_energy">    -69.59547211 </i>
    <i name="e_wo_entrp">    -69.59604394 </i>
    <i name="e_0_energy">    -69.59566272 </i>
   </energy>
  </scstep>
  <scstep>
   <time name="total">  257.03  256.83</time>
   <energy>
    <i name="alphaZ">    339.31929130 </i>
    <i name="ewald">  -9064.59068195 </i>
    <i name="hartreedc">  -8149.51135646 </i>
    <i name="XCdc">    372.06736093 </i>
    <i name="pawpsdc">  15921.64581589 </i>
    <i name="pawaedc"> -16406.83562230 </i>
    <i name="eentropy">      0.00057245 </i>
    <i name="bandstr">  -1742.73862589 </i>
    <i name="atom">  18320.98302006 </i>
    <i name="e_fr_energy">    -69.59547952 </i>
    <i name="e_wo_entrp">    -69.59605197 </i>
    <i name="e_0_energy">    -69.59567033 </i>
   </energy>
  </scstep>
  <structure>
   <crystal>
    <varray name="basis" >
     <v>       3.22479600      -5.64383000       0.03157200 </v>
     <v>       3.22479600       5.64383000       0.03157200 </v>
     <v>      -2.10194600       0.00000000       6.07553700 </v>
    </varray>
    <i name="volume">    221.90106089 </i>
    <varray name="rec_basis" >
     <v>       0.15452516      -0.08859232       0.05346088 </v>
     <v>       0.15452516       0.08859232       0.05346088 </v>
     <v>      -0.00160600       0.00000000       0.16403888 </v>
    </varray>
   </crystal>
   <varray name="positions" >
    <v>       0.61844300       0.12117100       0.11953300 </v>
    <v>       0.12117100       0.61844300       0.61953300 </v>
    <v>       0.96295700       0.78878360       0.11881300 </v>
    <v>       0.79032200       0.96295700       0.61881300 </v>
    <v>       0.43973200       0.26728100       0.59904700 </v>
    <v>       0.26728100       0.43973200       0.09904700 </v>
    <v>       0.07949800       0.91167500       0.49736300 </v>
    <v>       0.57140300       0.41236400       0.98018400 </v>
    <v>       0.73711100       0.25006200       0.49504900 </v>
    <v>       0.41236400       0.57140300       0.48018400 </v>
    <v>       0.91167500       0.07949800       0.99736300 </v>
    <v>       0.25006200       0.73711100       0.99504900 </v>
   </varray>
  </structure>
  <varray name="forces" >
   <v>      -0.00213406      -0.00399197       0.00029105 </v>
   <v>      -0.00350553       0.00025689      -0.00043480 </v>
   <v>       0.02281590       0.05143812       0.00059053 </v>
   <v>       0.00185176      -0.00128662       0.00179322 </v>
   <v>       0.00048574       0.00442027      -0.00107030 </v>
   <v>      -0.00803953      -0.00961774       0.00072689 </v>
   <v>       0.00016004       0.00185294      -0.00264697 </v>
   <v>      -0.00763657      -0.00799396      -0.00144057 </v>
   <v>      -0.00274832       0.00182126      -0.00156059 </v>
   <v>       0.00020920       0.00609914       0.00087047 </v>
   <v>      -0.00812296      -0.02711621       0.00952303 </v>
   <v>       0.00666434      -0.01588213      -0.00664194 </v>
  </varray>
  <energy>
   <i name="e_fr_energy">    -69.59547952 </i>
   <i name="e_wo_entrp">    -69.59567033 </i>
   <i name="e_0_energy">      0.00057245 </i>
  </energy>
  <time name="totalsc"> 5856.84 5853.41</time>
  <eigenvalues>
   <array>
    <dimension dim="1">band</dimension>
    <dimension dim="2">kpoint</dimension>
    <dimension dim="3">spin</dimension>
    <field>eigene</field>
    <field>occ</field>
    <set>
     <set comment="spin 1">
      <set comment="kpoint 1">
       <r>  -68.6460    1.0000 </r>
       <r>  -68.6453    1.0000 </r>
       <r>  -68.6350    1.0000 </r>
       <r>  -68.6324    1.0000 </r>
       <r>  -68.6141    1.0000 </r>
       <r>  -68.6135    1.0000 </r>
       <r>  -68.5966    1.0000 </r>
       <r>  -68.5960    1.0000 </r>
       <r>  -68.5786    1.0000 </r>
       <r>  -68.5765    1.0000 </r>
       <r>  -68.5611    1.0000 </r>
       <r>  -68.5597    1.0000 </r>
       <r>  -12.7217    1.0000 </r>
       <r>  -11.1300    1.0000 </r>
       <r>  -10.9185    1.0000 </r>
       <r>  -10.6030    1.0000 </r>
       <r>  -10.2501    1.0000 </r>
       <r>  -10.2343    1.0000 </r>
       <r>   -5.9849    1.0000 </r>
       <r>   -4.9843    1.0000 </r>
       <r>   -2.7612    1.0000 </r>
       <r>   -2.2104    1.0000 </r>
       <r>   -2.0702    1.0000 </r>
       <r>   -1.9242    1.0000 </r>
       <r>   -1.5768    1.0000 </r>
       <r>   -0.9854    1.0000 </r>
       <r>   -0.9460    1.0000 </r>
       <r>   -0.6829    1.0000 </r>
       <r>   -0.4029    1.0000 </r>
       <r>   -0.2758    1.0000 </r>
       <r>   -0.2618    1.0000 </r>
       <r>   -0.2347    1.0000 </r>
       <r>   -0.1888    1.0000 </r>
       <r>   -0.1544    1.0000 </r>
       <r>   -0.0450    1.0000 </r>
       <r>    0.0349    1.0000 </r>
       <r>    1.3493    1.0000 </r>
       <r>    1.3631    1.0000 </r>
       <r>    1.4156    1.0000 </r>
       <r>    1.4579    1.0000 </r>
       <r>    1.4711    1.0000 </r>
       <r>    1.4734    1.0000 </r>
       <r>    1.5202    1.0000 </r>
       <r>    1.5316    1.0000 </r>
       <r>    1.5748    1.0000 </r>
       <r>    1.7113    1.0000 </r>
       <r>    1.8918    1.0000 </r>
       <r>    1.9287    1.0000 </r>
       <r>    2.0600    1.0000 </r>
       <r>    2.6526    1.0000 </r>
       <r>    2.7245    1.0000 </r>
       <r>    3.0925    1.0000 </r>
       <r>    3.2187    1.0000 </r>
       <r>    4.0057    1.0050 </r>
       <r>    4.0383    1.0139 </r>
       <r>    4.1715    0.8596 </r>
       <r>    5.5377   -0.0000 </r>
       <r>    6.3566   -0.0000 </r>
       <r>    7.6294    0.0000 </r>
       <r>    7.9861    0.0000 </r>
       <r>    8.6168    0.0000 </r>
       <r>    8.7915    0.0000 </r>
       <r>    9.5705    0.0000 </r>
       <r>    9.7390    0.0000 </r>
       <r>    9.8144    0.0000 </r>
       <r>   10.4199    0.0000 </r>
       <r>   10.5777    0.0000 </r>
       <r>   10.6960    0.0000 </r>
       <r>   10.7179    0.0000 </r>
       <r>   11.2849    0.0000 </r>
       <r>   11.7123    0.0000 </r>
       <r>   12.3918    0.0000 </r>
       <r>   12.4536    0.0000 </r>
       <r>   12.7272    0.0000 </r>
       <r>   13.3212    0.0000 </r>
       <r>   13.3821    0.0000 </r>
       <r>   13.8316    0.0000 </r>
       <r>   13.8863    0.0000 </r>
       <r>   14.1443    0.0000 </r>
       <r>   14.1800    0.0000 </r>
      </set>
      <set comment="kpoint 2">
       <r>  -68.6460    1.0000 </r>
       <r>  -68.6453    1.0000 </r>
       <r>  -68.6350    1.0000 </r>
       <r>  -68.6324    1.0000 </r>
       <r>  -68.6140    1.0000 </r>
       <r>  -68.6134    1.0000 </r>
       <r>  -68.5966    1.0000 </r>
       <r>  -68.5960    1.0000 </r>
       <r>  -68.5786    1.0000 </r>
       <r>  -68.5764    1.0000 </r>
       <r>  -68.5611    1.0000 </r>
       <r>  -68.5597    1.0000 </r>
       <r>  -12.5969    1.0000 </r>
       <r>  -11.1266    1.0000 </r>
       <r>  -10.9848    1.0000 </r>
       <r>  -10.6756    1.0000 </r>
       <r>  -10.3681    1.0000 </r>
       <r>  -10.2750    1.0000 </r>
       <r>   -5.9334    1.0000 </r>
       <r>   -4.7736    1.0000 </r>
       <r>   -2.6460    1.0000 </r>
       <r>   -2.2531    1.0000 </r>
       <r>   -2.0884    1.0000 </r>
       <r>   -1.6895    1.0000 </r>
       <r>   -1.3446    1.0000 </r>
       <r>   -0.9981    1.0000 </r>
       <r>   -0.7666    1.0000 </r>
       <r>   -0.6233    1.0000 </r>
       <r>   -0.5534    1.0000 </r>
       <r>   -0.4424    1.0000 </r>
       <r>   -0.3579    1.0000 </r>
       <r>   -0.2406    1.0000 </r>
       <r>   -0.1945    1.0000 </r>
       <r>   -0.1640    1.0000 </r>
       <r>   -0.0500    1.0000 </r>
       <r>    0.0413    1.0000 </r>
       <r>    1.2794    1.0000 </r>
       <r>    1.3360    1.0000 </r>
       <r>    1.3552    1.0000 </r>
       <r>    1.3923    1.0000 </r>
       <r>    1.4273    1.0000 </r>
       <r>    1.4715    1.0000 </r>
       <r>    1.4984    1.0000 </r>
       <r>    1.5296    1.0000 </r>
       <r>    1.7250    1.0000 </r>
       <r>    1.8579    1.0000 </r>
       <r>    2.0580    1.0000 </r>
       <r>    2.0940    1.0000 </r>
       <r>    2.2311    1.0000 </r>
       <r>    2.4123    1.0000 </r>
       <r>    2.5554    1.0000 </r>
       <r>    2.8262    1.0000 </r>
       <r>    2.9498    1.0000 </r>
       <r>    3.2427    1.0000 </r>
       <r>    3.6610    1.0000 </r>
       <r>    4.0385    1.0140 </r>
       <r>    6.1698   -0.0000 </r>
       <r>    6.9050   -0.0000 </r>
       <r>    8.1374    0.0000 </r>
       <r>    8.2678    0.0000 </r>
       <r>    8.5939    0.0000 </r>
       <r>    9.0139    0.0000 </r>
       <r>    9.2426    0.0000 </r>
       <r>    9.5322    0.0000 </r>
       <r>    9.8638    0.0000 </r>
       <r>   10.3766    0.0000 </r>
       <r>   10.6344    0.0000 </r>
       <r>   10.8138    0.0000 </r>
       <r>   10.9378    0.0000 </r>
       <r>   11.1911    0.0000 </r>
       <r>   11.6564    0.0000 </r>
       <r>   11.7690    0.0000 </r>
       <r>   12.1195    0.0000 </r>
       <r>   12.4405    0.0000 </r>
       <r>   12.6182    0.0000 </r>
       <r>   13.0098    0.0000 </r>
       <r>   13.5064    0.0000 </r>
       <r>   13.8762    0.0000 </r>
       <r>   14.2120    0.0000 </r>
       <r>   14.7102    0.0000 </r>
      </set>
      <set comment="kpoint 3">
       <r>  -68.6458    1.0000 </r>
       <r>  -68.6451    1.0000 </r>
       <r>  -68.6349    1.0000 </r>
       <r>  -68.6323    1.0000 </r>
       <r>  -68.6139    1.0000 </r>
       <r>  -68.6134    1.0000 </r>
       <r>  -68.5965    1.0000 </r>
       <r>  -68.5959    1.0000 </r>
       <r>  -68.5785    1.0000 </r>
       <r>  -68.5764    1.0000 </r>
       <r>  -68.5609    1.0000 </r>
       <r>  -68.5595    1.0000 </r>
       <r>  -12.4378    1.0000 </r>
       <r>  -11.2482    1.0000 </r>
       <r>  -10.9586    1.0000 </r>
       <r>  -10.7636    1.0000 </r>
       <r>  -10.4306    1.0000 </r>
       <r>  -10.3545    1.0000 </r>
       <r>   -5.8713    1.0000 </r>
       <r>   -4.5482    1.0000 </r>
       <r>   -2.4943    1.0000 </r>
       <r>   -2.2456    1.0000 </r>
       <r>   -1.9458    1.0000 </r>
       <r>   -1.4650    1.0000 </r>
       <r>   -1.2274    1.0000 </r>
       <r>   -1.1023    1.0000 </r>
       <r>   -0.9028    1.0000 </r>
       <r>   -0.8624    1.0000 </r>
       <r>   -0.6014    1.0000 </r>
       <r>   -0.5339    1.0000 </r>
       <r>   -0.2710    1.0000 </r>
       <r>   -0.2046    1.0000 </r>
       <r>   -0.1969    1.0000 </r>
       <r>   -0.1471    1.0000 </r>
       <r>   -0.0311    1.0000 </r>
       <r>    0.0813    1.0000 </r>
       <r>    1.2552    1.0000 </r>
       <r>    1.3283    1.0000 </r>
       <r>    1.3477    1.0000 </r>
       <r>    1.3963    1.0000 </r>
       <r>    1.4705    1.0000 </r>
       <r>    1.4789    1.0000 </r>
       <r>    1.4999    1.0000 </r>
       <r>    1.5515    1.0000 </r>
       <r>    1.7532    1.0000 </r>
       <r>    1.7898    1.0000 </r>
       <r>    1.9668    1.0000 </r>
       <r>    2.1461    1.0000 </r>
       <r>    2.3209    1.0000 </r>
       <r>    2.3634    1.0000 </r>
       <r>    2.5558    1.0000 </r>
       <r>    2.6675    1.0000 </r>
       <r>    2.9397    1.0000 </r>
       <r>    3.0803    1.0000 </r>
       <r>    3.2484    1.0000 </r>
       <r>    3.8600    1.0000 </r>
       <r>    6.3842   -0.0000 </r>
       <r>    7.0963    0.0000 </r>
       <r>    7.9803    0.0000 </r>
       <r>    8.2037    0.0000 </r>
       <r>    8.5185    0.0000 </r>
       <r>    8.8205    0.0000 </r>
       <r>    9.3297    0.0000 </r>
       <r>    9.8883    0.0000 </r>
       <r>   10.0116    0.0000 </r>
       <r>   10.5182    0.0000 </r>
       <r>   10.6928    0.0000 </r>
       <r>   10.7943    0.0000 </r>
       <r>   11.1425    0.0000 </r>
       <r>   11.4023    0.0000 </r>
       <r>   11.6114    0.0000 </r>
       <r>   11.7745    0.0000 </r>
       <r>   11.9449    0.0000 </r>
       <r>   12.5024    0.0000 </r>
       <r>   12.7811    0.0000 </r>
       <r>   12.9983    0.0000 </r>
       <r>   13.4013    0.0000 </r>
       <r>   13.5409    0.0000 </r>
       <r>   13.9390    0.0000 </r>
       <r>   14.2693    0.0000 </r>
      </set>
      <set comment="kpoint 4">
       <r>  -68.6460    1.0000 </r>
       <r>  -68.6453    1.0000 </r>
       <r>  -68.6350    1.0000 </r>
       <r>  -68.6324    1.0000 </r>
       <r>  -68.6140    1.0000 </r>
       <r>  -68.6134    1.0000 </r>
       <r>  -68.5966    1.0000 </r>
       <r>  -68.5960    1.0000 </r>
       <r>  -68.5786    1.0000 </r>
       <r>  -68.5764    1.0000 </r>
       <r>  -68.5611    1.0000 </r>
       <r>  -68.5597    1.0000 </r>
       <r>  -12.5969    1.0000 </r>
       <r>  -11.1285    1.0000 </r>
       <r>  -10.9841    1.0000 </r>
       <r>  -10.6732    1.0000 </r>
       <r>  -10.3666    1.0000 </r>
       <r>  -10.2777    1.0000 </r>
       <r>   -5.9333    1.0000 </r>
       <r>   -4.7740    1.0000 </r>
       <r>   -2.6471    1.0000 </r>
       <r>   -2.2536    1.0000 </r>
       <r>   -2.0859    1.0000 </r>
       <r>   -1.6896    1.0000 </r>
       <r>   -1.3450    1.0000 </r>
       <r>   -0.9991    1.0000 </r>
       <r>   -0.7659    1.0000 </r>
       <r>   -0.6211    1.0000 </r>
       <r>   -0.5551    1.0000 </r>
       <r>   -0.4395    1.0000 </r>
       <r>   -0.3581    1.0000 </r>
       <r>   -0.2414    1.0000 </r>
       <r>   -0.1936    1.0000 </r>
       <r>   -0.1677    1.0000 </r>
       <r>   -0.0502    1.0000 </r>
       <r>    0.0414    1.0000 </r>
       <r>    1.2787    1.0000 </r>
       <r>    1.3358    1.0000 </r>
       <r>    1.3552    1.0000 </r>
       <r>    1.3925    1.0000 </r>
       <r>    1.4273    1.0000 </r>
       <r>    1.4716    1.0000 </r>
       <r>    1.4978    1.0000 </r>
       <r>    1.5315    1.0000 </r>
       <r>    1.7254    1.0000 </r>
       <r>    1.8585    1.0000 </r>
       <r>    2.0575    1.0000 </r>
       <r>    2.0925    1.0000 </r>
       <r>    2.2318    1.0000 </r>
       <r>    2.4122    1.0000 </r>
       <r>    2.5569    1.0000 </r>
       <r>    2.8255    1.0000 </r>
       <r>    2.9483    1.0000 </r>
       <r>    3.2419    1.0000 </r>
       <r>    3.6630    1.0000 </r>
       <r>    4.0389    1.0141 </r>
       <r>    6.1697   -0.0000 </r>
       <r>    6.9057   -0.0000 </r>
       <r>    8.1376    0.0000 </r>
       <r>    8.2690    0.0000 </r>
       <r>    8.5941    0.0000 </r>
       <r>    9.0127    0.0000 </r>
       <r>    9.2430    0.0000 </r>
       <r>    9.5314    0.0000 </r>
       <r>    9.8639    0.0000 </r>
       <r>   10.3762    0.0000 </r>
       <r>   10.6327    0.0000 </r>
       <r>   10.8141    0.0000 </r>
       <r>   10.9379    0.0000 </r>
       <r>   11.1909    0.0000 </r>
       <r>   11.6532    0.0000 </r>
       <r>   11.7709    0.0000 </r>
       <r>   12.1172    0.0000 </r>
       <r>   12.4430    0.0000 </r>
       <r>   12.6189    0.0000 </r>
       <r>   13.0068    0.0000 </r>
       <r>   13.5200    0.0000 </r>
       <r>   13.9012    0.0000 </r>
       <r>   14.2721    0.0000 </r>
       <r>   14.8417    0.0000 </r>
      </set>
      <set comment="kpoint 5">
       <r>  -68.6460    1.0000 </r>
       <r>  -68.6453    1.0000 </r>
       <r>  -68.6349    1.0000 </r>
       <r>  -68.6323    1.0000 </r>
       <r>  -68.6141    1.0000 </r>
       <r>  -68.6135    1.0000 </r>
       <r>  -68.5965    1.0000 </r>
       <r>  -68.5959    1.0000 </r>
       <r>  -68.5787    1.0000 </r>
       <r>  -68.5765    1.0000 </r>
       <r>  -68.5611    1.0000 </r>
       <r>  -68.5597    1.0000 </r>
       <r>  -12.4416    1.0000 </r>
       <r>  -11.1919    1.0000 </r>
       <r>  -10.9448    1.0000 </r>
       <r>  -10.8746    1.0000 </r>
       <r>  -10.3887    1.0000 </r>
       <r>  -10.3525    1.0000 </r>
       <r>   -5.8762    1.0000 </r>
       <r>   -4.5221    1.0000 </r>
       <r>   -2.4187    1.0000 </r>
       <r>   -2.2471    1.0000 </r>
       <r>   -1.7923    1.0000 </r>
       <r>   -1.6823    1.0000 </r>
       <r>   -1.3562    1.0000 </r>
       <r>   -1.2975    1.0000 </r>
       <r>   -1.0792    1.0000 </r>
       <r>   -0.6818    1.0000 </r>
       <r>   -0.5276    1.0000 </r>
       <r>   -0.2960    1.0000 </r>
       <r>   -0.2813    1.0000 </r>
       <r>   -0.2242    1.0000 </r>
       <r>   -0.1835    1.0000 </r>
       <r>   -0.1301    1.0000 </r>
       <r>   -0.0920    1.0000 </r>
       <r>    0.0815    1.0000 </r>
       <r>    1.2938    1.0000 </r>
       <r>    1.3114    1.0000 </r>
       <r>    1.4145    1.0000 </r>
       <r>    1.4261    1.0000 </r>
       <r>    1.4637    1.0000 </r>
       <r>    1.4823    1.0000 </r>
       <r>    1.4967    1.0000 </r>
       <r>    1.5703    1.0000 </r>
       <r>    1.6713    1.0000 </r>
       <r>    1.8795    1.0000 </r>
       <r>    1.9403    1.0000 </r>
       <r>    2.1343    1.0000 </r>
       <r>    2.2786    1.0000 </r>
       <r>    2.3193    1.0000 </r>
       <r>    2.5594    1.0000 </r>
       <r>    2.6508    1.0000 </r>
       <r>    2.9044    1.0000 </r>
       <r>    2.9459    1.0000 </r>
       <r>    3.6968    1.0000 </r>
       <r>    3.8302    1.0000 </r>
       <r>    6.1711   -0.0000 </r>
       <r>    6.9903    0.0000 </r>
       <r>    8.0048    0.0000 </r>
       <r>    8.3278    0.0000 </r>
       <r>    8.4356    0.0000 </r>
       <r>    8.5716    0.0000 </r>
       <r>    9.1455    0.0000 </r>
       <r>    9.2482    0.0000 </r>
       <r>   10.3601    0.0000 </r>
       <r>   10.4948    0.0000 </r>
       <r>   10.9195    0.0000 </r>
       <r>   11.1851    0.0000 </r>
       <r>   11.3283    0.0000 </r>
       <r>   11.5583    0.0000 </r>
       <r>   11.8150    0.0000 </r>
       <r>   11.9624    0.0000 </r>
       <r>   12.3144    0.0000 </r>
       <r>   12.5030    0.0000 </r>
       <r>   12.7094    0.0000 </r>
       <r>   12.9162    0.0000 </r>
       <r>   13.3377    0.0000 </r>
       <r>   13.4483    0.0000 </r>
       <r>   14.2564    0.0000 </r>
       <r>   14.3651    0.0000 </r>
      </set>
      <set comment="kpoint 6">
       <r>  -68.6456    1.0000 </r>
       <r>  -68.6452    1.0000 </r>
       <r>  -68.6350    1.0000 </r>
       <r>  -68.6324    1.0000 </r>
       <r>  -68.6139    1.0000 </r>
       <r>  -68.6133    1.0000 </r>
       <r>  -68.5965    1.0000 </r>
       <r>  -68.5960    1.0000 </r>
       <r>  -68.5784    1.0000 </r>
       <r>  -68.5764    1.0000 </r>
       <r>  -68.5609    1.0000 </r>
       <r>  -68.5596    1.0000 </r>
       <r>  -12.4417    1.0000 </r>
       <r>  -11.3549    1.0000 </r>
       <r>  -10.9393    1.0000 </r>
       <r>  -10.7352    1.0000 </r>
       <r>  -10.3922    1.0000 </r>
       <r>  -10.2686    1.0000 </r>
       <r>   -5.9481    1.0000 </r>
       <r>   -4.6426    1.0000 </r>
       <r>   -2.3918    1.0000 </r>
       <r>   -2.2276    1.0000 </r>
       <r>   -2.0578    1.0000 </r>
       <r>   -1.6419    1.0000 </r>
       <r>   -1.3617    1.0000 </r>
       <r>   -1.2828    1.0000 </r>
       <r>   -1.0225    1.0000 </r>
       <r>   -0.5096    1.0000 </r>
       <r>   -0.4838    1.0000 </r>
       <r>   -0.3279    1.0000 </r>
       <r>   -0.2828    1.0000 </r>
       <r>   -0.2125    1.0000 </r>
       <r>   -0.1485    1.0000 </r>
       <r>   -0.1379    1.0000 </r>
       <r>   -0.0100    1.0000 </r>
       <r>    0.1111    1.0000 </r>
       <r>    1.2471    1.0000 </r>
       <r>    1.3156    1.0000 </r>
       <r>    1.3822    1.0000 </r>
       <r>    1.4370    1.0000 </r>
       <r>    1.4619    1.0000 </r>
       <r>    1.4927    1.0000 </r>
       <r>    1.4969    1.0000 </r>
       <r>    1.5490    1.0000 </r>
       <r>    1.7484    1.0000 </r>
       <r>    1.8277    1.0000 </r>
       <r>    1.9221    1.0000 </r>
       <r>    2.1327    1.0000 </r>
       <r>    2.2200    1.0000 </r>
       <r>    2.3869    1.0000 </r>
       <r>    2.5601    1.0000 </r>
       <r>    2.7908    1.0000 </r>
       <r>    2.9797    1.0000 </r>
       <r>    3.3111    1.0000 </r>
       <r>    3.6037    1.0000 </r>
       <r>    3.7472    1.0000 </r>
       <r>    6.0867   -0.0000 </r>
       <r>    6.9397   -0.0000 </r>
       <r>    7.6111    0.0000 </r>
       <r>    8.0682    0.0000 </r>
       <r>    8.4106    0.0000 </r>
       <r>    8.6162    0.0000 </r>
       <r>    8.9839    0.0000 </r>
       <r>    9.1526    0.0000 </r>
       <r>   10.0864    0.0000 </r>
       <r>   10.3359    0.0000 </r>
       <r>   10.7326    0.0000 </r>
       <r>   11.1078    0.0000 </r>
       <r>   11.4587    0.0000 </r>
       <r>   11.5933    0.0000 </r>
       <r>   11.7978    0.0000 </r>
       <r>   12.0866    0.0000 </r>
       <r>   12.4777    0.0000 </r>
       <r>   12.9201    0.0000 </r>
       <r>   13.0354    0.0000 </r>
       <r>   13.8284    0.0000 </r>
       <r>   14.1949    0.0000 </r>
       <r>   14.6534    0.0000 </r>
       <r>   15.4325    0.0000 </r>
       <r>   15.6445    0.0000 </r>
      </set>
      <set comment="kpoint 7">
       <r>  -68.6460    1.0000 </r>
       <r>  -68.6453    1.0000 </r>
       <r>  -68.6350    1.0000 </r>
       <r>  -68.6324    1.0000 </r>
       <r>  -68.6139    1.0000 </r>
       <r>  -68.6133    1.0000 </r>
       <r>  -68.5966    1.0000 </r>
       <r>  -68.5960    1.0000 </r>
       <r>  -68.5785    1.0000 </r>
       <r>  -68.5764    1.0000 </r>
       <r>  -68.5611    1.0000 </r>
       <r>  -68.5597    1.0000 </r>
       <r>  -12.5996    1.0000 </r>
       <r>  -11.2522    1.0000 </r>
       <r>  -10.9931    1.0000 </r>
       <r>  -10.5669    1.0000 </r>
       <r>  -10.3693    1.0000 </r>
       <r>  -10.1780    1.0000 </r>
       <r>   -6.0103    1.0000 </r>
       <r>   -4.8952    1.0000 </r>
       <r>   -2.6473    1.0000 </r>
       <r>   -2.3148    1.0000 </r>
       <r>   -1.9744    1.0000 </r>
       <r>   -1.6467    1.0000 </r>
       <r>   -1.4947    1.0000 </r>
       <r>   -1.1842    1.0000 </r>
       <r>   -0.7901    1.0000 </r>
       <r>   -0.5790    1.0000 </r>
       <r>   -0.4442    1.0000 </r>
       <r>   -0.3348    1.0000 </r>
       <r>   -0.2925    1.0000 </r>
       <r>   -0.2344    1.0000 </r>
       <r>   -0.1750    1.0000 </r>
       <r>   -0.1327    1.0000 </r>
       <r>   -0.0072    1.0000 </r>
       <r>    0.0680    1.0000 </r>
       <r>    1.2594    1.0000 </r>
       <r>    1.3205    1.0000 </r>
       <r>    1.3645    1.0000 </r>
       <r>    1.4231    1.0000 </r>
       <r>    1.4315    1.0000 </r>
       <r>    1.4761    1.0000 </r>
       <r>    1.5039    1.0000 </r>
       <r>    1.5432    1.0000 </r>
       <r>    1.7241    1.0000 </r>
       <r>    1.8129    1.0000 </r>
       <r>    1.9957    1.0000 </r>
       <r>    2.0720    1.0000 </r>
       <r>    2.4164    1.0000 </r>
       <r>    2.4632    1.0000 </r>
       <r>    2.5287    1.0000 </r>
       <r>    2.8715    1.0000 </r>
       <r>    3.1427    1.0000 </r>
       <r>    3.2291    1.0000 </r>
       <r>    3.7840    1.0000 </r>
       <r>    4.0697    1.0276 </r>
       <r>    5.9786   -0.0000 </r>
       <r>    6.6882   -0.0000 </r>
       <r>    7.5339    0.0000 </r>
       <r>    8.2228    0.0000 </r>
       <r>    8.6163    0.0000 </r>
       <r>    8.9143    0.0000 </r>
       <r>    9.3051    0.0000 </r>
       <r>    9.4321    0.0000 </r>
       <r>    9.8035    0.0000 </r>
       <r>   10.2714    0.0000 </r>
       <r>   10.5437    0.0000 </r>
       <r>   10.8310    0.0000 </r>
       <r>   10.9721    0.0000 </r>
       <r>   11.3795    0.0000 </r>
       <r>   11.4717    0.0000 </r>
       <r>   11.7341    0.0000 </r>
       <r>   12.0998    0.0000 </r>
       <r>   12.6625    0.0000 </r>
       <r>   12.9452    0.0000 </r>
       <r>   13.1038    0.0000 </r>
       <r>   13.3507    0.0000 </r>
       <r>   13.5197    0.0000 </r>
       <r>   14.4762    0.0000 </r>
       <r>   14.7552    0.0000 </r>
      </set>
      <set comment="kpoint 8">
       <r>  -68.6458    1.0000 </r>
       <r>  -68.6452    1.0000 </r>
       <r>  -68.6349    1.0000 </r>
       <r>  -68.6323    1.0000 </r>
       <r>  -68.6140    1.0000 </r>
       <r>  -68.6133    1.0000 </r>
       <r>  -68.5965    1.0000 </r>
       <r>  -68.5960    1.0000 </r>
       <r>  -68.5786    1.0000 </r>
       <r>  -68.5764    1.0000 </r>
       <r>  -68.5609    1.0000 </r>
       <r>  -68.5596    1.0000 </r>
       <r>  -12.4378    1.0000 </r>
       <r>  -11.2513    1.0000 </r>
       <r>  -10.9583    1.0000 </r>
       <r>  -10.7578    1.0000 </r>
       <r>  -10.4286    1.0000 </r>
       <r>  -10.3592    1.0000 </r>
       <r>   -5.8711    1.0000 </r>
       <r>   -4.5492    1.0000 </r>
       <r>   -2.4960    1.0000 </r>
       <r>   -2.2452    1.0000 </r>
       <r>   -1.9451    1.0000 </r>
       <r>   -1.4636    1.0000 </r>
       <r>   -1.2278    1.0000 </r>
       <r>   -1.0995    1.0000 </r>
       <r>   -0.9032    1.0000 </r>
       <r>   -0.8614    1.0000 </r>
       <r>   -0.5999    1.0000 </r>
       <r>   -0.5353    1.0000 </r>
       <r>   -0.2738    1.0000 </r>
       <r>   -0.2077    1.0000 </r>
       <r>   -0.1968    1.0000 </r>
       <r>   -0.1446    1.0000 </r>
       <r>   -0.0328    1.0000 </r>
       <r>    0.0815    1.0000 </r>
       <r>    1.2534    1.0000 </r>
       <r>    1.3284    1.0000 </r>
       <r>    1.3476    1.0000 </r>
       <r>    1.3969    1.0000 </r>
       <r>    1.4709    1.0000 </r>
       <r>    1.4790    1.0000 </r>
       <r>    1.5001    1.0000 </r>
       <r>    1.5537    1.0000 </r>
       <r>    1.7523    1.0000 </r>
       <r>    1.7922    1.0000 </r>
       <r>    1.9668    1.0000 </r>
       <r>    2.1472    1.0000 </r>
       <r>    2.3204    1.0000 </r>
       <r>    2.3605    1.0000 </r>
       <r>    2.5548    1.0000 </r>
       <r>    2.6689    1.0000 </r>
       <r>    2.9377    1.0000 </r>
       <r>    3.0805    1.0000 </r>
       <r>    3.2507    1.0000 </r>
       <r>    3.8596    1.0000 </r>
       <r>    6.3845   -0.0000 </r>
       <r>    7.0984    0.0000 </r>
       <r>    7.9837    0.0000 </r>
       <r>    8.2037    0.0000 </r>
       <r>    8.5181    0.0000 </r>
       <r>    8.8215    0.0000 </r>
       <r>    9.3271    0.0000 </r>
       <r>    9.8869    0.0000 </r>
       <r>   10.0099    0.0000 </r>
       <r>   10.5160    0.0000 </r>
       <r>   10.6910    0.0000 </r>
       <r>   10.7927    0.0000 </r>
       <r>   11.1421    0.0000 </r>
       <r>   11.4078    0.0000 </r>
       <r>   11.6106    0.0000 </r>
       <r>   11.7742    0.0000 </r>
       <r>   11.9422    0.0000 </r>
       <r>   12.5037    0.0000 </r>
       <r>   12.8256    0.0000 </r>
       <r>   13.0314    0.0000 </r>
       <r>   13.5533    0.0000 </r>
       <r>   13.6831    0.0000 </r>
       <r>   14.5523    0.0000 </r>
       <r>   15.2515    0.0000 </r>
      </set>
      <set comment="kpoint 9">
       <r>  -68.6456    1.0000 </r>
       <r>  -68.6452    1.0000 </r>
       <r>  -68.6349    1.0000 </r>
       <r>  -68.6324    1.0000 </r>
       <r>  -68.6139    1.0000 </r>
       <r>  -68.6133    1.0000 </r>
       <r>  -68.5965    1.0000 </r>
       <r>  -68.5960    1.0000 </r>
       <r>  -68.5784    1.0000 </r>
       <r>  -68.5764    1.0000 </r>
       <r>  -68.5609    1.0000 </r>
       <r>  -68.5596    1.0000 </r>
       <r>  -12.4417    1.0000 </r>
       <r>  -11.3558    1.0000 </r>
       <r>  -10.9396    1.0000 </r>
       <r>  -10.7332    1.0000 </r>
       <r>  -10.3915    1.0000 </r>
       <r>  -10.2703    1.0000 </r>
       <r>   -5.9480    1.0000 </r>
       <r>   -4.6430    1.0000 </r>
       <r>   -2.3930    1.0000 </r>
       <r>   -2.2270    1.0000 </r>
       <r>   -2.0588    1.0000 </r>
       <r>   -1.6385    1.0000 </r>
       <r>   -1.3634    1.0000 </r>
       <r>   -1.2819    1.0000 </r>
       <r>   -1.0229    1.0000 </r>
       <r>   -0.5125    1.0000 </r>
       <r>   -0.4787    1.0000 </r>
       <r>   -0.3298    1.0000 </r>
       <r>   -0.2800    1.0000 </r>
       <r>   -0.2141    1.0000 </r>
       <r>   -0.1523    1.0000 </r>
       <r>   -0.1348    1.0000 </r>
       <r>   -0.0113    1.0000 </r>
       <r>    0.1104    1.0000 </r>
       <r>    1.2461    1.0000 </r>
       <r>    1.3157    1.0000 </r>
       <r>    1.3830    1.0000 </r>
       <r>    1.4369    1.0000 </r>
       <r>    1.4615    1.0000 </r>
       <r>    1.4924    1.0000 </r>
       <r>    1.4971    1.0000 </r>
       <r>    1.5499    1.0000 </r>
       <r>    1.7489    1.0000 </r>
       <r>    1.8287    1.0000 </r>
       <r>    1.9203    1.0000 </r>
       <r>    2.1343    1.0000 </r>
       <r>    2.2215    1.0000 </r>
       <r>    2.3836    1.0000 </r>
       <r>    2.5602    1.0000 </r>
       <r>    2.7899    1.0000 </r>
       <r>    2.9809    1.0000 </r>
       <r>    3.3116    1.0000 </r>
       <r>    3.6047    1.0000 </r>
       <r>    3.7468    1.0000 </r>
       <r>    6.0868   -0.0000 </r>
       <r>    6.9400   -0.0000 </r>
       <r>    7.6118    0.0000 </r>
       <r>    8.0682    0.0000 </r>
       <r>    8.4109    0.0000 </r>
       <r>    8.6165    0.0000 </r>
       <r>    8.9827    0.0000 </r>
       <r>    9.1526    0.0000 </r>
       <r>   10.0864    0.0000 </r>
       <r>   10.3354    0.0000 </r>
       <r>   10.7319    0.0000 </r>
       <r>   11.1072    0.0000 </r>
       <r>   11.4564    0.0000 </r>
       <r>   11.5763    0.0000 </r>
       <r>   11.7850    0.0000 </r>
       <r>   12.0325    0.0000 </r>
       <r>   12.5109    0.0000 </r>
       <r>   12.6813    0.0000 </r>
       <r>   12.9164    0.0000 </r>
       <r>   13.2099    0.0000 </r>
       <r>   14.2297    0.0000 </r>
       <r>   14.7720    0.0000 </r>
       <r>   15.2523    0.0000 </r>
       <r>   15.9027    0.0000 </r>
      </set>
      <set comment="kpoint 10">
       <r>  -68.6456    1.0000 </r>
       <r>  -68.6449    1.0000 </r>
       <r>  -68.6348    1.0000 </r>
       <r>  -68.6322    1.0000 </r>
       <r>  -68.6137    1.0000 </r>
       <r>  -68.6133    1.0000 </r>
       <r>  -68.5963    1.0000 </r>
       <r>  -68.5958    1.0000 </r>
       <r>  -68.5784    1.0000 </r>
       <r>  -68.5762    1.0000 </r>
       <r>  -68.5607    1.0000 </r>
       <r>  -68.5594    1.0000 </r>
       <r>  -12.4333    1.0000 </r>
       <r>  -11.5029    1.0000 </r>
       <r>  -10.9146    1.0000 </r>
       <r>  -10.6135    1.0000 </r>
       <r>  -10.4014    1.0000 </r>
       <r>  -10.1969    1.0000 </r>
       <r>   -6.0266    1.0000 </r>
       <r>   -4.8109    1.0000 </r>
       <r>   -2.3113    1.0000 </r>
       <r>   -2.2662    1.0000 </r>
       <r>   -2.0950    1.0000 </r>
       <r>   -1.7031    1.0000 </r>
       <r>   -1.2498    1.0000 </r>
       <r>   -1.1104    1.0000 </r>
       <r>   -0.8392    1.0000 </r>
       <r>   -0.7813    1.0000 </r>
       <r>   -0.7232    1.0000 </r>
       <r>   -0.2398    1.0000 </r>
       <r>   -0.2007    1.0000 </r>
       <r>   -0.1825    1.0000 </r>
       <r>   -0.1520    1.0000 </r>
       <r>   -0.0399    1.0000 </r>
       <r>   -0.0014    1.0000 </r>
       <r>    0.1814    1.0000 </r>
       <r>    1.2668    1.0000 </r>
       <r>    1.3178    1.0000 </r>
       <r>    1.3754    1.0000 </r>
       <r>    1.4137    1.0000 </r>
       <r>    1.4324    1.0000 </r>
       <r>    1.4921    1.0000 </r>
       <r>    1.5089    1.0000 </r>
       <r>    1.5497    1.0000 </r>
       <r>    1.7888    1.0000 </r>
       <r>    1.8472    1.0000 </r>
       <r>    1.9962    1.0000 </r>
       <r>    2.1513    1.0000 </r>
       <r>    2.2508    1.0000 </r>
       <r>    2.3362    1.0000 </r>
       <r>    2.5607    1.0000 </r>
       <r>    2.7617    1.0000 </r>
       <r>    2.7753    1.0000 </r>
       <r>    3.3686    1.0000 </r>
       <r>    3.7621    1.0000 </r>
       <r>    4.0082    1.0055 </r>
       <r>    5.8535   -0.0000 </r>
       <r>    6.7651   -0.0000 </r>
       <r>    7.0846    0.0000 </r>
       <r>    8.4125    0.0000 </r>
       <r>    8.5608    0.0000 </r>
       <r>    8.7696    0.0000 </r>
       <r>    9.1414    0.0000 </r>
       <r>    9.2419    0.0000 </r>
       <r>    9.9580    0.0000 </r>
       <r>   10.2848    0.0000 </r>
       <r>   10.7267    0.0000 </r>
       <r>   10.8258    0.0000 </r>
       <r>   10.8755    0.0000 </r>
       <r>   11.2743    0.0000 </r>
       <r>   11.7549    0.0000 </r>
       <r>   11.9138    0.0000 </r>
       <r>   11.9730    0.0000 </r>
       <r>   12.3666    0.0000 </r>
       <r>   12.5396    0.0000 </r>
       <r>   13.4581    0.0000 </r>
       <r>   14.2837    0.0000 </r>
       <r>   14.6748    0.0000 </r>
       <r>   16.7481    0.0000 </r>
       <r>   16.7497    0.0000 </r>
      </set>
      <set comment="kpoint 11">
       <r>  -68.6460    1.0000 </r>
       <r>  -68.6453    1.0000 </r>
       <r>  -68.6350    1.0000 </r>
       <r>  -68.6324    1.0000 </r>
       <r>  -68.6140    1.0000 </r>
       <r>  -68.6134    1.0000 </r>
       <r>  -68.5966    1.0000 </r>
       <r>  -68.5960    1.0000 </r>
       <r>  -68.5786    1.0000 </r>
       <r>  -68.5765    1.0000 </r>
       <r>  -68.5611    1.0000 </r>
       <r>  -68.5597    1.0000 </r>
       <r>  -12.6185    1.0000 </r>
       <r>  -11.4260    1.0000 </r>
       <r>  -10.7794    1.0000 </r>
       <r>  -10.6082    1.0000 </r>
       <r>  -10.2489    1.0000 </r>
       <r>  -10.2362    1.0000 </r>
       <r>   -5.8313    1.0000 </r>
       <r>   -5.0477    1.0000 </r>
       <r>   -2.6011    1.0000 </r>
       <r>   -2.3721    1.0000 </r>
       <r>   -1.9626    1.0000 </r>
       <r>   -1.7758    1.0000 </r>
       <r>   -1.4455    1.0000 </r>
       <r>   -1.1223    1.0000 </r>
       <r>   -1.0648    1.0000 </r>
       <r>   -0.7732    1.0000 </r>
       <r>   -0.4701    1.0000 </r>
       <r>   -0.2927    1.0000 </r>
       <r>   -0.2385    1.0000 </r>
       <r>   -0.2322    1.0000 </r>
       <r>   -0.1924    1.0000 </r>
       <r>   -0.1470    1.0000 </r>
       <r>   -0.0216    1.0000 </r>
       <r>    0.0283    1.0000 </r>
       <r>    1.3326    1.0000 </r>
       <r>    1.3818    1.0000 </r>
       <r>    1.4166    1.0000 </r>
       <r>    1.4396    1.0000 </r>
       <r>    1.4646    1.0000 </r>
       <r>    1.4671    1.0000 </r>
       <r>    1.5146    1.0000 </r>
       <r>    1.5453    1.0000 </r>
       <r>    1.6326    1.0000 </r>
       <r>    1.7581    1.0000 </r>
       <r>    1.7869    1.0000 </r>
       <r>    1.9507    1.0000 </r>
       <r>    2.0891    1.0000 </r>
       <r>    2.6567    1.0000 </r>
       <r>    2.7206    1.0000 </r>
       <r>    3.1964    1.0000 </r>
       <r>    3.2534    1.0000 </r>
       <r>    3.5194    1.0000 </r>
       <r>    3.8943    1.0000 </r>
       <r>    3.9766    1.0016 </r>
       <r>    6.0460   -0.0000 </r>
       <r>    6.4154   -0.0000 </r>
       <r>    7.8243    0.0000 </r>
       <r>    7.9073    0.0000 </r>
       <r>    8.3655    0.0000 </r>
       <r>    8.8183    0.0000 </r>
       <r>    9.7765    0.0000 </r>
       <r>    9.7940    0.0000 </r>
       <r>   10.0613    0.0000 </r>
       <r>   10.5851    0.0000 </r>
       <r>   10.6452    0.0000 </r>
       <r>   10.8160    0.0000 </r>
       <r>   10.8554    0.0000 </r>
       <r>   11.4947    0.0000 </r>
       <r>   11.5567    0.0000 </r>
       <r>   12.0260    0.0000 </r>
       <r>   12.5804    0.0000 </r>
       <r>   12.7746    0.0000 </r>
       <r>   12.9130    0.0000 </r>
       <r>   13.2049    0.0000 </r>
       <r>   13.5349    0.0000 </r>
       <r>   13.8222    0.0000 </r>
       <r>   14.1982    0.0000 </r>
       <r>   14.7045    0.0000 </r>
      </set>
      <set comment="kpoint 12">
       <r>  -68.6459    1.0000 </r>
       <r>  -68.6453    1.0000 </r>
       <r>  -68.6350    1.0000 </r>
       <r>  -68.6324    1.0000 </r>
       <r>  -68.6141    1.0000 </r>
       <r>  -68.6134    1.0000 </r>
       <r>  -68.5966    1.0000 </r>
       <r>  -68.5960    1.0000 </r>
       <r>  -68.5786    1.0000 </r>
       <r>  -68.5765    1.0000 </r>
       <r>  -68.5610    1.0000 </r>
       <r>  -68.5597    1.0000 </r>
       <r>  -12.4596    1.0000 </r>
       <r>  -11.4672    1.0000 </r>
       <r>  -10.8651    1.0000 </r>
       <r>  -10.6885    1.0000 </r>
       <r>  -10.3734    1.0000 </r>
       <r>  -10.2445    1.0000 </r>
       <r>   -5.7671    1.0000 </r>
       <r>   -4.8045    1.0000 </r>
       <r>   -2.4455    1.0000 </r>
       <r>   -2.2336    1.0000 </r>
       <r>   -1.8507    1.0000 </r>
       <r>   -1.7142    1.0000 </r>
       <r>   -1.4340    1.0000 </r>
       <r>   -1.1853    1.0000 </r>
       <r>   -0.8902    1.0000 </r>
       <r>   -0.7485    1.0000 </r>
       <r>   -0.6054    1.0000 </r>
       <r>   -0.5222    1.0000 </r>
       <r>   -0.3107    1.0000 </r>
       <r>   -0.2454    1.0000 </r>
       <r>   -0.1746    1.0000 </r>
       <r>   -0.1193    1.0000 </r>
       <r>   -0.0549    1.0000 </r>
       <r>    0.0646    1.0000 </r>
       <r>    1.3024    1.0000 </r>
       <r>    1.3360    1.0000 </r>
       <r>    1.3691    1.0000 </r>
       <r>    1.4322    1.0000 </r>
       <r>    1.4466    1.0000 </r>
       <r>    1.4794    1.0000 </r>
       <r>    1.5209    1.0000 </r>
       <r>    1.5471    1.0000 </r>
       <r>    1.6432    1.0000 </r>
       <r>    1.8689    1.0000 </r>
       <r>    1.9789    1.0000 </r>
       <r>    2.0481    1.0000 </r>
       <r>    2.1941    1.0000 </r>
       <r>    2.4752    1.0000 </r>
       <r>    2.5945    1.0000 </r>
       <r>    2.8392    1.0000 </r>
       <r>    2.9647    1.0000 </r>
       <r>    3.1341    1.0000 </r>
       <r>    3.5658    1.0000 </r>
       <r>    3.7234    1.0000 </r>
       <r>    6.4410   -0.0000 </r>
       <r>    6.9565    0.0000 </r>
       <r>    8.1713    0.0000 </r>
       <r>    8.2459    0.0000 </r>
       <r>    8.8337    0.0000 </r>
       <r>    9.1284    0.0000 </r>
       <r>    9.4655    0.0000 </r>
       <r>    9.7975    0.0000 </r>
       <r>   10.0843    0.0000 </r>
       <r>   10.2998    0.0000 </r>
       <r>   10.7388    0.0000 </r>
       <r>   11.0779    0.0000 </r>
       <r>   11.2917    0.0000 </r>
       <r>   11.4259    0.0000 </r>
       <r>   11.6345    0.0000 </r>
       <r>   11.7249    0.0000 </r>
       <r>   12.0836    0.0000 </r>
       <r>   12.2646    0.0000 </r>
       <r>   12.5411    0.0000 </r>
       <r>   12.6576    0.0000 </r>
       <r>   12.9560    0.0000 </r>
       <r>   13.0596    0.0000 </r>
       <r>   13.6395    0.0000 </r>
       <r>   14.6919    0.0000 </r>
      </set>
      <set comment="kpoint 13">
       <r>  -68.6457    1.0000 </r>
       <r>  -68.6452    1.0000 </r>
       <r>  -68.6349    1.0000 </r>
       <r>  -68.6323    1.0000 </r>
       <r>  -68.6139    1.0000 </r>
       <r>  -68.6133    1.0000 </r>
       <r>  -68.5964    1.0000 </r>
       <r>  -68.5959    1.0000 </r>
       <r>  -68.5785    1.0000 </r>
       <r>  -68.5764    1.0000 </r>
       <r>  -68.5610    1.0000 </r>
       <r>  -68.5596    1.0000 </r>
       <r>  -12.3575    1.0000 </r>
       <r>  -11.4139    1.0000 </r>
       <r>  -10.9527    1.0000 </r>
       <r>  -10.6845    1.0000 </r>
       <r>  -10.4790    1.0000 </r>
       <r>  -10.3330    1.0000 </r>
       <r>   -5.7524    1.0000 </r>
       <r>   -4.7222    1.0000 </r>
       <r>   -2.5222    1.0000 </r>
       <r>   -2.1853    1.0000 </r>
       <r>   -1.9545    1.0000 </r>
       <r>   -1.5356    1.0000 </r>
       <r>   -1.3011    1.0000 </r>
       <r>   -1.0989    1.0000 </r>
       <r>   -0.8703    1.0000 </r>
       <r>   -0.7542    1.0000 </r>
       <r>   -0.5504    1.0000 </r>
       <r>   -0.4456    1.0000 </r>
       <r>   -0.2866    1.0000 </r>
       <r>   -0.1793    1.0000 </r>
       <r>   -0.1466    1.0000 </r>
       <r>   -0.1060    1.0000 </r>
       <r>   -0.0449    1.0000 </r>
       <r>    0.0244    1.0000 </r>
       <r>    1.2720    1.0000 </r>
       <r>    1.2988    1.0000 </r>
       <r>    1.3517    1.0000 </r>
       <r>    1.4295    1.0000 </r>
       <r>    1.4526    1.0000 </r>
       <r>    1.4798    1.0000 </r>
       <r>    1.5011    1.0000 </r>
       <r>    1.5871    1.0000 </r>
       <r>    1.7198    1.0000 </r>
       <r>    1.9295    1.0000 </r>
       <r>    2.0757    1.0000 </r>
       <r>    2.1453    1.0000 </r>
       <r>    2.2680    1.0000 </r>
       <r>    2.4039    1.0000 </r>
       <r>    2.5686    1.0000 </r>
       <r>    2.5982    1.0000 </r>
       <r>    2.8980    1.0000 </r>
       <r>    3.0097    1.0000 </r>
       <r>    3.3598    1.0000 </r>
       <r>    3.8978    1.0000 </r>
       <r>    6.3647   -0.0000 </r>
       <r>    6.8962   -0.0000 </r>
       <r>    7.5734    0.0000 </r>
       <r>    8.0847    0.0000 </r>
       <r>    8.5467    0.0000 </r>
       <r>    8.7974    0.0000 </r>
       <r>    9.2810    0.0000 </r>
       <r>    9.6286    0.0000 </r>
       <r>    9.9306    0.0000 </r>
       <r>   10.2767    0.0000 </r>
       <r>   10.6575    0.0000 </r>
       <r>   10.9300    0.0000 </r>
       <r>   10.9726    0.0000 </r>
       <r>   11.2813    0.0000 </r>
       <r>   11.5196    0.0000 </r>
       <r>   11.7850    0.0000 </r>
       <r>   12.2481    0.0000 </r>
       <r>   12.5439    0.0000 </r>
       <r>   13.0981    0.0000 </r>
       <r>   13.5179    0.0000 </r>
       <r>   14.2974    0.0000 </r>
       <r>   14.5658    0.0000 </r>
       <r>   15.1283    0.0000 </r>
       <r>   16.2713    0.0000 </r>
      </set>
      <set comment="kpoint 14">
       <r>  -68.6460    1.0000 </r>
       <r>  -68.6453    1.0000 </r>
       <r>  -68.6350    1.0000 </r>
       <r>  -68.6324    1.0000 </r>
       <r>  -68.6140    1.0000 </r>
       <r>  -68.6134    1.0000 </r>
       <r>  -68.5966    1.0000 </r>
       <r>  -68.5960    1.0000 </r>
       <r>  -68.5786    1.0000 </r>
       <r>  -68.5765    1.0000 </r>
       <r>  -68.5611    1.0000 </r>
       <r>  -68.5597    1.0000 </r>
       <r>  -12.5422    1.0000 </r>
       <r>  -11.3382    1.0000 </r>
       <r>  -10.8735    1.0000 </r>
       <r>  -10.6064    1.0000 </r>
       <r>  -10.3989    1.0000 </r>
       <r>  -10.2810    1.0000 </r>
       <r>   -5.8250    1.0000 </r>
       <r>   -4.9753    1.0000 </r>
       <r>   -2.6647    1.0000 </r>
       <r>   -2.4547    1.0000 </r>
       <r>   -2.0399    1.0000 </r>
       <r>   -1.5769    1.0000 </r>
       <r>   -1.1706    1.0000 </r>
       <r>   -0.9835    1.0000 </r>
       <r>   -0.7909    1.0000 </r>
       <r>   -0.6597    1.0000 </r>
       <r>   -0.5164    1.0000 </r>
       <r>   -0.3887    1.0000 </r>
       <r>   -0.2692    1.0000 </r>
       <r>   -0.2522    1.0000 </r>
       <r>   -0.1895    1.0000 </r>
       <r>   -0.1442    1.0000 </r>
       <r>   -0.0487    1.0000 </r>
       <r>    0.0152    1.0000 </r>
       <r>    1.2895    1.0000 </r>
       <r>    1.3110    1.0000 </r>
       <r>    1.3891    1.0000 </r>
       <r>    1.4085    1.0000 </r>
       <r>    1.4337    1.0000 </r>
       <r>    1.4556    1.0000 </r>
       <r>    1.4921    1.0000 </r>
       <r>    1.5645    1.0000 </r>
       <r>    1.6881    1.0000 </r>
       <r>    1.9157    1.0000 </r>
       <r>    1.9869    1.0000 </r>
       <r>    2.1467    1.0000 </r>
       <r>    2.3336    1.0000 </r>
       <r>    2.5638    1.0000 </r>
       <r>    2.6155    1.0000 </r>
       <r>    2.8315    1.0000 </r>
       <r>    2.9740    1.0000 </r>
       <r>    3.2483    1.0000 </r>
       <r>    3.6827    1.0000 </r>
       <r>    3.9426    1.0003 </r>
       <r>    6.1788   -0.0000 </r>
       <r>    6.6367   -0.0000 </r>
       <r>    7.7665    0.0000 </r>
       <r>    7.9725    0.0000 </r>
       <r>    8.2150    0.0000 </r>
       <r>    8.5630    0.0000 </r>
       <r>    9.3791    0.0000 </r>
       <r>    9.5763    0.0000 </r>
       <r>    9.9077    0.0000 </r>
       <r>   10.2514    0.0000 </r>
       <r>   10.5438    0.0000 </r>
       <r>   10.7864    0.0000 </r>
       <r>   10.8427    0.0000 </r>
       <r>   11.0678    0.0000 </r>
       <r>   11.5667    0.0000 </r>
       <r>   12.0233    0.0000 </r>
       <r>   12.5290    0.0000 </r>
       <r>   12.7530    0.0000 </r>
       <r>   12.9522    0.0000 </r>
       <r>   13.3082    0.0000 </r>
       <r>   13.4121    0.0000 </r>
       <r>   13.7399    0.0000 </r>
       <r>   13.8468    0.0000 </r>
       <r>   14.7270    0.0000 </r>
      </set>
      <set comment="kpoint 15">
       <r>  -68.6459    1.0000 </r>
       <r>  -68.6453    1.0000 </r>
       <r>  -68.6350    1.0000 </r>
       <r>  -68.6324    1.0000 </r>
       <r>  -68.6141    1.0000 </r>
       <r>  -68.6134    1.0000 </r>
       <r>  -68.5966    1.0000 </r>
       <r>  -68.5960    1.0000 </r>
       <r>  -68.5786    1.0000 </r>
       <r>  -68.5765    1.0000 </r>
       <r>  -68.5611    1.0000 </r>
       <r>  -68.5596    1.0000 </r>
       <r>  -12.4596    1.0000 </r>
       <r>  -11.4677    1.0000 </r>
       <r>  -10.8643    1.0000 </r>
       <r>  -10.6884    1.0000 </r>
       <r>  -10.3724    1.0000 </r>
       <r>  -10.2456    1.0000 </r>
       <r>   -5.7669    1.0000 </r>
       <r>   -4.8050    1.0000 </r>
       <r>   -2.4459    1.0000 </r>
       <r>   -2.2326    1.0000 </r>
       <r>   -1.8511    1.0000 </r>
       <r>   -1.7151    1.0000 </r>
       <r>   -1.4323    1.0000 </r>
       <r>   -1.1878    1.0000 </r>
       <r>   -0.8875    1.0000 </r>
       <r>   -0.7473    1.0000 </r>
       <r>   -0.6048    1.0000 </r>
       <r>   -0.5241    1.0000 </r>
       <r>   -0.3101    1.0000 </r>
       <r>   -0.2447    1.0000 </r>
       <r>   -0.1752    1.0000 </r>
       <r>   -0.1208    1.0000 </r>
       <r>   -0.0557    1.0000 </r>
       <r>    0.0647    1.0000 </r>
       <r>    1.3014    1.0000 </r>
       <r>    1.3364    1.0000 </r>
       <r>    1.3696    1.0000 </r>
       <r>    1.4318    1.0000 </r>
       <r>    1.4462    1.0000 </r>
       <r>    1.4787    1.0000 </r>
       <r>    1.5214    1.0000 </r>
       <r>    1.5464    1.0000 </r>
       <r>    1.6438    1.0000 </r>
       <r>    1.8716    1.0000 </r>
       <r>    1.9761    1.0000 </r>
       <r>    2.0487    1.0000 </r>
       <r>    2.1952    1.0000 </r>
       <r>    2.4748    1.0000 </r>
       <r>    2.5967    1.0000 </r>
       <r>    2.8392    1.0000 </r>
       <r>    2.9642    1.0000 </r>
       <r>    3.1324    1.0000 </r>
       <r>    3.5658    1.0000 </r>
       <r>    3.7241    1.0000 </r>
       <r>    6.4412   -0.0000 </r>
       <r>    6.9572    0.0000 </r>
       <r>    8.1708    0.0000 </r>
       <r>    8.2458    0.0000 </r>
       <r>    8.8342    0.0000 </r>
       <r>    9.1291    0.0000 </r>
       <r>    9.4667    0.0000 </r>
       <r>    9.7960    0.0000 </r>
       <r>   10.0849    0.0000 </r>
       <r>   10.2980    0.0000 </r>
       <r>   10.7400    0.0000 </r>
       <r>   11.0772    0.0000 </r>
       <r>   11.2908    0.0000 </r>
       <r>   11.4246    0.0000 </r>
       <r>   11.6287    0.0000 </r>
       <r>   11.7216    0.0000 </r>
       <r>   12.0844    0.0000 </r>
       <r>   12.2681    0.0000 </r>
       <r>   12.5420    0.0000 </r>
       <r>   12.6607    0.0000 </r>
       <r>   12.9546    0.0000 </r>
       <r>   13.0596    0.0000 </r>
       <r>   13.6568    0.0000 </r>
       <r>   14.6979    0.0000 </r>
      </set>
      <set comment="kpoint 16">
       <r>  -68.6459    1.0000 </r>
       <r>  -68.6452    1.0000 </r>
       <r>  -68.6348    1.0000 </r>
       <r>  -68.6322    1.0000 </r>
       <r>  -68.6139    1.0000 </r>
       <r>  -68.6133    1.0000 </r>
       <r>  -68.5964    1.0000 </r>
       <r>  -68.5959    1.0000 </r>
       <r>  -68.5785    1.0000 </r>
       <r>  -68.5763    1.0000 </r>
       <r>  -68.5610    1.0000 </r>
       <r>  -68.5596    1.0000 </r>
       <r>  -12.3280    1.0000 </r>
       <r>  -11.4762    1.0000 </r>
       <r>  -10.8605    1.0000 </r>
       <r>  -10.8591    1.0000 </r>
       <r>  -10.4040    1.0000 </r>
       <r>  -10.2888    1.0000 </r>
       <r>   -5.7485    1.0000 </r>
       <r>   -4.6921    1.0000 </r>
       <r>   -2.2421    1.0000 </r>
       <r>   -2.1396    1.0000 </r>
       <r>   -1.9288    1.0000 </r>
       <r>   -1.8510    1.0000 </r>
       <r>   -1.4536    1.0000 </r>
       <r>   -1.3938    1.0000 </r>
       <r>   -1.0394    1.0000 </r>
       <r>   -0.5200    1.0000 </r>
       <r>   -0.4616    1.0000 </r>
       <r>   -0.3483    1.0000 </r>
       <r>   -0.2499    1.0000 </r>
       <r>   -0.2178    1.0000 </r>
       <r>   -0.1605    1.0000 </r>
       <r>   -0.1134    1.0000 </r>
       <r>   -0.0896    1.0000 </r>
       <r>    0.0817    1.0000 </r>
       <r>    1.2621    1.0000 </r>
       <r>    1.3475    1.0000 </r>
       <r>    1.3976    1.0000 </r>
       <r>    1.4358    1.0000 </r>
       <r>    1.4530    1.0000 </r>
       <r>    1.5104    1.0000 </r>
       <r>    1.5354    1.0000 </r>
       <r>    1.5438    1.0000 </r>
       <r>    1.7540    1.0000 </r>
       <r>    1.8181    1.0000 </r>
       <r>    2.0394    1.0000 </r>
       <r>    2.1337    1.0000 </r>
       <r>    2.2853    1.0000 </r>
       <r>    2.3097    1.0000 </r>
       <r>    2.5217    1.0000 </r>
       <r>    2.7697    1.0000 </r>
       <r>    2.8990    1.0000 </r>
       <r>    3.2627    1.0000 </r>
       <r>    3.4941    1.0000 </r>
       <r>    3.8001    1.0000 </r>
       <r>    6.1823   -0.0000 </r>
       <r>    6.8417   -0.0000 </r>
       <r>    7.8276    0.0000 </r>
       <r>    8.0441    0.0000 </r>
       <r>    8.1882    0.0000 </r>
       <r>    8.7276    0.0000 </r>
       <r>    9.1542    0.0000 </r>
       <r>    9.3065    0.0000 </r>
       <r>   10.2194    0.0000 </r>
       <r>   10.4428    0.0000 </r>
       <r>   10.5912    0.0000 </r>
       <r>   11.0048    0.0000 </r>
       <r>   11.2400    0.0000 </r>
       <r>   11.4886    0.0000 </r>
       <r>   11.8112    0.0000 </r>
       <r>   12.1729    0.0000 </r>
       <r>   12.2051    0.0000 </r>
       <r>   12.5745    0.0000 </r>
       <r>   12.6919    0.0000 </r>
       <r>   13.1127    0.0000 </r>
       <r>   13.4174    0.0000 </r>
       <r>   13.8814    0.0000 </r>
       <r>   14.0074    0.0000 </r>
       <r>   14.5245    0.0000 </r>
      </set>
      <set comment="kpoint 17">
       <r>  -68.6456    1.0000 </r>
       <r>  -68.6452    1.0000 </r>
       <r>  -68.6349    1.0000 </r>
       <r>  -68.6324    1.0000 </r>
       <r>  -68.6138    1.0000 </r>
       <r>  -68.6134    1.0000 </r>
       <r>  -68.5965    1.0000 </r>
       <r>  -68.5959    1.0000 </r>
       <r>  -68.5784    1.0000 </r>
       <r>  -68.5765    1.0000 </r>
       <r>  -68.5608    1.0000 </r>
       <r>  -68.5596    1.0000 </r>
       <r>  -12.3743    1.0000 </r>
       <r>  -11.4748    1.0000 </r>
       <r>  -10.9382    1.0000 </r>
       <r>  -10.6508    1.0000 </r>
       <r>  -10.4209    1.0000 </r>
       <r>  -10.3028    1.0000 </r>
       <r>   -5.8012    1.0000 </r>
       <r>   -4.8367    1.0000 </r>
       <r>   -2.5270    1.0000 </r>
       <r>   -2.2444    1.0000 </r>
       <r>   -1.8741    1.0000 </r>
       <r>   -1.6446    1.0000 </r>
       <r>   -1.5048    1.0000 </r>
       <r>   -1.3063    1.0000 </r>
       <r>   -0.9020    1.0000 </r>
       <r>   -0.5321    1.0000 </r>
       <r>   -0.3753    1.0000 </r>
       <r>   -0.3484    1.0000 </r>
       <r>   -0.2230    1.0000 </r>
       <r>   -0.1809    1.0000 </r>
       <r>   -0.1608    1.0000 </r>
       <r>   -0.0771    1.0000 </r>
       <r>   -0.0243    1.0000 </r>
       <r>    0.0785    1.0000 </r>
       <r>    1.1901    1.0000 </r>
       <r>    1.3646    1.0000 </r>
       <r>    1.3972    1.0000 </r>
       <r>    1.4417    1.0000 </r>
       <r>    1.4633    1.0000 </r>
       <r>    1.5061    1.0000 </r>
       <r>    1.5192    1.0000 </r>
       <r>    1.5852    1.0000 </r>
       <r>    1.7397    1.0000 </r>
       <r>    1.8191    1.0000 </r>
       <r>    2.0350    1.0000 </r>
       <r>    2.2365    1.0000 </r>
       <r>    2.2690    1.0000 </r>
       <r>    2.3629    1.0000 </r>
       <r>    2.4868    1.0000 </r>
       <r>    2.6713    1.0000 </r>
       <r>    3.0533    1.0000 </r>
       <r>    3.4113    1.0000 </r>
       <r>    3.7280    1.0000 </r>
       <r>    3.8638    1.0000 </r>
       <r>    5.9308   -0.0000 </r>
       <r>    6.6131   -0.0000 </r>
       <r>    7.3530    0.0000 </r>
       <r>    7.9424    0.0000 </r>
       <r>    8.0648    0.0000 </r>
       <r>    8.7245    0.0000 </r>
       <r>    8.9075    0.0000 </r>
       <r>    9.1388    0.0000 </r>
       <r>    9.8445    0.0000 </r>
       <r>   10.3256    0.0000 </r>
       <r>   10.5556    0.0000 </r>
       <r>   10.9273    0.0000 </r>
       <r>   11.2219    0.0000 </r>
       <r>   11.4162    0.0000 </r>
       <r>   11.7510    0.0000 </r>
       <r>   12.0035    0.0000 </r>
       <r>   12.4980    0.0000 </r>
       <r>   12.8329    0.0000 </r>
       <r>   13.2063    0.0000 </r>
       <r>   14.1820    0.0000 </r>
       <r>   14.7131    0.0000 </r>
       <r>   15.1612    0.0000 </r>
       <r>   15.9199    0.0000 </r>
       <r>   16.5669    0.0000 </r>
      </set>
      <set comment="kpoint 18">
       <r>  -68.6459    1.0000 </r>
       <r>  -68.6453    1.0000 </r>
       <r>  -68.6350    1.0000 </r>
       <r>  -68.6324    1.0000 </r>
       <r>  -68.6140    1.0000 </r>
       <r>  -68.6134    1.0000 </r>
       <r>  -68.5966    1.0000 </r>
       <r>  -68.5960    1.0000 </r>
       <r>  -68.5786    1.0000 </r>
       <r>  -68.5764    1.0000 </r>
       <r>  -68.5610    1.0000 </r>
       <r>  -68.5597    1.0000 </r>
       <r>  -12.5006    1.0000 </r>
       <r>  -11.4263    1.0000 </r>
       <r>  -10.9493    1.0000 </r>
       <r>  -10.5797    1.0000 </r>
       <r>  -10.3764    1.0000 </r>
       <r>  -10.2055    1.0000 </r>
       <r>   -5.8289    1.0000 </r>
       <r>   -4.9410    1.0000 </r>
       <r>   -2.5729    1.0000 </r>
       <r>   -2.3654    1.0000 </r>
       <r>   -1.9197    1.0000 </r>
       <r>   -1.5967    1.0000 </r>
       <r>   -1.4168    1.0000 </r>
       <r>   -1.1210    1.0000 </r>
       <r>   -0.8135    1.0000 </r>
       <r>   -0.6746    1.0000 </r>
       <r>   -0.5314    1.0000 </r>
       <r>   -0.4686    1.0000 </r>
       <r>   -0.2547    1.0000 </r>
       <r>   -0.1954    1.0000 </r>
       <r>   -0.1673    1.0000 </r>
       <r>   -0.1187    1.0000 </r>
       <r>   -0.0357    1.0000 </r>
       <r>    0.0584    1.0000 </r>
       <r>    1.2803    1.0000 </r>
       <r>    1.3231    1.0000 </r>
       <r>    1.3446    1.0000 </r>
       <r>    1.4343    1.0000 </r>
       <r>    1.4517    1.0000 </r>
       <r>    1.4681    1.0000 </r>
       <r>    1.4940    1.0000 </r>
       <r>    1.5575    1.0000 </r>
       <r>    1.7268    1.0000 </r>
       <r>    1.8420    1.0000 </r>
       <r>    1.9703    1.0000 </r>
       <r>    2.0990    1.0000 </r>
       <r>    2.3357    1.0000 </r>
       <r>    2.4488    1.0000 </r>
       <r>    2.5415    1.0000 </r>
       <r>    2.8508    1.0000 </r>
       <r>    3.0526    1.0000 </r>
       <r>    3.2647    1.0000 </r>
       <r>    3.6728    1.0000 </r>
       <r>    3.7810    1.0000 </r>
       <r>    6.2613   -0.0000 </r>
       <r>    6.7991   -0.0000 </r>
       <r>    7.8136    0.0000 </r>
       <r>    8.1364    0.0000 </r>
       <r>    8.3363    0.0000 </r>
       <r>    8.9311    0.0000 </r>
       <r>    9.3384    0.0000 </r>
[...]
       <r>   11.7070    0.0000 </r>
       <r>   11.8944    0.0000 </r>
       <r>   12.3007    0.0000 </r>
       <r>   12.6577    0.0000 </r>
       <r>   13.0117    0.0000 </r>
       <r>   13.2307    0.0000 </r>
       <r>   13.6660    0.0000 </r>
       <r>   14.0684    0.0000 </r>
       <r>   14.3911    0.0000 </r>
       <r>   16.5104    0.0000 </r>
      </set>
      <set comment="kpoint 42">
       <r>  -68.6459    1.0000 </r>
       <r>  -68.6452    1.0000 </r>
       <r>  -68.6347    1.0000 </r>
       <r>  -68.6322    1.0000 </r>
       <r>  -68.6137    1.0000 </r>
       <r>  -68.6136    1.0000 </r>
       <r>  -68.5963    1.0000 </r>
       <r>  -68.5959    1.0000 </r>
       <r>  -68.5785    1.0000 </r>
       <r>  -68.5764    1.0000 </r>
       <r>  -68.5610    1.0000 </r>
       <r>  -68.5597    1.0000 </r>
       <r>  -12.1799    1.0000 </r>
       <r>  -11.7069    1.0000 </r>
       <r>  -10.7168    1.0000 </r>
       <r>  -10.6948    1.0000 </r>
       <r>  -10.5837    1.0000 </r>
       <r>  -10.3916    1.0000 </r>
       <r>   -5.4460    1.0000 </r>
       <r>   -5.0728    1.0000 </r>
       <r>   -2.5087    1.0000 </r>
       <r>   -2.3817    1.0000 </r>
       <r>   -1.9628    1.0000 </r>
       <r>   -1.3670    1.0000 </r>
       <r>   -1.3308    1.0000 </r>
       <r>   -1.0527    1.0000 </r>
       <r>   -0.8333    1.0000 </r>
       <r>   -0.7678    1.0000 </r>
       <r>   -0.4234    1.0000 </r>
       <r>   -0.3402    1.0000 </r>
       <r>   -0.2726    1.0000 </r>
       <r>   -0.2078    1.0000 </r>
       <r>   -0.1405    1.0000 </r>
       <r>   -0.1378    1.0000 </r>
       <r>   -0.0133    1.0000 </r>
       <r>    0.0281    1.0000 </r>
       <r>    1.1729    1.0000 </r>
       <r>    1.3712    1.0000 </r>
       <r>    1.3975    1.0000 </r>
       <r>    1.4528    1.0000 </r>
       <r>    1.4541    1.0000 </r>
       <r>    1.4984    1.0000 </r>
       <r>    1.5172    1.0000 </r>
       <r>    1.5490    1.0000 </r>
       <r>    1.7455    1.0000 </r>
       <r>    1.8217    1.0000 </r>
       <r>    1.9750    1.0000 </r>
       <r>    2.2276    1.0000 </r>
       <r>    2.3963    1.0000 </r>
       <r>    2.6135    1.0000 </r>
       <r>    2.6557    1.0000 </r>
       <r>    2.9147    1.0000 </r>
       <r>    3.0685    1.0000 </r>
       <r>    3.1149    1.0000 </r>
       <r>    3.2860    1.0000 </r>
       <r>    3.5834    1.0000 </r>
       <r>    6.2898   -0.0000 </r>
       <r>    6.3799   -0.0000 </r>
       <r>    7.3584    0.0000 </r>
       <r>    7.5250    0.0000 </r>
       <r>    8.3070    0.0000 </r>
       <r>    8.3347    0.0000 </r>
       <r>    9.1053    0.0000 </r>
       <r>    9.3597    0.0000 </r>
       <r>    9.7165    0.0000 </r>
       <r>    9.9468    0.0000 </r>
       <r>   10.5242    0.0000 </r>
       <r>   10.9884    0.0000 </r>
       <r>   11.4269    0.0000 </r>
       <r>   11.5669    0.0000 </r>
       <r>   12.0139    0.0000 </r>
       <r>   12.2841    0.0000 </r>
       <r>   12.4273    0.0000 </r>
       <r>   12.4782    0.0000 </r>
       <r>   13.0312    0.0000 </r>
       <r>   13.1531    0.0000 </r>
       <r>   14.1417    0.0000 </r>
       <r>   14.4354    0.0000 </r>
       <r>   15.1644    0.0000 </r>
       <r>   15.8642    0.0000 </r>
      </set>
     </set>
    </set>
   </array>
  </eigenvalues>
  <separator name="orbital magnetization" >
   <v name="MAGDIPOLOUT">      0.00000000      0.00000000      0.00000000</v>
  </separator>
  <dos>
   <i name="efermi">      4.21963364 </i>
   <total>
    <array>
     <dimension dim="1">gridpoints</dimension>
     <dimension dim="2">spin</dimension>
     <field>energy</field>
     <field>total</field>
     <field>integrated</field>
     <set>
      <set comment="spin 1">
       <r>   -72.8301     0.0000     0.0000 </r>
       <r>   -72.5238     0.0000     0.0000 </r>
       <r>   -72.2174     0.0000     0.0000 </r>
       <r>   -71.9110     0.0000     0.0000 </r>
       <r>   -71.6046     0.0000     0.0000 </r>
       <r>   -71.2982     0.0000     0.0000 </r>
       <r>   -70.9918     0.0000     0.0000 </r>
       <r>   -70.6855     0.0000     0.0000 </r>
       <r>   -70.3791     0.0000     0.0000 </r>
       <r>   -70.0727     0.0000     0.0000 </r>
       <r>   -69.7663     0.0000     0.0000 </r>
       <r>   -69.4599    -0.0000    -0.0000 </r>
       <r>   -69.1536    -0.0000    -0.0000 </r>
       <r>   -68.8472    -0.2181    -0.0668 </r>
       <r>   -68.5408    70.2303    21.4504 </r>
       <r>   -68.2344     8.3220    24.0001 </r>
       <r>   -67.9280    -0.0004    24.0000 </r>
       <r>   -67.6217     0.0000    24.0000 </r>
       <r>   -67.3153     0.0000    24.0000 </r>
       <r>   -67.0089     0.0000    24.0000 </r>
       <r>   -66.7025     0.0000    24.0000 </r>
       <r>   -66.3961     0.0000    24.0000 </r>
       <r>   -66.0898     0.0000    24.0000 </r>
       <r>   -65.7834     0.0000    24.0000 </r>
       <r>   -65.4770     0.0000    24.0000 </r>
       <r>   -65.1706     0.0000    24.0000 </r>
       <r>   -64.8642     0.0000    24.0000 </r>
       <r>   -64.5578     0.0000    24.0000 </r>
       <r>   -64.2515     0.0000    24.0000 </r>
       <r>   -63.9451     0.0000    24.0000 </r>
       <r>   -63.6387     0.0000    24.0000 </r>
       <r>   -63.3323     0.0000    24.0000 </r>
       <r>   -63.0259     0.0000    24.0000 </r>
       <r>   -62.7196     0.0000    24.0000 </r>
       <r>   -62.4132     0.0000    24.0000 </r>
       <r>   -62.1068     0.0000    24.0000 </r>
       <r>   -61.8004     0.0000    24.0000 </r>
       <r>   -61.4940     0.0000    24.0000 </r>
       <r>   -61.1877     0.0000    24.0000 </r>
       <r>   -60.8813     0.0000    24.0000 </r>
       <r>   -60.5749     0.0000    24.0000 </r>
       <r>   -60.2685     0.0000    24.0000 </r>
       <r>   -59.9621     0.0000    24.0000 </r>
       <r>   -59.6557     0.0000    24.0000 </r>
       <r>   -59.3494     0.0000    24.0000 </r>
       <r>   -59.0430     0.0000    24.0000 </r>
       <r>   -58.7366     0.0000    24.0000 </r>
       <r>   -58.4302     0.0000    24.0000 </r>
       <r>   -58.1238     0.0000    24.0000 </r>
       <r>   -57.8175     0.0000    24.0000 </r>
       <r>   -57.5111     0.0000    24.0000 </r>
       <r>   -57.2047     0.0000    24.0000 </r>
       <r>   -56.8983     0.0000    24.0000 </r>
       <r>   -56.5919     0.0000    24.0000 </r>
       <r>   -56.2856     0.0000    24.0000 </r>
       <r>   -55.9792     0.0000    24.0000 </r>
       <r>   -55.6728     0.0000    24.0000 </r>
       <r>   -55.3664     0.0000    24.0000 </r>
       <r>   -55.0600     0.0000    24.0000 </r>
       <r>   -54.7537     0.0000    24.0000 </r>
       <r>   -54.4473     0.0000    24.0000 </r>
       <r>   -54.1409     0.0000    24.0000 </r>
       <r>   -53.8345     0.0000    24.0000 </r>
       <r>   -53.5281     0.0000    24.0000 </r>
       <r>   -53.2217     0.0000    24.0000 </r>
       <r>   -52.9154     0.0000    24.0000 </r>
       <r>   -52.6090     0.0000    24.0000 </r>
       <r>   -52.3026     0.0000    24.0000 </r>
       <r>   -51.9962     0.0000    24.0000 </r>
       <r>   -51.6898     0.0000    24.0000 </r>
       <r>   -51.3835     0.0000    24.0000 </r>
       <r>   -51.0771     0.0000    24.0000 </r>
       <r>   -50.7707     0.0000    24.0000 </r>
       <r>   -50.4643     0.0000    24.0000 </r>
       <r>   -50.1579     0.0000    24.0000 </r>
       <r>   -49.8516     0.0000    24.0000 </r>
       <r>   -49.5452     0.0000    24.0000 </r>
       <r>   -49.2388     0.0000    24.0000 </r>
       <r>   -48.9324     0.0000    24.0000 </r>
       <r>   -48.6260     0.0000    24.0000 </r>
       <r>   -48.3197     0.0000    24.0000 </r>
       <r>   -48.0133     0.0000    24.0000 </r>
       <r>   -47.7069     0.0000    24.0000 </r>
       <r>   -47.4005     0.0000    24.0000 </r>
       <r>   -47.0941     0.0000    24.0000 </r>
       <r>   -46.7877     0.0000    24.0000 </r>
       <r>   -46.4814     0.0000    24.0000 </r>
       <r>   -46.1750     0.0000    24.0000 </r>
       <r>   -45.8686     0.0000    24.0000 </r>
       <r>   -45.5622     0.0000    24.0000 </r>
       <r>   -45.2558     0.0000    24.0000 </r>
       <r>   -44.9495     0.0000    24.0000 </r>
       <r>   -44.6431     0.0000    24.0000 </r>
       <r>   -44.3367     0.0000    24.0000 </r>
       <r>   -44.0303     0.0000    24.0000 </r>
       <r>   -43.7239     0.0000    24.0000 </r>
       <r>   -43.4176     0.0000    24.0000 </r>
       <r>   -43.1112     0.0000    24.0000 </r>
       <r>   -42.8048     0.0000    24.0000 </r>
       <r>   -42.4984     0.0000    24.0000 </r>
       <r>   -42.1920     0.0000    24.0000 </r>
       <r>   -41.8856     0.0000    24.0000 </r>
       <r>   -41.5793     0.0000    24.0000 </r>
       <r>   -41.2729     0.0000    24.0000 </r>
       <r>   -40.9665     0.0000    24.0000 </r>
       <r>   -40.6601     0.0000    24.0000 </r>
       <r>   -40.3537     0.0000    24.0000 </r>
       <r>   -40.0474     0.0000    24.0000 </r>
       <r>   -39.7410     0.0000    24.0000 </r>
       <r>   -39.4346     0.0000    24.0000 </r>
       <r>   -39.1282     0.0000    24.0000 </r>
       <r>   -38.8218     0.0000    24.0000 </r>
       <r>   -38.5155     0.0000    24.0000 </r>
       <r>   -38.2091     0.0000    24.0000 </r>
       <r>   -37.9027     0.0000    24.0000 </r>
       <r>   -37.5963     0.0000    24.0000 </r>
       <r>   -37.2899     0.0000    24.0000 </r>
       <r>   -36.9836     0.0000    24.0000 </r>
       <r>   -36.6772     0.0000    24.0000 </r>
       <r>   -36.3708     0.0000    24.0000 </r>
       <r>   -36.0644     0.0000    24.0000 </r>
       <r>   -35.7580     0.0000    24.0000 </r>
       <r>   -35.4516     0.0000    24.0000 </r>
       <r>   -35.1453     0.0000    24.0000 </r>
       <r>   -34.8389     0.0000    24.0000 </r>
       <r>   -34.5325     0.0000    24.0000 </r>
       <r>   -34.2261     0.0000    24.0000 </r>
       <r>   -33.9197     0.0000    24.0000 </r>
       <r>   -33.6134     0.0000    24.0000 </r>
       <r>   -33.3070     0.0000    24.0000 </r>
       <r>   -33.0006     0.0000    24.0000 </r>
       <r>   -32.6942     0.0000    24.0000 </r>
       <r>   -32.3878     0.0000    24.0000 </r>
       <r>   -32.0815     0.0000    24.0000 </r>
       <r>   -31.7751     0.0000    24.0000 </r>
       <r>   -31.4687     0.0000    24.0000 </r>
       <r>   -31.1623     0.0000    24.0000 </r>
       <r>   -30.8559     0.0000    24.0000 </r>
       <r>   -30.5496     0.0000    24.0000 </r>
       <r>   -30.2432     0.0000    24.0000 </r>
       <r>   -29.9368     0.0000    24.0000 </r>
       <r>   -29.6304     0.0000    24.0000 </r>
       <r>   -29.3240     0.0000    24.0000 </r>
       <r>   -29.0176     0.0000    24.0000 </r>
       <r>   -28.7113     0.0000    24.0000 </r>
       <r>   -28.4049     0.0000    24.0000 </r>
       <r>   -28.0985     0.0000    24.0000 </r>
       <r>   -27.7921     0.0000    24.0000 </r>
       <r>   -27.4857     0.0000    24.0000 </r>
       <r>   -27.1794     0.0000    24.0000 </r>
       <r>   -26.8730     0.0000    24.0000 </r>
       <r>   -26.5666     0.0000    24.0000 </r>
       <r>   -26.2602     0.0000    24.0000 </r>
       <r>   -25.9538     0.0000    24.0000 </r>
       <r>   -25.6475     0.0000    24.0000 </r>
       <r>   -25.3411     0.0000    24.0000 </r>
       <r>   -25.0347     0.0000    24.0000 </r>
       <r>   -24.7283     0.0000    24.0000 </r>
       <r>   -24.4219     0.0000    24.0000 </r>
       <r>   -24.1155     0.0000    24.0000 </r>
       <r>   -23.8092     0.0000    24.0000 </r>
       <r>   -23.5028     0.0000    24.0000 </r>
       <r>   -23.1964     0.0000    24.0000 </r>
       <r>   -22.8900     0.0000    24.0000 </r>
       <r>   -22.5836     0.0000    24.0000 </r>
       <r>   -22.2773     0.0000    24.0000 </r>
       <r>   -21.9709     0.0000    24.0000 </r>
       <r>   -21.6645     0.0000    24.0000 </r>
       <r>   -21.3581     0.0000    24.0000 </r>
       <r>   -21.0517     0.0000    24.0000 </r>
       <r>   -20.7454     0.0000    24.0000 </r>
       <r>   -20.4390     0.0000    24.0000 </r>
       <r>   -20.1326     0.0000    24.0000 </r>
       <r>   -19.8262     0.0000    24.0000 </r>
       <r>   -19.5198     0.0000    24.0000 </r>
       <r>   -19.2135     0.0000    24.0000 </r>
       <r>   -18.9071     0.0000    24.0000 </r>
       <r>   -18.6007     0.0000    24.0000 </r>
       <r>   -18.2943     0.0000    24.0000 </r>
       <r>   -17.9879     0.0000    24.0000 </r>
       <r>   -17.6815     0.0000    24.0000 </r>
       <r>   -17.3752     0.0000    24.0000 </r>
       <r>   -17.0688     0.0000    24.0000 </r>
       <r>   -16.7624     0.0000    24.0000 </r>
       <r>   -16.4560     0.0000    24.0000 </r>
       <r>   -16.1496     0.0000    24.0000 </r>
       <r>   -15.8433     0.0000    24.0000 </r>
       <r>   -15.5369     0.0000    24.0000 </r>
       <r>   -15.2305     0.0000    24.0000 </r>
       <r>   -14.9241     0.0000    24.0000 </r>
       <r>   -14.6177     0.0000    24.0000 </r>
       <r>   -14.3114     0.0000    24.0000 </r>
       <r>   -14.0050     0.0000    24.0000 </r>
       <r>   -13.6986    -0.0000    24.0000 </r>
       <r>   -13.3922    -0.0000    24.0000 </r>
       <r>   -13.0858    -0.0000    24.0000 </r>
       <r>   -12.7795    -0.0038    23.9988 </r>
       <r>   -12.4731     1.5588    24.4764 </r>
       <r>   -12.1667     3.5683    25.5697 </r>
       <r>   -11.8603     1.9039    26.1530 </r>
       <r>   -11.5539     2.1455    26.8103 </r>
       <r>   -11.2475     3.1916    27.7882 </r>
       <r>   -10.9412     2.5652    28.5741 </r>
       <r>   -10.6348     9.2471    31.4073 </r>
       <r>   -10.3284     9.3929    34.2851 </r>
       <r>   -10.0220     5.6162    36.0058 </r>
       <r>    -9.7156    -0.0188    36.0000 </r>
       <r>    -9.4093    -0.0000    36.0000 </r>
       <r>    -9.1029     0.0000    36.0000 </r>
       <r>    -8.7965     0.0000    36.0000 </r>
       <r>    -8.4901     0.0000    36.0000 </r>
       <r>    -8.1837     0.0000    36.0000 </r>
       <r>    -7.8774     0.0000    36.0000 </r>
       <r>    -7.5710     0.0000    36.0000 </r>
       <r>    -7.2646     0.0000    36.0000 </r>
       <r>    -6.9582    -0.0000    36.0000 </r>
       <r>    -6.6518    -0.0000    36.0000 </r>
       <r>    -6.3454    -0.0000    36.0000 </r>
       <r>    -6.0391     0.0577    36.0177 </r>
       <r>    -5.7327     3.4975    37.0893 </r>
       <r>    -5.4263     2.0536    37.7185 </r>
       <r>    -5.1199     1.8721    38.2920 </r>
       <r>    -4.8135     3.3015    39.3035 </r>
       <r>    -4.5072     2.2086    39.9802 </r>
       <r>    -4.2008     0.0646    40.0000 </r>
       <r>    -3.8944    -0.0000    40.0000 </r>
       <r>    -3.5880    -0.0000    40.0000 </r>
       <r>    -3.2816    -0.0000    40.0000 </r>
       <r>    -2.9753    -0.0004    39.9999 </r>
       <r>    -2.6689     0.3837    40.1174 </r>
       <r>    -2.3625     6.1529    42.0026 </r>
       <r>    -2.0561     6.6974    44.0545 </r>
       <r>    -1.7497     7.3491    46.3061 </r>
       <r>    -1.4434     6.4125    48.2708 </r>
       <r>    -1.1370     8.7376    50.9478 </r>
       <r>    -0.8306     9.0676    53.7260 </r>
       <r>    -0.5242    11.3688    57.2092 </r>
       <r>    -0.2178    18.1351    62.7655 </r>
       <r>     0.0886    28.9556    71.6369 </r>
       <r>     0.3949     1.1858    72.0002 </r>
       <r>     0.7013    -0.0006    72.0000 </r>
       <r>     1.0077    -0.0201    71.9938 </r>
       <r>     1.3141     7.4298    74.2702 </r>
       <r>     1.6205    44.8223    88.0029 </r>
       <r>     1.9268    13.8123    92.2347 </r>
       <r>     2.2332    13.1615    96.2671 </r>
       <r>     2.5396    12.8487   100.2037 </r>
       <r>     2.8460    11.1711   103.6264 </r>
       <r>     3.1524     9.0674   106.4044 </r>
       <r>     3.4587     7.9197   108.8309 </r>
       <r>     3.7651     6.9486   110.9598 </r>
       <r>     4.0715     3.1517   111.9254 </r>
       <r>     4.3779     0.2440   112.0002 </r>
       <r>     4.6843    -0.0005   112.0000 </r>
       <r>     4.9907    -0.0000   112.0000 </r>
       <r>     5.2970    -0.0001   112.0000 </r>
       <r>     5.6034     0.0771   112.0236 </r>
       <r>     5.9098     0.1740   112.0769 </r>
       <r>     6.2162     2.6415   112.8862 </r>
       <r>     6.5226     4.3656   114.2237 </r>
       <r>     6.8289     3.4415   115.2781 </r>
       <r>     7.1353     2.4221   116.0202 </r>
       <r>     7.4417     1.4304   116.4585 </r>
       <r>     7.7481     3.1845   117.4341 </r>
       <r>     8.0545     5.5741   119.1419 </r>
       <r>     8.3608     5.5468   120.8413 </r>
       <r>     8.6672     4.5822   122.2452 </r>
       <r>     8.9736     4.4719   123.6153 </r>
       <r>     9.2800     5.6105   125.3343 </r>
       <r>     9.5864     5.6919   127.0782 </r>
       <r>     9.8927     4.7928   128.5466 </r>
       <r>    10.1991     4.4572   129.9122 </r>
       <r>    10.5055     6.4946   131.9021 </r>
       <r>    10.8119     8.2650   134.4343 </r>
       <r>    11.1183     8.2806   136.9713 </r>
       <r>    11.4247     7.9522   139.4077 </r>
       <r>    11.7310     7.9197   141.8342 </r>
       <r>    12.0374     6.5751   143.8487 </r>
       <r>    12.3438     5.8668   145.6461 </r>
       <r>    12.6502     6.6299   147.6774 </r>
       <r>    12.9566     5.7764   149.4472 </r>
       <r>    13.2629     6.2095   151.3497 </r>
       <r>    13.5693     5.3525   152.9896 </r>
       <r>    13.8757     4.0589   154.2332 </r>
       <r>    14.1821     3.1757   155.2062 </r>
       <r>    14.4885     4.7303   156.6554 </r>
       <r>    14.7948     3.3425   157.6795 </r>
       <r>    15.1012     1.4144   158.1129 </r>
       <r>    15.4076     1.5952   158.6016 </r>
       <r>    15.7140     1.2123   158.9730 </r>
       <r>    16.0204     1.6924   159.4915 </r>
       <r>    16.3267     0.3281   159.5920 </r>
       <r>    16.6331     0.6881   159.8028 </r>
       <r>    16.9395     0.5251   159.9637 </r>
       <r>    17.2459     0.1184   160.0000 </r>
       <r>    17.5523    -0.0000   160.0000 </r>
       <r>    17.8587     0.0000   160.0000 </r>
       <r>    18.1650     0.0000   160.0000 </r>
       <r>    18.4714     0.0000   160.0000 </r>
       <r>    18.7778     0.0000   160.0000 </r>
       <r>    19.0842     0.0000   160.0000 </r>
      </set>
     </set>
    </array>
   </total>
  </dos>
 </calculation>
 <structure name="finalpos" >
  <crystal>
   <varray name="basis" >
    <v>       3.22479600      -5.64383000       0.03157200 </v>
    <v>       3.22479600       5.64383000       0.03157200 </v>
    <v>      -2.10194600       0.00000000       6.07553700 </v>
   </varray>
   <i name="volume">    221.90106089 </i>
   <varray name="rec_basis" >
    <v>       0.15452516      -0.08859232       0.05346088 </v>
    <v>       0.15452516       0.08859232       0.05346088 </v>
    <v>      -0.00160600       0.00000000       0.16403888 </v>
   </varray>
  </crystal>
  <varray name="positions" >
   <v>       0.61844300       0.12117100       0.11953300 </v>
   <v>       0.12117100       0.61844300       0.61953300 </v>
   <v>       0.96295700       0.78878360       0.11881300 </v>
   <v>       0.79032200       0.96295700       0.61881300 </v>
   <v>       0.43973200       0.26728100       0.59904700 </v>
   <v>       0.26728100       0.43973200       0.09904700 </v>
   <v>       0.07949800       0.91167500       0.49736300 </v>
   <v>       0.57140300       0.41236400       0.98018400 </v>
   <v>       0.73711100       0.25006200       0.49504900 </v>
   <v>       0.41236400       0.57140300       0.48018400 </v>
   <v>       0.91167500       0.07949800       0.99736300 </v>
   <v>       0.25006200       0.73711100       0.99504900 </v>
  </varray>
 </structure>
</modeling>
