       N       E                     dE             d eps       ncg     rms          ort
SDA:   1     0.755220952595E+02    0.75522E+02   -0.21318E+03  3360   0.533E+03 0.000E+00
DMP:   2    -0.838273693312E+01   -0.83905E+02   -0.14687E+03  3360   0.395E+03-0.737E+02
DMP:   3    -0.151454398130E+02   -0.67627E+01   -0.20385E+03  3360   0.694E+03-0.482E+03
DMP:   4    -0.226130637721E+02   -0.74676E+01   -0.10746E+03  3360   0.391E+03-0.320E+03
DMP:   5    -0.608150924043E+02   -0.38202E+02   -0.15058E+02  3360   0.706E+02-0.862E+02
DMP:   6    -0.659210948315E+02   -0.51060E+01   -0.82127E+01  3360   0.248E+02-0.111E+02
DMP:   7    -0.674654459404E+02   -0.15444E+01   -0.41521E+01  3360   0.148E+02-0.115E+02
DMP:   8    -0.690837533839E+02   -0.16183E+01   -0.77219E+00  3360   0.284E+01-0.238E+01
DMP:   9    -0.693942467433E+02   -0.31049E+00   -0.38800E+00  3360   0.111E+01-0.368E+00
DMP:  10    -0.694983717683E+02   -0.10413E+00   -0.15281E+00  3360   0.550E+00-0.439E+00
DMP:  11    -0.695682224794E+02   -0.69851E-01   -0.36946E-01  3360   0.105E+00-0.340E-01
DMP:  12    -0.695805562016E+02   -0.12334E-01   -0.22932E-01  3360   0.692E-01-0.312E-01
DMP:  13    -0.695902511830E+02   -0.96950E-02   -0.51282E-02  3360   0.162E-01-0.880E-02
DMP:  14    -0.695927092169E+02   -0.24580E-02   -0.37942E-02  3360   0.968E-02-0.522E-03
DMP:  15    -0.695942193857E+02   -0.15102E-02   -0.10405E-02  3360   0.334E-02-0.194E-02
DMP:  16    -0.695947921610E+02   -0.57278E-03   -0.41057E-03  3360   0.919E-03 0.282E-03
DMP:  17    -0.695949655508E+02   -0.17339E-03   -0.20946E-03  3360   0.582E-03-0.153E-03
DMP:  18    -0.695950829978E+02   -0.11745E-03   -0.56241E-04  3360   0.119E-03 0.554E-04
DMP:  19    -0.695951118869E+02   -0.28889E-04   -0.35402E-04  3360   0.886E-04-0.374E-06
DMP:  20    -0.695951317078E+02   -0.19821E-04   -0.11617E-04  3360   0.242E-04 0.126E-04
DMP:  21    -0.695951391188E+02   -0.74110E-05   -0.70368E-05  3360   0.141E-04 0.916E-05
   1 F= -.69595139E+02 E0= -.69595328E+02  d E =0.567047E-03
