 vasp.5.3.3 18Dez12 (build Nov 13 2015 09:58:40) complex                        
  
 executed on             LinuxIFC date 2017.10.18  13:06:26
 running on   48 total cores
 distrk:  each k-point on   16 cores,    3 groups
 distr:  one band on NCORES_PER_BAND=   1 cores,   16 groups


--------------------------------------------------------------------------------------------------------


 INCAR:
 POTCAR:    PAW_PBE Cu_pv 06Sep2000               
 POTCAR:    PAW_PBE Ge 05Jan2001                  
 POTCAR:    PAW_PBE S 17Jan2003                   

 ----------------------------------------------------------------------------- 
|                                                                             |
|           W    W    AA    RRRRR   N    N  II  N    N   GGGG   !!!           |
|           W    W   A  A   R    R  NN   N  II  NN   N  G    G  !!!           |
|           W    W  A    A  R    R  N N  N  II  N N  N  G       !!!           |
|           W WW W  AAAAAA  RRRRR   N  N N  II  N  N N  G  GGG   !            |
|           WW  WW  A    A  R   R   N   NN  II  N   NN  G    G                |
|           W    W  A    A  R    R  N    N  II  N    N   GGGG   !!!           |
|                                                                             |
|      For optimal performance we recommend that you set                      |
|        NPAR = 4 - approx SQRT( number of cores)                             |
|      (number of cores/NPAR must be integer)                                 |
|      This setting will greatly improve the performance of VASP for DFT.     |
|      The default NPAR=number of cores might be grossly inefficient          |
|      on modern multi-core architectures or massively parallel machines.     |
|      Do your own testing.                                                   |
|      Unfortunately you need to use the default for hybrid, GW and RPA       |
|      calculations.                                                          |
|                                                                             |
 ----------------------------------------------------------------------------- 


 ----------------------------------------------------------------------------- 
|                                                                             |
|           W    W    AA    RRRRR   N    N  II  N    N   GGGG   !!!           |
|           W    W   A  A   R    R  NN   N  II  NN   N  G    G  !!!           |
|           W    W  A    A  R    R  N N  N  II  N N  N  G       !!!           |
|           W WW W  AAAAAA  RRRRR   N  N N  II  N  N N  G  GGG   !            |
|           WW  WW  A    A  R   R   N   NN  II  N   NN  G    G                |
|           W    W  A    A  R    R  N    N  II  N    N   GGGG   !!!           |
|                                                                             |
|      You have enabled k-point parallelism (KPAR>1).                         |
|      This developmental code was originally  written by Paul Kent at ORNL,  |
|      and carefully double checked in Vienna.                                |
|      GW as well as linear response parallelism added by Martijn Marsman     |
|      and Georg Kresse.                                                      |
|      Carefully verify results versus KPAR=1.                                |
|      Report problems to Paul Kent and Vienna.                               |
|                                                                             |
 ----------------------------------------------------------------------------- 

 POTCAR:    PAW_PBE Cu_pv 06Sep2000               
   VRHFIN =Cu: d10 p1                                                           
   LEXCH  = PE                                                                  
   EATOM  =  4120.1201 eV,  302.8203 Ry                                         
                                                                                
   TITEL  = PAW_PBE Cu_pv 06Sep2000                                             
   LULTRA =        F    use ultrasoft PP ?                                      
   IUNSCR =        1    unscreen: 0-lin 1-nonlin 2-no                           
   RPACOR =    1.500    partial core radius                                     
   POMASS =   63.546; ZVAL   =   17.000    mass and valenz                      
   RCORE  =    2.000    outmost cutoff radius                                   
   RWIGS  =    2.000; RWIGS  =    1.058    wigner-seitz radius (au A)           
   ENMAX  =  368.648; ENMIN  =  276.486 eV                                      
   RCLOC  =    1.304    cutoff for local pot                                    
   LCOR   =        T    correct aug charges                                     
   LPAW   =        T    paw PP                                                  
   EAUG   =  758.233                                                            
   DEXC   =    0.000                                                            
   RMAX   =    2.046    core radius for proj-oper                               
   RAUG   =    1.300    factor for augmentation sphere                          
   RDEP   =    2.025    radius for radial grids                                 
   RDEPT  =    1.558    core radius for aug-charge                              
                                                                                
   Atomic configuration                                                         
    8 entries                                                                   
     n  l   j            E        occ.                                          
     1  0  0.50     -8850.2467   2.0000                                         
     2  0  0.50     -1062.3498   2.0000                                         
     2  1  1.50      -916.8226   6.0000                                         
     3  0  0.50      -114.6929   2.0000                                         
     3  1  1.50       -72.1325   6.0000                                         
     3  2  2.50        -5.0394  10.0000                                         
     4  0  0.50        -4.6097   1.0000                                         
     4  3  2.50        -1.3606   0.0000                                         
   Description                                                                  
     l       E           TYP  RCUT    TYP  RCUT                                 
     1    -72.1324777     23  1.700                                             
     1     -1.3605826     23  1.700                                             
     2     -5.0393776     23  2.000                                             
     2     -6.3999602     23  2.000                                             
     0     -4.6097062     23  1.800                                             
     0     14.1620818     23  1.800                                             
  local pseudopotential read in
  partial core-charges read in
  partial kinetic energy density read in
  atomic valenz-charges read in
  non local Contribution for L=           1  read in
    real space projection operators read in
  non local Contribution for L=           1  read in
    real space projection operators read in
  non local Contribution for L=           2  read in
    real space projection operators read in
  non local Contribution for L=           2  read in
    real space projection operators read in
  non local Contribution for L=           0  read in
    real space projection operators read in
  non local Contribution for L=           0  read in
    real space projection operators read in
    PAW grid and wavefunctions read in
 
   number of l-projection  operators is LMAX  =           6
   number of lm-projection operators is LMMAX =          18
 
 POTCAR:    PAW_PBE Ge 05Jan2001                  
   VRHFIN =Ge: s2p2                                                             
   LEXCH  = PE                                                                  
   EATOM  =   104.9960 eV,    7.7170 Ry                                         
                                                                                
   TITEL  = PAW_PBE Ge 05Jan2001                                                
   LULTRA =        F    use ultrasoft PP ?                                      
   IUNSCR =        1    unscreen: 0-lin 1-nonlin 2-no                           
   RPACOR =    2.170    partial core radius                                     
   POMASS =   72.610; ZVAL   =    4.000    mass and valenz                      
   RCORE  =    2.300    outmost cutoff radius                                   
   RWIGS  =    2.300; RWIGS  =    1.217    wigner-seitz radius (au A)           
   ENMAX  =  173.807; ENMIN  =  130.355 eV                                      
   ICORE  =        3    local potential                                         
   LCOR   =        T    correct aug charges                                     
   LPAW   =        T    paw PP                                                  
   EAUG   =  385.843                                                            
   DEXC   =    0.000                                                            
   RMAX   =    2.342    core radius for proj-oper                               
   RAUG   =    1.300    factor for augmentation sphere                          
   RDEP   =    2.318    radius for radial grids                                 
   RDEPT  =    2.103    core radius for aug-charge                              
                                                                                
   Atomic configuration                                                         
   10 entries                                                                   
     n  l   j            E        occ.                                          
     1  0  0.50    -10959.8463   2.0000                                         
     2  0  0.50     -1371.6056   2.0000                                         
     2  1  1.50     -1198.4791   6.0000                                         
     3  0  0.50      -168.4733   2.0000                                         
     3  1  1.50      -115.6019   6.0000                                         
     3  2  2.50       -29.3106  10.0000                                         
     4  0  0.50       -11.7309   2.0000                                         
     4  1  0.50        -3.8952   2.0000                                         
     4  2  1.50        -4.0817   0.0000                                         
     4  3  2.50        -4.0817   0.0000                                         
   Description                                                                  
     l       E           TYP  RCUT    TYP  RCUT                                 
     0    -11.7309493     23  2.300                                             
     0     -7.4578696     23  2.300                                             
     1     -3.8952261     23  2.300                                             
     1      6.1178114     23  2.300                                             
     2     -4.0817478     23  2.300                                             
     3     -1.3605826      7  2.300                                             
  local pseudopotential read in
  partial core-charges read in
  partial kinetic energy density read in
  atomic valenz-charges read in
  non local Contribution for L=           0  read in
    real space projection operators read in
  non local Contribution for L=           0  read in
    real space projection operators read in
  non local Contribution for L=           1  read in
    real space projection operators read in
  non local Contribution for L=           1  read in
    real space projection operators read in
  non local Contribution for L=           2  read in
    real space projection operators read in
    PAW grid and wavefunctions read in
 
   number of l-projection  operators is LMAX  =           5
   number of lm-projection operators is LMMAX =          13
 
 POTCAR:    PAW_PBE S 17Jan2003                   
   VRHFIN =S : s2p4                                                             
   LEXCH  = PE                                                                  
   EATOM  =   276.8230 eV,   20.3459 Ry                                         
                                                                                
   TITEL  = PAW_PBE S 17Jan2003                                                 
   LULTRA =        F    use ultrasoft PP ?                                      
   IUNSCR =        1    unscreen: 0-lin 1-nonlin 2-no                           
   RPACOR =    1.500    partial core radius                                     
   POMASS =   32.066; ZVAL   =    6.000    mass and valenz                      
   RCORE  =    1.900    outmost cutoff radius                                   
   RWIGS  =    2.200; RWIGS  =    1.164    wigner-seitz radius (au A)           
   ENMAX  =  280.000; ENMIN  =  194.016 eV                                      
   ICORE  =        2    local potential                                         
   LCOR   =        T    correct aug charges                                     
   LPAW   =        T    paw PP                                                  
   EAUG   =  335.092                                                            
   DEXC   =     .000                                                            
   RMAX   =    2.867    core radius for proj-oper                               
   RAUG   =    1.300    factor for augmentation sphere                          
   RDEP   =    1.954    radius for radial grids                                 
   QCUT   =   -4.360; QGAM   =    8.721    optimization parameters              
                                                                                
   Description                                                                  
     l     E      TYP  RCUT    TYP  RCUT                                        
     0   .000     23  1.900                                                     
     0   .000     23  1.900                                                     
     1   .000     23  1.900                                                     
     1   .000     23  1.900                                                     
     2   .000     23  1.900                                                     
  local pseudopotential read in
  partial core-charges read in
  atomic valenz-charges read in
  non local Contribution for L=           0  read in
    real space projection operators read in
  non local Contribution for L=           0  read in
    real space projection operators read in
  non local Contribution for L=           1  read in
    real space projection operators read in
  non local Contribution for L=           1  read in
    real space projection operators read in
    PAW grid and wavefunctions read in
 
   number of l-projection  operators is LMAX  =           4
   number of lm-projection operators is LMMAX =           8
 
  PAW_PBE Cu_pv 06Sep2000               :
 energy of atom  1       EATOM=-4120.1201
 kinetic energy error for atom=    0.0996 (will be added to EATOM!!)
  PAW_PBE Ge 05Jan2001                  :
 energy of atom  2       EATOM= -104.9960
 kinetic energy error for atom=    0.0003 (will be added to EATOM!!)
  PAW_PBE S 17Jan2003                   :
 energy of atom  3       EATOM= -276.8230
 kinetic energy error for atom=    0.0046 (will be added to EATOM!!)
 
 
 POSCAR: Cu Ge S                                 
  positions in direct lattice
  No initial velocities read in
 exchange correlation table for  LEXCH =        8
   RHO(1)=    0.500       N(1)  =     2000
   RHO(2)=  100.500       N(2)  =     4000
 


--------------------------------------------------------------------------------------------------------


 ion  position               nearest neighbor table
   1  0.618  0.121  0.120-   9 2.29  11 2.29  12 2.30   8 2.35
   2  0.121  0.618  0.620-  12 2.29   7 2.29   9 2.30  10 2.35
   3  0.963  0.790  0.119-  11 2.30  12 2.30   7 2.31   8 2.36
   4  0.790  0.963  0.619-   7 2.30   9 2.30  11 2.31  10 2.36
   5  0.440  0.267  0.601-   7 2.19   9 2.20  10 2.31   8 2.32
   6  0.267  0.440  0.099-  11 2.19  12 2.19   8 2.31  10 2.33
   7  0.079  0.912  0.497-   5 2.19   2 2.29   4 2.30   3 2.31
   8  0.571  0.412  0.980-   6 2.31   5 2.32   1 2.35   3 2.36
   9  0.737  0.250  0.495-   5 2.20   1 2.29   4 2.30   2 2.30
  10  0.412  0.571  0.480-   5 2.31   6 2.33   2 2.35   4 2.36
  11  0.912  0.079  0.997-   6 2.19   1 2.29   3 2.30   4 2.31
  12  0.250  0.737  0.995-   6 2.19   2 2.29   3 2.30   1 2.30
 
  Warning from LATTYP: Got some problem with cell dimensions!
  Tried to take original basis but could not verify dimensions!
  LATTYP: Found a base centered monoclinic cell.
 ALAT       =     6.4499010947
 B/A-ratio  =     1.7500516418
 C/A-ratio  =     1.9305142024
 COS(beta)  =    -0.4326083233
  
  Lattice vectors:
  
 A1 = (   3.2247960000,   5.6438300000,   0.0315720000)
 A2 = (   3.2247960000,  -5.6438300000,   0.0315720000)
 A3 = ( -10.7972380000,   0.0000000000,  -6.2018250000)


Analysis of symmetry for initial positions (statically):
=====================================================================
 Subroutine PRICEL returns:
 Original cell was already a primitive cell.
 

 Routine SETGRP: Setting up the symmetry group for a 
 base centered monoclinic supercell.


 Subroutine GETGRP returns: Found  1 space group operations
 (whereof  1 operations were pure point group operations)
 out of a pool of  4 trial point group operations.


The static configuration has the point symmetry C_1 .


Analysis of symmetry for dynamics (positions and initial velocities):
=====================================================================
 Subroutine PRICEL returns:
 Original cell was already a primitive cell.
 

 Routine SETGRP: Setting up the symmetry group for a 
 base centered monoclinic supercell.


 Subroutine GETGRP returns: Found  1 space group operations
 (whereof  1 operations were pure point group operations)
 out of a pool of  4 trial point group operations.


The dynamic configuration has the point symmetry C_1 .


 irot  :   1
 --------------------------------------------------------------------
 isymop:   1   0   0
           0   1   0
           0   0   1

 gtrans:     0.0000000     0.0000000     0.0000000

 ptrans:     0.0000000     0.0000000     0.0000000
 rotmap:
 (   1->   1)  (   2->   2)  (   3->   3)  (   4->   4)  (   5->   5) 
 (   6->   6)  (   7->   7)  (   8->   8)  (   9->   9)  (  10->  10) 
 (  11->  11)  (  12->  12) 
 
 
 KPOINTS: pymatgen 4.7.6+ generated KPOINTS with g

Automatic generation of k-mesh.
Space group operators:
 irot       det(A)        alpha          n_x          n_y          n_z        tau_x        tau_y        tau_z
    1     1.000000     0.000000     1.000000     0.000000     0.000000     0.000000     0.000000     0.000000
 
 Subroutine IBZKPT returns following result:
 ===========================================
 
 Found     42 irreducible k-points:
 
 Following reciprocal coordinates:
            Coordinates               Weight
  0.000000  0.000000  0.000000      1.000000
  0.250000  0.000000  0.000000      2.000000
  0.500000  0.000000  0.000000      1.000000
  0.000000  0.250000  0.000000      2.000000
  0.250000  0.250000  0.000000      2.000000
  0.500000  0.250000 -0.000000      2.000000
 -0.250000  0.250000  0.000000      2.000000
  0.000000  0.500000  0.000000      1.000000
  0.250000  0.500000 -0.000000      2.000000
  0.500000  0.500000  0.000000      1.000000
 -0.000000 -0.000000  0.200000      2.000000
  0.250000  0.000000  0.200000      2.000000
  0.500000  0.000000  0.200000      2.000000
 -0.250000 -0.000000  0.200000      2.000000
  0.000000  0.250000  0.200000      2.000000
  0.250000  0.250000  0.200000      2.000000
  0.500000  0.250000  0.200000      2.000000
 -0.250000  0.250000  0.200000      2.000000
  0.000000  0.500000  0.200000      2.000000
  0.250000  0.500000  0.200000      2.000000
  0.500000  0.500000  0.200000      2.000000
 -0.250000  0.500000  0.200000      2.000000
 -0.000000 -0.250000  0.200000      2.000000
  0.250000 -0.250000  0.200000      2.000000
  0.500000 -0.250000  0.200000      2.000000
 -0.250000 -0.250000  0.200000      2.000000
 -0.000000 -0.000000  0.400000      2.000000
  0.250000  0.000000  0.400000      2.000000
  0.500000  0.000000  0.400000      2.000000
 -0.250000  0.000000  0.400000      2.000000
  0.000000  0.250000  0.400000      2.000000
  0.250000  0.250000  0.400000      2.000000
  0.500000  0.250000  0.400000      2.000000
 -0.250000  0.250000  0.400000      2.000000
  0.000000  0.500000  0.400000      2.000000
  0.250000  0.500000  0.400000      2.000000
  0.500000  0.500000  0.400000      2.000000
 -0.250000  0.500000  0.400000      2.000000
  0.000000 -0.250000  0.400000      2.000000
  0.250000 -0.250000  0.400000      2.000000
  0.500000 -0.250000  0.400000      2.000000
 -0.250000 -0.250000  0.400000      2.000000
 
 Following cartesian coordinates:
            Coordinates               Weight
  0.000000  0.000000  0.000000      1.000000
  0.038631 -0.022148  0.013365      2.000000
  0.077263 -0.044296  0.026730      1.000000
  0.038631  0.022148  0.013365      2.000000
  0.077263  0.000000  0.026730      2.000000
  0.115894 -0.022148  0.040096      2.000000
  0.000000  0.044296  0.000000      2.000000
  0.077263  0.044296  0.026730      1.000000
  0.115894  0.022148  0.040096      2.000000
  0.154525  0.000000  0.053461      1.000000
 -0.000321  0.000000  0.032808      2.000000
  0.038310 -0.022148  0.046173      2.000000
  0.076941 -0.044296  0.059538      2.000000
 -0.038952  0.022148  0.019443      2.000000
  0.038310  0.022148  0.046173      2.000000
  0.076941  0.000000  0.059538      2.000000
  0.115573 -0.022148  0.072903      2.000000
 -0.000321  0.044296  0.032808      2.000000
  0.076941  0.044296  0.059538      2.000000
  0.115573  0.022148  0.072903      2.000000
  0.154204  0.000000  0.086269      2.000000
  0.038310  0.066444  0.046173      2.000000
 -0.038952 -0.022148  0.019443      2.000000
 -0.000321 -0.044296  0.032808      2.000000
  0.038310 -0.066444  0.046173      2.000000
 -0.077584  0.000000  0.006077      2.000000
 -0.000642  0.000000  0.065616      2.000000
  0.037989 -0.022148  0.078981      2.000000
  0.076620 -0.044296  0.092346      2.000000
 -0.039274  0.022148  0.052250      2.000000
  0.037989  0.022148  0.078981      2.000000
  0.076620  0.000000  0.092346      2.000000
  0.115251 -0.022148  0.105711      2.000000
 -0.000642  0.044296  0.065616      2.000000
  0.076620  0.044296  0.092346      2.000000
  0.115251  0.022148  0.105711      2.000000
  0.153883  0.000000  0.119076      2.000000
  0.037989  0.066444  0.078981      2.000000
 -0.039274 -0.022148  0.052250      2.000000
 -0.000642 -0.044296  0.065616      2.000000
  0.037989 -0.066444  0.078981      2.000000
 -0.077905  0.000000  0.038885      2.000000
 
 
 Subroutine IBZKPT_HF returns following result:
 ==============================================
 
 Found     80 k-points in 1st BZ
 the following     80 k-points will be used (e.g. in the exchange kernel)
 Following reciprocal coordinates:   # in IRBZ
  0.000000  0.000000  0.000000       1 t-inv F
  0.250000  0.000000  0.000000       2 t-inv F
  0.500000  0.000000  0.000000       3 t-inv F
  0.000000  0.250000  0.000000       4 t-inv F
  0.250000  0.250000  0.000000       5 t-inv F
  0.500000  0.250000 -0.000000       6 t-inv F
 -0.250000  0.250000  0.000000       7 t-inv F
  0.000000  0.500000  0.000000       8 t-inv F
  0.250000  0.500000 -0.000000       9 t-inv F
  0.500000  0.500000  0.000000      10 t-inv F
 -0.000000 -0.000000  0.200000      11 t-inv F
  0.250000  0.000000  0.200000      12 t-inv F
  0.500000  0.000000  0.200000      13 t-inv F
 -0.250000 -0.000000  0.200000      14 t-inv F
  0.000000  0.250000  0.200000      15 t-inv F
  0.250000  0.250000  0.200000      16 t-inv F
  0.500000  0.250000  0.200000      17 t-inv F
 -0.250000  0.250000  0.200000      18 t-inv F
  0.000000  0.500000  0.200000      19 t-inv F
  0.250000  0.500000  0.200000      20 t-inv F
  0.500000  0.500000  0.200000      21 t-inv F
 -0.250000  0.500000  0.200000      22 t-inv F
 -0.000000 -0.250000  0.200000      23 t-inv F
  0.250000 -0.250000  0.200000      24 t-inv F
  0.500000 -0.250000  0.200000      25 t-inv F
 -0.250000 -0.250000  0.200000      26 t-inv F
 -0.000000 -0.000000  0.400000      27 t-inv F
  0.250000  0.000000  0.400000      28 t-inv F
  0.500000  0.000000  0.400000      29 t-inv F
 -0.250000  0.000000  0.400000      30 t-inv F
  0.000000  0.250000  0.400000      31 t-inv F
  0.250000  0.250000  0.400000      32 t-inv F
  0.500000  0.250000  0.400000      33 t-inv F
 -0.250000  0.250000  0.400000      34 t-inv F
  0.000000  0.500000  0.400000      35 t-inv F
  0.250000  0.500000  0.400000      36 t-inv F
  0.500000  0.500000  0.400000      37 t-inv F
 -0.250000  0.500000  0.400000      38 t-inv F
  0.000000 -0.250000  0.400000      39 t-inv F
  0.250000 -0.250000  0.400000      40 t-inv F
  0.500000 -0.250000  0.400000      41 t-inv F
 -0.250000 -0.250000  0.400000      42 t-inv F
 -0.250000 -0.000000 -0.000000       2 t-inv T
 -0.000000 -0.250000 -0.000000       4 t-inv T
 -0.250000 -0.250000  0.000000       5 t-inv T
 -0.500000 -0.250000  0.000000       6 t-inv T
  0.250000 -0.250000  0.000000       7 t-inv T
 -0.250000 -0.500000  0.000000       9 t-inv T
  0.000000  0.000000 -0.200000      11 t-inv T
 -0.250000 -0.000000 -0.200000      12 t-inv T
 -0.500000 -0.000000 -0.200000      13 t-inv T
  0.250000  0.000000 -0.200000      14 t-inv T
 -0.000000 -0.250000 -0.200000      15 t-inv T
 -0.250000 -0.250000 -0.200000      16 t-inv T
 -0.500000 -0.250000 -0.200000      17 t-inv T
  0.250000 -0.250000 -0.200000      18 t-inv T
 -0.000000 -0.500000 -0.200000      19 t-inv T
 -0.250000 -0.500000 -0.200000      20 t-inv T
 -0.500000 -0.500000 -0.200000      21 t-inv T
  0.250000 -0.500000 -0.200000      22 t-inv T
  0.000000  0.250000 -0.200000      23 t-inv T
 -0.250000  0.250000 -0.200000      24 t-inv T
 -0.500000  0.250000 -0.200000      25 t-inv T
  0.250000  0.250000 -0.200000      26 t-inv T
  0.000000  0.000000 -0.400000      27 t-inv T
 -0.250000 -0.000000 -0.400000      28 t-inv T
 -0.500000 -0.000000 -0.400000      29 t-inv T
  0.250000 -0.000000 -0.400000      30 t-inv T
 -0.000000 -0.250000 -0.400000      31 t-inv T
 -0.250000 -0.250000 -0.400000      32 t-inv T
 -0.500000 -0.250000 -0.400000      33 t-inv T
  0.250000 -0.250000 -0.400000      34 t-inv T
 -0.000000 -0.500000 -0.400000      35 t-inv T
 -0.250000 -0.500000 -0.400000      36 t-inv T
 -0.500000 -0.500000 -0.400000      37 t-inv T
  0.250000 -0.500000 -0.400000      38 t-inv T
 -0.000000  0.250000 -0.400000      39 t-inv T
 -0.250000  0.250000 -0.400000      40 t-inv T
 -0.500000  0.250000 -0.400000      41 t-inv T
  0.250000  0.250000 -0.400000      42 t-inv T


--------------------------------------------------------------------------------------------------------




 Dimension of arrays:
   k-points           NKPTS =     42   k-points in BZ     NKDIM =     80   number of bands    NBANDS=     80
   number of dos      NEDOS =    301   number of ions     NIONS =     12
   non local maximal  LDIM  =      6   non local SUM 2l+1 LMDIM =     18
   total plane-waves  NPLWV =  32768
   max r-space proj   IRMAX =      1   max aug-charges    IRDMAX=   8224
   dimension x,y,z NGX =    32 NGY =   32 NGZ =   32
   dimension x,y,z NGXF=    64 NGYF=   64 NGZF=   64
   support grid    NGXF=    64 NGYF=   64 NGZF=   64
   ions per type =               4   2   6
 NGX,Y,Z   is equivalent  to a cutoff of   8.18,  8.18,  8.27 a.u.
 NGXF,Y,Z  is equivalent  to a cutoff of  16.37, 16.37, 16.55 a.u.


 I would recommend the setting:
   dimension x,y,z NGX =    32 NGY =   32 NGZ =   31
 SYSTEM =  CGS                                     
 POSCAR =  Cu Ge S                                 

 Startparameter for this run:
   NWRITE =      2    write-flag & timer
   PREC   = normal    normal or accurate (medium, high low for compatibility)
   ISTART =      1    job   : 0-new  1-cont  2-samecut
   ICHARG =      0    charge: 1-file 2-atom 10-const
   ISPIN  =      1    spin polarized calculation?
   LNONCOLLINEAR =      F non collinear calculations
   LSORBIT =      F    spin-orbit coupling
   INIWAV =      1    electr: 0-lowe 1-rand  2-diag
   LASPH  =      F    aspherical Exc in radial PAW
   METAGGA=      F    non-selfconsistent MetaGGA calc.

 Electronic Relaxation 1
   ENCUT  =  400.0 eV  29.40 Ry    5.42 a.u.  10.60 10.60 10.48*2*pi/ulx,y,z
   ENINI  =  400.0     initial cutoff
   ENAUG  =  758.2 eV  augmentation charge cutoff
   NELM   =     60;   NELMIN=  2; NELMDL=  0     # of ELM steps 
   EDIFF  = 0.1E-04   stopping-criterion for ELM
   LREAL  =      F    real-space projection
   NLSPLINE    = F    spline interpolate recip. space projectors
   LCOMPAT=      F    compatible to vasp.4.4
   GGA_COMPAT  = T    GGA compatible to vasp.4.4-vasp.4.6
   LMAXPAW     = -100 max onsite density
   LMAXMIX     =    2 max onsite mixed and CHGCAR
   VOSKOWN=      0    Vosko Wilk Nusair interpolation
   ROPT   =    0.00000   0.00000   0.00000
 Ionic relaxation
   EDIFFG = 0.1E-03   stopping-criterion for IOM
   NSW    =      0    number of steps for IOM
   NBLOCK =      1;   KBLOCK =      1    inner block; outer block 
   IBRION =     -1    ionic relax: 0-MD 1-quasi-New 2-CG
   NFREE  =      0    steps in history (QN), initial steepest desc. (CG)
   ISIF   =      0    stress and relaxation
   IWAVPR =     10    prediction:  0-non 1-charg 2-wave 3-comb
   ISYM   =      3    0-nonsym 1-usesym 2-fastsym
   LCORR  =      T    Harris-Foulkes like correction to forces

   POTIM  = 0.5000    time-step for ionic-motion
   TEIN   =    0.0    initial temperature
   TEBEG  =    0.0;   TEEND  =   0.0 temperature during run
   SMASS  =  -3.00    Nose mass-parameter (am)
   estimated Nose-frequenzy (Omega)   =  0.10E-29 period in steps =****** mass=  -0.966E-27a.u.
   SCALEE = 1.0000    scale energy and forces
   NPACO  =    256;   APACO  = 16.0  distance and # of slots for P.C.
   PSTRESS=    0.0 pullay stress

  Mass of Ions in am
   POMASS =  63.55 72.61 32.07
  Ionic Valenz
   ZVAL   =  17.00  4.00  6.00
  Atomic Wigner-Seitz radii
   RWIGS  =  -1.00 -1.00 -1.00
  virtual crystal weights 
   VCA    =   1.00  1.00  1.00
   NELECT =     112.0000    total number of electrons
   NUPDOWN=      -1.0000    fix difference up-down

 DOS related values:
   EMIN   =  10.00;   EMAX   =-10.00  energy-range for DOS
   EFERMI =   0.00
   ISMEAR =     1;   SIGMA  =   0.10  broadening in eV -4-tet -1-fermi 0-gaus

 Electronic relaxation 2 (details)
   IALGO  =     53    algorithm
   LDIAG  =      T    sub-space diagonalisation (order eigenvalues)
   LSUBROT=      T    optimize rotation matrix (better conditioning)
   TURBO    =      0    0=normal 1=particle mesh
   IRESTART =      0    0=no restart 2=restart with 2 vectors
   NREBOOT  =      0    no. of reboots
   NMIN     =      0    reboot dimension
   EREF     =   0.00    reference energy to select bands
   IMIX   =      4    mixing-type and parameters
     AMIX     =   0.40;   BMIX     =  1.00
     AMIX_MAG =   1.60;   BMIX_MAG =  1.00
     AMIN     =   0.10
     WC   =   100.;   INIMIX=   1;  MIXPRE=   1;  MAXMIX= -45

 Intra band minimization:
   WEIMIN = 0.0000     energy-eigenvalue tresh-hold
   EBREAK =  0.31E-07  absolut break condition
   DEPER  =   0.30     relativ break condition  

   TIME   =   0.40     timestep for ELM

  volume/ion in A,a.u.               =      18.49       124.79
  Fermi-wavevector in a.u.,A,eV,Ry     =   1.303450  2.463163 23.116052  1.698982
  Thomas-Fermi vector in A             =   2.434451
 
 Write flags
   LWAVE  =      T    write WAVECAR
   LCHARG =      T    write CHGCAR
   LVTOT  =      F    write LOCPOT, total local potential
   LVHAR  =      F    write LOCPOT, Hartree potential only
   LELF   =      F    write electronic localiz. function (ELF)
   LORBIT =      0    0 simple, 1 ext, 2 COOP (PROOUT)


 Dipole corrections
   LMONO  =      F    monopole corrections only (constant potential shift)
   LDIPOL =      F    correct potential (dipole corrections)
   IDIPOL =      0    1-x, 2-y, 3-z, 4-all directions 
   EPSILON=  1.0000000 bulk dielectric constant

 Exchange correlation treatment:
   GGA     =    PE    GGA type
   LEXCH   =     8    internal setting for exchange type
   VOSKOWN=      0    Vosko Wilk Nusair interpolation
   EXXOEP  =     0    0=HF, 1=EXX-LHF (local Hartree Fock) 2=EXX OEP
   LHFCALC =     T    Hartree Fock is set to
   LSYMGRAD=     F    symmetrize gradient (conserves proper symmetry)
   PRECFOCK=fast      Normal, Fast or Accurate (Low or Medium for compatibility)
   LRHFCALC=     F    long range Hartree Fock
   LRSCOR  =     F    long range correlation only (use DFT for short range part)
   LTHOMAS =     F    Thomas Fermi screening in HF
   LMODELHF=     F    short range full HF, long range fraction AEXX
   ENCUT4O =  -1.0   cutoff for four orbital integrals eV
   LMAXFOCK=     4    L truncation for augmentation on plane wave grid
   LMAXFOCKAE=  -1    L truncation for all-electron charge restoration on plane wave grid
   NMAXFOCKAE=   1    number of basis functions for all-electron charge restoration
   LFOCKAEDFT=     F  apply the AE augmentation even for DFT
   NKREDX  =     1    reduce k-point grid by
   NKREDY  =     1    reduce k-point grid by
   NKREDZ  =     1    reduce k-point grid by
   SHIFTRED=     F    shift reduced grid of Gamma
   HFKIDENT=     F    idential grid for each k-point
   ODDONLY =     F    use only odd q-grid points
   EVENONLY=     F    use only even q-grid points
   HFALPHA =   -1.0000 decay constant for conv. correction
   MCALPHA =    0.0000 extent of test-charge in conv. correction in multipole expansion
   AEXX    =    0.2500 exact exchange contribution
   HFSCREEN=    0.2000 screening length (either q_TF or 0.3 A-1)
   HFSCREENC=   0.2000 screening length for correlation (either q_TF or 0.3 A-1)
   HFRCUT  =    0.0000 spherical cutoff for potential kernel
   ALDAX   =    0.7500 LDA exchange part
   AGGAX   =    0.7500 GGA exchange part
   ALDAC   =    1.0000 LDA correlation
   AGGAC   =    1.0000 GGA correlation
   NBANDSGWLOW=     1    first orbital included in HF term
 Linear response parameters
   LEPSILON=     F    determine dielectric tensor
   LRPA    =     F    only Hartree local field effects (RPA)
   LNABLA  =     F    use nabla operator in PAW spheres
   LVEL    =     F    velocity operator in full k-point grid
   LINTERFAST=   F  fast interpolation
   KINTER  =     0    interpolate to denser k-point grid
   CSHIFT  =0.1000    complex shift for real part using Kramers Kronig
   OMEGAMAX=  -1.0    maximum frequency
   DEG_THRESHOLD= 0.2000000E-02 threshold for treating states as degnerate
   RTIME   =    0.100 relaxation time in fs

 Orbital magnetization related:
   ORBITALMAG=     F  switch on orbital magnetization
   LCHIMAG   =     F  perturbation theory with respect to B field
   DQ        =  0.001000  dq finite difference perturbation B field



--------------------------------------------------------------------------------------------------------


 Static calculation
 charge density and potential will be updated during run
 non-spin polarized calculation
 Conjugate gradient for all bands, subspace preconditioning
 perform sub-space diagonalisation
    before iterative eigenvector-optimisation
 modified Broyden-mixing scheme, WC =      100.0
 initial mixing is a Kerker type mixing with AMIX =  0.4000 and BMIX =      1.0000
 Hartree-type preconditioning will be used
 using additional bands           24
 reciprocal scheme for non local part
 use partial core corrections
 no Harris-corrections to forces 
 use gradient corrections 
 use of overlap-Matrix (Vanderbilt PP)
 Methfessel and Paxton  Order N= 1 SIGMA  =   0.10


--------------------------------------------------------------------------------------------------------


  energy-cutoff  :      400.00
  volume of cell :      221.90
      direct lattice vectors                 reciprocal lattice vectors
     3.224796000 -5.643830000  0.031572000     0.154525165 -0.088592321  0.053460880
     3.224796000  5.643830000  0.031572000     0.154525165  0.088592321  0.053460880
    -2.101946000  0.000000000  6.075537000    -0.001606004  0.000000000  0.164038877

  length of vectors
     6.500240234  6.500240234  6.428866683     0.185969598  0.185969598  0.164046738


 
 old parameters found on file WAVECAR:
  energy-cutoff  :      400.00
  volume of cell :      222.35
      direct lattice vectors                 reciprocal lattice vectors
     3.227235519 -5.642745207  0.030241751     0.154430495 -0.088609353  0.053450002
     3.227235519  5.642745207  0.030241751     0.154430495  0.088609353  0.053450002
    -2.106135241  0.000000000  6.085154262    -0.001534965  0.000000000  0.163803104

  length of vectors

 
 k-points in units of 2pi/SCALE and weight: pymatgen 4.7.6+ generated KPOINTS with g
   0.00000000  0.00000000  0.00000000       0.013
   0.03863129 -0.02214808  0.01336522       0.025
   0.07726258 -0.04429616  0.02673044       0.013
   0.03863129  0.02214808  0.01336522       0.025
   0.07726258  0.00000000  0.02673044       0.025
   0.11589387 -0.02214808  0.04009566       0.025
   0.00000000  0.04429616  0.00000000       0.025
   0.07726258  0.04429616  0.02673044       0.013
   0.11589387  0.02214808  0.04009566       0.025
   0.15452516  0.00000000  0.05346088       0.013
  -0.00032120  0.00000000  0.03280778       0.025
   0.03831009 -0.02214808  0.04617300       0.025
   0.07694138 -0.04429616  0.05953822       0.025
  -0.03895249  0.02214808  0.01944256       0.025
   0.03831009  0.02214808  0.04617300       0.025
   0.07694138  0.00000000  0.05953822       0.025
   0.11557267 -0.02214808  0.07290344       0.025
  -0.00032120  0.04429616  0.03280778       0.025
   0.07694138  0.04429616  0.05953822       0.025
   0.11557267  0.02214808  0.07290344       0.025
   0.15420396  0.00000000  0.08626865       0.025
   0.03831009  0.06644424  0.04617300       0.025
  -0.03895249 -0.02214808  0.01944256       0.025
  -0.00032120 -0.04429616  0.03280778       0.025
   0.03831009 -0.06644424  0.04617300       0.025
  -0.07758378  0.00000000  0.00607734       0.025
  -0.00064240  0.00000000  0.06561555       0.025
   0.03798889 -0.02214808  0.07898077       0.025
   0.07662018 -0.04429616  0.09234599       0.025
  -0.03927369  0.02214808  0.05225033       0.025
   0.03798889  0.02214808  0.07898077       0.025
   0.07662018  0.00000000  0.09234599       0.025
   0.11525147 -0.02214808  0.10571121       0.025
  -0.00064240  0.04429616  0.06561555       0.025
   0.07662018  0.04429616  0.09234599       0.025
   0.11525147  0.02214808  0.10571121       0.025
   0.15388276  0.00000000  0.11907643       0.025
   0.03798889  0.06644424  0.07898077       0.025
  -0.03927369 -0.02214808  0.05225033       0.025
  -0.00064240 -0.04429616  0.06561555       0.025
   0.03798889 -0.06644424  0.07898077       0.025
  -0.07790498  0.00000000  0.03888511       0.025
 
 k-points in reciprocal lattice and weights: pymatgen 4.7.6+ generated KPOINTS with g
   0.00000000  0.00000000  0.00000000       0.013
   0.25000000  0.00000000  0.00000000       0.025
   0.50000000  0.00000000  0.00000000       0.013
   0.00000000  0.25000000  0.00000000       0.025
   0.25000000  0.25000000  0.00000000       0.025
   0.50000000  0.25000000 -0.00000000       0.025
  -0.25000000  0.25000000  0.00000000       0.025
   0.00000000  0.50000000  0.00000000       0.013
   0.25000000  0.50000000 -0.00000000       0.025
   0.50000000  0.50000000  0.00000000       0.013
  -0.00000000 -0.00000000  0.20000000       0.025
   0.25000000  0.00000000  0.20000000       0.025
   0.50000000  0.00000000  0.20000000       0.025
  -0.25000000 -0.00000000  0.20000000       0.025
   0.00000000  0.25000000  0.20000000       0.025
   0.25000000  0.25000000  0.20000000       0.025
   0.50000000  0.25000000  0.20000000       0.025
  -0.25000000  0.25000000  0.20000000       0.025
   0.00000000  0.50000000  0.20000000       0.025
   0.25000000  0.50000000  0.20000000       0.025
   0.50000000  0.50000000  0.20000000       0.025
  -0.25000000  0.50000000  0.20000000       0.025
  -0.00000000 -0.25000000  0.20000000       0.025
   0.25000000 -0.25000000  0.20000000       0.025
   0.50000000 -0.25000000  0.20000000       0.025
  -0.25000000 -0.25000000  0.20000000       0.025
  -0.00000000 -0.00000000  0.40000000       0.025
   0.25000000  0.00000000  0.40000000       0.025
   0.50000000  0.00000000  0.40000000       0.025
  -0.25000000  0.00000000  0.40000000       0.025
   0.00000000  0.25000000  0.40000000       0.025
   0.25000000  0.25000000  0.40000000       0.025
   0.50000000  0.25000000  0.40000000       0.025
  -0.25000000  0.25000000  0.40000000       0.025
   0.00000000  0.50000000  0.40000000       0.025
   0.25000000  0.50000000  0.40000000       0.025
   0.50000000  0.50000000  0.40000000       0.025
  -0.25000000  0.50000000  0.40000000       0.025
   0.00000000 -0.25000000  0.40000000       0.025
   0.25000000 -0.25000000  0.40000000       0.025
   0.50000000 -0.25000000  0.40000000       0.025
  -0.25000000 -0.25000000  0.40000000       0.025
 
 position of ions in fractional coordinates (direct lattice) 
   0.61844300  0.12117100  0.11953300
   0.12117100  0.61844300  0.61953300
   0.96295700  0.79032200  0.11881300
   0.79032200  0.96295700  0.61881300
   0.43973200  0.26728100  0.60060248
   0.26728100  0.43973200  0.09904700
   0.07949800  0.91167500  0.49736300
   0.57140300  0.41236400  0.98018400
   0.73711100  0.25006200  0.49504900
   0.41236400  0.57140300  0.48018400
   0.91167500  0.07949800  0.99736300
   0.25006200  0.73711100  0.99504900
 
 position of ions in cartesian coordinates  (Angst):
   2.13385236 -2.80651863  0.74957826
   1.08287936  2.80651863  3.78734676
   5.40422860 -0.97432259  0.77720730
   4.35325560  0.97432259  3.81497580
   1.01753871 -0.97328413  3.67130443
   2.07178125  0.97328413  0.62408553
   2.15090056  4.69666552  3.05304062
   1.11215405 -0.89758908  5.98620365
   2.14286528 -2.74882176  3.03885554
   2.16312705  0.89758908  2.94843515
   1.09992756 -4.69666552  6.09080912
   1.09189228  2.74882176  6.07662404
 


--------------------------------------------------------------------------------------------------------


 k-point  1 :   0.0000 0.0000 0.0000  plane waves:    4051
 k-point  2 :   0.2500 0.0000 0.0000  plane waves:    4032
 k-point  3 :   0.5000 0.0000 0.0000  plane waves:    4030
 k-point  4 :   0.0000 0.2500 0.0000  plane waves:    4032
 k-point  5 :   0.2500 0.2500 0.0000  plane waves:    4038
 k-point  6 :   0.5000 0.2500-0.0000  plane waves:    4037
 k-point  7 :  -0.2500 0.2500 0.0000  plane waves:    4042
 k-point  8 :   0.0000 0.5000 0.0000  plane waves:    4030
 k-point  9 :   0.2500 0.5000-0.0000  plane waves:    4037
 k-point 10 :   0.5000 0.5000 0.0000  plane waves:    4026
 k-point 11 :  -0.0000-0.0000 0.2000  plane waves:    4046
 k-point 12 :   0.2500 0.0000 0.2000  plane waves:    4034
 k-point 13 :   0.5000 0.0000 0.2000  plane waves:    4025
 k-point 14 :  -0.2500-0.0000 0.2000  plane waves:    4044
 k-point 15 :   0.0000 0.2500 0.2000  plane waves:    4034
 k-point 16 :   0.2500 0.2500 0.2000  plane waves:    4017
 k-point 17 :   0.5000 0.2500 0.2000  plane waves:    4039
 k-point 18 :  -0.2500 0.2500 0.2000  plane waves:    4042
 k-point 19 :   0.0000 0.5000 0.2000  plane waves:    4025
 k-point 20 :   0.2500 0.5000 0.2000  plane waves:    4039
 k-point 21 :   0.5000 0.5000 0.2000  plane waves:    4030
 k-point 22 :  -0.2500 0.5000 0.2000  plane waves:    4030
 k-point 23 :  -0.0000-0.2500 0.2000  plane waves:    4044
 k-point 24 :   0.2500-0.2500 0.2000  plane waves:    4042
 k-point 25 :   0.5000-0.2500 0.2000  plane waves:    4030
 k-point 26 :  -0.2500-0.2500 0.2000  plane waves:    4020
 k-point 27 :  -0.0000-0.0000 0.4000  plane waves:    4027
 k-point 28 :   0.2500 0.0000 0.4000  plane waves:    4034
 k-point 29 :   0.5000 0.0000 0.4000  plane waves:    4013
 k-point 30 :  -0.2500 0.0000 0.4000  plane waves:    4042
 k-point 31 :   0.0000 0.2500 0.4000  plane waves:    4034
 k-point 32 :   0.2500 0.2500 0.4000  plane waves:    4009
 k-point 33 :   0.5000 0.2500 0.4000  plane waves:    4026
 k-point 34 :  -0.2500 0.2500 0.4000  plane waves:    4027
 k-point 35 :   0.0000 0.5000 0.4000  plane waves:    4013
 k-point 36 :   0.2500 0.5000 0.4000  plane waves:    4026
 k-point 37 :   0.5000 0.5000 0.4000  plane waves:    4037
 k-point 38 :  -0.2500 0.5000 0.4000  plane waves:    4022
 k-point 39 :   0.0000-0.2500 0.4000  plane waves:    4042
 k-point 40 :   0.2500-0.2500 0.4000  plane waves:    4027
 k-point 41 :   0.5000-0.2500 0.4000  plane waves:    4022
 k-point 42 :  -0.2500-0.2500 0.4000  plane waves:    4015

 maximum and minimum number of plane-waves per node :      4051     4009

 maximum number of plane-waves:      4051
 maximum index in each direction: 
   IXMAX=   10   IYMAX=   10   IZMAX=   10
   IXMIN=  -11   IYMIN=  -11   IZMIN=  -10

 WARNING: aliasing errors must be expected set NGX to  44 to avoid them
 WARNING: aliasing errors must be expected set NGY to  44 to avoid them
 WARNING: aliasing errors must be expected set NGZ to  42 to avoid them
 aliasing errors are usually negligible using standard VASP settings
 and one can safely disregard these warnings

 serial   3D FFT for wavefunctions
 parallel 3D FFT for charge:
    minimum data exchange during FFTs selected (reduces bandwidth)


 FFT grid for exact exchange (Hartree Fock) 
  NGX = 24; NGY = 24; NGZ = 24

 
 Radii for the augmentation spheres in the non-local exchange
 for species   1 augmentation radius   1.120 (default was   0.830)
       energy cutoff for augmentation   1600.0
 for species   2 augmentation radius   1.570 (default was   1.163)
       energy cutoff for augmentation   1600.0
 for species   3 augmentation radius   1.034 (default was   0.970)
       energy cutoff for augmentation   1600.0

 total amount of memory used by VASP on root node   151696. kBytes
========================================================================

   base      :      30000. kBytes
   nonl-proj :      74517. kBytes
   fftplans  :        702. kBytes
   grid      :       2400. kBytes
   one-center:        186. kBytes
   HF        :        194. kBytes
   nonlr-proj:       1121. kBytes
   wavefun   :      42576. kBytes
 
 Broyden mixing: mesh for mixing (old mesh)
   NGX = 21   NGY = 21   NGZ = 21
  (NGX  = 64   NGY  = 64   NGZ  = 64)
  gives a total of   9261 points

 charge density for first step will be calculated from the start-wavefunctions


--------------------------------------------------------------------------------------------------------


 Maximum index for augmentation-charges          489 (set IRDMAX)


--------------------------------------------------------------------------------------------------------


 initial charge from wavefunction
 First call to EWALD:  gamma=   0.293
 Maximum number of real-space cells 3x 3x 3
 Maximum number of reciprocal cells 3x 3x 3

 FEWALD executed in parallel
    FEWALD:  cpu time    0.00: real time    0.00


----------------------------------------- Iteration    1(   1)  ---------------------------------------


    POTLOK:  cpu time    0.06: real time    0.06
    SETDIJ:  cpu time    1.91: real time    1.91
 
    SUBROT:  cpu time    0.81: real time    0.81
    SUBROT:  cpu time    0.38: real time    0.38
    SUBROT:  cpu time    0.37: real time    0.37
    --------------------------------------------
    SUBRT+:  cpu time    1.57: real time    1.57

 Broyden mixing:
  rms(total) = 0.31718E-01    rms(broyden)= 0.31703E-01
  rms(prec ) = 0.47226E-01
  weight for this iteration     100.00

 eigenvalues of (default mixing * dielectric matrix)
  average eigenvalue GAMMA=   1.7282
  1.0056  2.4508
 
    TRIAL :  cpu time  228.15: real time  228.04
    CORREC:  cpu time    0.00: real time    0.00
    CHARGE:  cpu time    0.10: real time    0.10
    --------------------------------------------
      LOOP:  cpu time  230.23: real time  230.12

 eigenvalue-minimisations  :     0
 total energy-change (2. order) : 0.7552210E+02  (-0.2131761E+03)
 number of electron     112.0001480 magnetization 
 augmentation part       38.9112554 magnetization 

 Free energy of the ion-electron system (eV)
  ---------------------------------------------------
  alpha Z        PSCENC =       339.31929130
  Ewald energy   TEWEN  =     -9064.70487798
  -1/2 Hartree   DENC   =     -8067.42776007
  -exchange  EXHF       =       327.44974337
  -V(xc)+E(xc)   XCENC  =       369.90469275
  PAW double counting   =     16899.23326280   -17392.04791722
  entropy T*S    EENTRO =        -0.00144167
  eigenvalues    EBANDS =     -1657.18802304
  atomic energy  EATOM  =     18320.98302006
  ---------------------------------------------------
  free energy    TOTEN  =        75.52209526 eV

  energy without entropy =       75.52353693  energy(sigma->0) =       75.52257582


--------------------------------------------------------------------------------------------------------




----------------------------------------- Iteration    1(   2)  ---------------------------------------


    POTLOK:  cpu time    0.05: real time    0.05
    SETDIJ:  cpu time    1.92: real time    1.92
 
    SUBROT:  cpu time    1.69: real time    1.69
    SUBROT:  cpu time    0.39: real time    0.39
    SUBROT:  cpu time    0.39: real time    0.39
    SUBROT:  cpu time    0.38: real time    0.38
    --------------------------------------------
    SUBRT+:  cpu time    2.85: real time    2.85

 Broyden mixing:
  rms(total) = 0.27731E-01    rms(broyden)= 0.27721E-01
  rms(prec ) = 0.50750E-01
  weight for this iteration     100.00

 eigenvalues of (default mixing * dielectric matrix)
  average eigenvalue GAMMA=   1.5498
  2.5440  1.2493  0.8560
 
    TRIAL :  cpu time  237.40: real time  237.20
    CORREC:  cpu time    0.00: real time    0.00
    CHARGE:  cpu time    0.10: real time    0.10
    --------------------------------------------
      LOOP:  cpu time  239.47: real time  239.28

 eigenvalue-minimisations  :     0
 total energy-change (2. order) :-0.8390483E+02  (-0.1468718E+03)
 number of electron     112.0001385 magnetization 
 augmentation part       35.4529890 magnetization 

 Free energy of the ion-electron system (eV)
  ---------------------------------------------------
  alpha Z        PSCENC =       339.31929130
  Ewald energy   TEWEN  =     -9064.70487798
  -1/2 Hartree   DENC   =     -8370.39825044
  -exchange  EXHF       =       338.95671727
  -V(xc)+E(xc)   XCENC  =       377.31898786
  PAW double counting   =     17400.46501873   -17939.58285264
  entropy T*S    EENTRO =        -0.00072524
  eigenvalues    EBANDS =     -1410.73834941
  atomic energy  EATOM  =     18320.98302006
  ---------------------------------------------------
  free energy    TOTEN  =        -8.38273693 eV

  energy without entropy =       -8.38201170  energy(sigma->0) =       -8.38249519


--------------------------------------------------------------------------------------------------------




----------------------------------------- Iteration    1(   3)  ---------------------------------------


    POTLOK:  cpu time    0.05: real time    0.05
    SETDIJ:  cpu time    1.92: real time    1.92
 
    SUBROT:  cpu time    1.12: real time    1.12
    SUBROT:  cpu time    0.37: real time    0.37
    SUBROT:  cpu time    0.39: real time    0.39
    SUBROT:  cpu time    0.38: real time    0.38
    --------------------------------------------
    SUBRT+:  cpu time    2.26: real time    2.27

 Broyden mixing:
  rms(total) = 0.28080E-01    rms(broyden)= 0.28069E-01
  rms(prec ) = 0.52325E-01
  weight for this iteration     100.00

 eigenvalues of (default mixing * dielectric matrix)
  average eigenvalue GAMMA=   1.7744
  1.0115  2.4991  1.8125
 
    TRIAL :  cpu time  236.58: real time  236.37
    CORREC:  cpu time    0.00: real time    0.00
    CHARGE:  cpu time    0.11: real time    0.11
    --------------------------------------------
      LOOP:  cpu time  238.67: real time  238.47

 eigenvalue-minimisations  :     0
 total energy-change (2. order) :-0.6762703E+01  (-0.2038488E+03)
 number of electron     112.0001510 magnetization 
 augmentation part       39.6858680 magnetization 

 Free energy of the ion-electron system (eV)
  ---------------------------------------------------
  alpha Z        PSCENC =       339.31929130
  Ewald energy   TEWEN  =     -9064.70487798
  -1/2 Hartree   DENC   =     -7477.42903001
  -exchange  EXHF       =       324.98045353
  -V(xc)+E(xc)   XCENC  =       357.38745137
  PAW double counting   =     15149.07251526   -15578.53141279
  entropy T*S    EENTRO =         0.00015095
  eigenvalues    EBANDS =     -2386.22212532
  atomic energy  EATOM  =     18320.98302006
  ---------------------------------------------------
  free energy    TOTEN  =       -15.14543981 eV

  energy without entropy =      -15.14559076  energy(sigma->0) =      -15.14549013


--------------------------------------------------------------------------------------------------------




----------------------------------------- Iteration    1(   4)  ---------------------------------------


    POTLOK:  cpu time    0.06: real time    0.06
    SETDIJ:  cpu time    1.89: real time    1.88
 
    SUBROT:  cpu time    0.89: real time    0.89
    SUBROT:  cpu time    0.39: real time    0.39
    SUBROT:  cpu time    0.38: real time    0.38
    SUBROT:  cpu time    0.45: real time    0.45
    SUBROT:  cpu time    0.40: real time    0.40
    --------------------------------------------
    SUBRT+:  cpu time    2.52: real time    2.54

 Broyden mixing:
  rms(total) = 0.11443E+00    rms(broyden)= 0.11423E+00
  rms(prec ) = 0.20168E+00
  weight for this iteration     100.00

 eigenvalues of (default mixing * dielectric matrix)
  average eigenvalue GAMMA=   1.2157
  2.5469  1.2748  0.6510  0.3901
 
    TRIAL :  cpu time  240.58: real time  240.38
    CORREC:  cpu time    0.00: real time    0.00
    CHARGE:  cpu time    0.06: real time    0.06
    --------------------------------------------
      LOOP:  cpu time  242.58: real time  242.39

 eigenvalue-minimisations  :     0
 total energy-change (2. order) :-0.7467624E+01  (-0.1074581E+03)
 number of electron     112.0001430 magnetization 
 augmentation part       37.2436620 magnetization 

 Free energy of the ion-electron system (eV)
  ---------------------------------------------------
  alpha Z        PSCENC =       339.31929130
  Ewald energy   TEWEN  =     -9064.70487798
  -1/2 Hartree   DENC   =     -8543.62191961
  -exchange  EXHF       =       342.99977804
  -V(xc)+E(xc)   XCENC  =       381.66320732
  PAW double counting   =     17633.95885146   -18214.75196011
  entropy T*S    EENTRO =         0.00036327
  eigenvalues    EBANDS =     -1218.45860519
  atomic energy  EATOM  =     18320.98302006
  ---------------------------------------------------
  free energy    TOTEN  =       -22.61306377 eV

  energy without entropy =      -22.61342705  energy(sigma->0) =      -22.61318486


--------------------------------------------------------------------------------------------------------




----------------------------------------- Iteration    1(   5)  ---------------------------------------


    POTLOK:  cpu time    0.15: real time    0.15
    SETDIJ:  cpu time    1.91: real time    1.91
 
    SUBROT:  cpu time    0.80: real time    0.80
    SUBROT:  cpu time    0.40: real time    0.40
    SUBROT:  cpu time    0.42: real time    0.42
    SUBROT:  cpu time    0.38: real time    0.39
    --------------------------------------------
    SUBRT+:  cpu time    2.01: real time    2.02

 Broyden mixing:
  rms(total) = 0.46508E-01    rms(broyden)= 0.46498E-01
  rms(prec ) = 0.94159E-01
  weight for this iteration     100.00

 eigenvalues of (default mixing * dielectric matrix)
  average eigenvalue GAMMA=   1.6785
  2.4614  0.9363  1.6378
 
    TRIAL :  cpu time  240.27: real time  240.08
    CORREC:  cpu time    0.00: real time    0.00
    CHARGE:  cpu time    0.11: real time    0.11
    --------------------------------------------
      LOOP:  cpu time  242.44: real time  242.25

 eigenvalue-minimisations  :     0
 total energy-change (2. order) :-0.3820203E+02  (-0.1505832E+02)
 number of electron     112.0001430 magnetization 
 augmentation part       37.2434035 magnetization 

 Free energy of the ion-electron system (eV)
  ---------------------------------------------------
  alpha Z        PSCENC =       339.31929130
  Ewald energy   TEWEN  =     -9064.70487798
  -1/2 Hartree   DENC   =     -8008.33632670
  -exchange  EXHF       =       336.38437505
  -V(xc)+E(xc)   XCENC  =       368.39758192
  PAW double counting   =     15869.99814426   -16339.42698677
  entropy T*S    EENTRO =         0.00064069
  eigenvalues    EBANDS =     -1883.42967682
  atomic energy  EATOM  =     18320.98302006
  ---------------------------------------------------
  free energy    TOTEN  =       -60.81509240 eV

  energy without entropy =      -60.81573310  energy(sigma->0) =      -60.81530597


--------------------------------------------------------------------------------------------------------




----------------------------------------- Iteration    1(   6)  ---------------------------------------


    POTLOK:  cpu time    0.05: real time    0.05
    SETDIJ:  cpu time    1.92: real time    1.92
 
    SUBROT:  cpu time    0.80: real time    0.81
    SUBROT:  cpu time    0.39: real time    0.39
    SUBROT:  cpu time    0.39: real time    0.39
    SUBROT:  cpu time    0.39: real time    0.39
    --------------------------------------------
    SUBRT+:  cpu time    1.98: real time    1.99

 Broyden mixing:
  rms(total) = 0.27568E-02    rms(broyden)= 0.27561E-02
  rms(prec ) = 0.45726E-02
  weight for this iteration     100.00

 eigenvalues of (default mixing * dielectric matrix)
  average eigenvalue GAMMA=   1.8105
  1.0087  1.8960  2.5268
 
    TRIAL :  cpu time  238.15: real time  237.95
    CORREC:  cpu time    0.00: real time    0.00
    CHARGE:  cpu time    0.10: real time    0.10
    --------------------------------------------
      LOOP:  cpu time  240.23: real time  240.03

 eigenvalue-minimisations  :     0
 total energy-change (2. order) :-0.5106002E+01  (-0.8212748E+01)
 number of electron     112.0001460 magnetization 
 augmentation part       38.2290842 magnetization 

 Free energy of the ion-electron system (eV)
  ---------------------------------------------------
  alpha Z        PSCENC =       339.31929130
  Ewald energy   TEWEN  =     -9064.70487798
  -1/2 Hartree   DENC   =     -8000.68856342
  -exchange  EXHF       =       337.13213939
  -V(xc)+E(xc)   XCENC  =       368.76775587
  PAW double counting   =     15770.01979218   -16238.99299556
  entropy T*S    EENTRO =         0.00067070
  eigenvalues    EBANDS =     -1897.75729736
  atomic energy  EATOM  =     18320.98302006
  ---------------------------------------------------
  free energy    TOTEN  =       -65.92109483 eV

  energy without entropy =      -65.92176553  energy(sigma->0) =      -65.92131840


--------------------------------------------------------------------------------------------------------




----------------------------------------- Iteration    1(   7)  ---------------------------------------


    POTLOK:  cpu time    0.05: real time    0.05
    SETDIJ:  cpu time    1.91: real time    1.91
 
    SUBROT:  cpu time    0.79: real time    0.79
    SUBROT:  cpu time    0.38: real time    0.38
    SUBROT:  cpu time    0.38: real time    0.38
    SUBROT:  cpu time    0.38: real time    0.38
    --------------------------------------------
    SUBRT+:  cpu time    1.92: real time    1.92

 Broyden mixing:
  rms(total) = 0.13347E-01    rms(broyden)= 0.13343E-01
  rms(prec ) = 0.23657E-01
  weight for this iteration     100.00

 eigenvalues of (default mixing * dielectric matrix)
  average eigenvalue GAMMA=   1.5989
  2.5016  0.8888  1.4063
 
    TRIAL :  cpu time  240.83: real time  240.61
    CORREC:  cpu time    0.00: real time    0.00
    CHARGE:  cpu time    0.05: real time    0.05
    --------------------------------------------
      LOOP:  cpu time  242.85: real time  242.64

 eigenvalue-minimisations  :     0
 total energy-change (2. order) :-0.1544351E+01  (-0.4152069E+01)
 number of electron     112.0001443 magnetization 
 augmentation part       37.7051329 magnetization 

 Free energy of the ion-electron system (eV)
  ---------------------------------------------------
  alpha Z        PSCENC =       339.31929130
  Ewald energy   TEWEN  =     -9064.70487798
  -1/2 Hartree   DENC   =     -8243.71600733
  -exchange  EXHF       =       341.62266529
  -V(xc)+E(xc)   XCENC  =       374.56600532
  PAW double counting   =     16207.97268092   -16711.40929572
  entropy T*S    EENTRO =         0.00043668
  eigenvalues    EBANDS =     -1632.09959850
  atomic energy  EATOM  =     18320.98302006
  ---------------------------------------------------
  free energy    TOTEN  =       -67.46544594 eV

  energy without entropy =      -67.46588262  energy(sigma->0) =      -67.46559150


--------------------------------------------------------------------------------------------------------




----------------------------------------- Iteration    1(   8)  ---------------------------------------


    POTLOK:  cpu time    0.09: real time    0.09
    SETDIJ:  cpu time    1.92: real time    1.92
 
    SUBROT:  cpu time    0.79: real time    0.79
    SUBROT:  cpu time    0.38: real time    0.38
    SUBROT:  cpu time    0.39: real time    0.39
    SUBROT:  cpu time    0.39: real time    0.39
    --------------------------------------------
    SUBRT+:  cpu time    1.94: real time    1.95

 Broyden mixing:
  rms(total) = 0.84553E-02    rms(broyden)= 0.84528E-02
  rms(prec ) = 0.14141E-01
  weight for this iteration     100.00

 eigenvalues of (default mixing * dielectric matrix)
  average eigenvalue GAMMA=   1.6693
  2.4579  0.9466  1.6034
 
    TRIAL :  cpu time  237.61: real time  237.40
    CORREC:  cpu time    0.00: real time    0.00
    CHARGE:  cpu time    0.09: real time    0.10
    --------------------------------------------
      LOOP:  cpu time  239.72: real time  239.52

 eigenvalue-minimisations  :     0
 total energy-change (2. order) :-0.1618307E+01  (-0.7721900E+00)
 number of electron     112.0001443 magnetization 
 augmentation part       37.7240559 magnetization 

 Free energy of the ion-electron system (eV)
  ---------------------------------------------------
  alpha Z        PSCENC =       339.31929130
  Ewald energy   TEWEN  =     -9064.70487798
  -1/2 Hartree   DENC   =     -8116.63062867
  -exchange  EXHF       =       339.51654917
  -V(xc)+E(xc)   XCENC  =       371.37789276
  PAW double counting   =     15915.74181824   -16397.09662138
  entropy T*S    EENTRO =         0.00072631
  eigenvalues    EBANDS =     -1777.59063356
  atomic energy  EATOM  =     18320.98302006
  ---------------------------------------------------
  free energy    TOTEN  =       -69.08375338 eV

  energy without entropy =      -69.08447969  energy(sigma->0) =      -69.08399549


--------------------------------------------------------------------------------------------------------




----------------------------------------- Iteration    1(   9)  ---------------------------------------


    POTLOK:  cpu time    0.05: real time    0.05
    SETDIJ:  cpu time    1.92: real time    1.92
 
    SUBROT:  cpu time    0.86: real time    0.86
    SUBROT:  cpu time    0.39: real time    0.39
    SUBROT:  cpu time    0.38: real time    0.38
    SUBROT:  cpu time    0.40: real time    0.40
    --------------------------------------------
    SUBRT+:  cpu time    2.04: real time    2.05

 Broyden mixing:
  rms(total) = 0.52263E-03    rms(broyden)= 0.52201E-03
  rms(prec ) = 0.83353E-03
  weight for this iteration     100.00

 eigenvalues of (default mixing * dielectric matrix)
  average eigenvalue GAMMA=   1.6803
  2.5201  0.9996  1.5213
 
    TRIAL :  cpu time  240.45: real time  240.25
    CORREC:  cpu time    0.00: real time    0.00
    CHARGE:  cpu time    0.06: real time    0.06
    --------------------------------------------
      LOOP:  cpu time  242.49: real time  242.28

 eigenvalue-minimisations  :     0
 total energy-change (2. order) :-0.3104934E+00  (-0.3880031E+00)
 number of electron     112.0001449 magnetization 
 augmentation part       37.9058715 magnetization 

 Free energy of the ion-electron system (eV)
  ---------------------------------------------------
  alpha Z        PSCENC =       339.31929130
  Ewald energy   TEWEN  =     -9064.70487798
  -1/2 Hartree   DENC   =     -8124.27378286
  -exchange  EXHF       =       339.59078531
  -V(xc)+E(xc)   XCENC  =       371.44084301
  PAW double counting   =     15912.03011685   -16393.27476292
  entropy T*S    EENTRO =         0.00086249
  eigenvalues    EBANDS =     -1770.50560581
  atomic energy  EATOM  =     18320.98302006
  ---------------------------------------------------
  free energy    TOTEN  =       -69.39424674 eV

  energy without entropy =      -69.39510924  energy(sigma->0) =      -69.39453424


--------------------------------------------------------------------------------------------------------




----------------------------------------- Iteration    1(  10)  ---------------------------------------


    POTLOK:  cpu time    0.15: real time    0.15
    SETDIJ:  cpu time    1.93: real time    1.93
 
    SUBROT:  cpu time    0.80: real time    0.80
    SUBROT:  cpu time    0.39: real time    0.39
    SUBROT:  cpu time    0.40: real time    0.40
    SUBROT:  cpu time    0.40: real time    0.40
    --------------------------------------------
    SUBRT+:  cpu time    1.99: real time    2.01

 Broyden mixing:
  rms(total) = 0.23108E-02    rms(broyden)= 0.23103E-02
  rms(prec ) = 0.38801E-02
  weight for this iteration     100.00

 eigenvalues of (default mixing * dielectric matrix)
  average eigenvalue GAMMA=   1.6809
  2.4760  0.9881  1.5786
 
    TRIAL :  cpu time  239.18: real time  238.99
    CORREC:  cpu time    0.00: real time    0.00
    CHARGE:  cpu time    0.07: real time    0.07
    --------------------------------------------
      LOOP:  cpu time  241.34: real time  241.14

 eigenvalue-minimisations  :     0
 total energy-change (2. order) :-0.1041250E+00  (-0.1528099E+00)
 number of electron     112.0001447 magnetization 
 augmentation part       37.8185142 magnetization 

 Free energy of the ion-electron system (eV)
  ---------------------------------------------------
  alpha Z        PSCENC =       339.31929130
  Ewald energy   TEWEN  =     -9064.70487798
  -1/2 Hartree   DENC   =     -8171.79738748
  -exchange  EXHF       =       340.39716833
  -V(xc)+E(xc)   XCENC  =       372.54142265
  PAW double counting   =     15994.11084009   -16482.10412463
  entropy T*S    EENTRO =         0.00072278
  eigenvalues    EBANDS =     -1718.24458660
  atomic energy  EATOM  =     18320.98302006
  ---------------------------------------------------
  free energy    TOTEN  =       -69.49837177 eV

  energy without entropy =      -69.49909455  energy(sigma->0) =      -69.49861269


--------------------------------------------------------------------------------------------------------




----------------------------------------- Iteration    1(  11)  ---------------------------------------


    POTLOK:  cpu time    0.12: real time    0.12
    SETDIJ:  cpu time    1.89: real time    1.89
 
    SUBROT:  cpu time    1.04: real time    1.04
    SUBROT:  cpu time    0.40: real time    0.40
    SUBROT:  cpu time    0.40: real time    0.40
    SUBROT:  cpu time    0.41: real time    0.41
    --------------------------------------------
    SUBRT+:  cpu time    2.25: real time    2.26

 Broyden mixing:
  rms(total) = 0.78380E-03    rms(broyden)= 0.78355E-03
  rms(prec ) = 0.15680E-02
  weight for this iteration     100.00

 eigenvalues of (default mixing * dielectric matrix)
  average eigenvalue GAMMA=   1.6673
  2.4950  0.9840  1.5230
 
    TRIAL :  cpu time  240.02: real time  239.83
    CORREC:  cpu time    0.00: real time    0.00
    CHARGE:  cpu time    0.08: real time    0.09
    --------------------------------------------
      LOOP:  cpu time  242.12: real time  241.94

 eigenvalue-minimisations  :     0
 total energy-change (2. order) :-0.6985071E-01  (-0.3694567E-01)
 number of electron     112.0001446 magnetization 
 augmentation part       37.7856334 magnetization 

 Free energy of the ion-electron system (eV)
  ---------------------------------------------------
  alpha Z        PSCENC =       339.31929130
  Ewald energy   TEWEN  =     -9064.70487798
  -1/2 Hartree   DENC   =     -8150.37796333
  -exchange  EXHF       =       340.06820695
  -V(xc)+E(xc)   XCENC  =       372.06706703
  PAW double counting   =     15941.95938876   -16426.90357565
  entropy T*S    EENTRO =         0.00060512
  eigenvalues    EBANDS =     -1741.97950240
  atomic energy  EATOM  =     18320.98302006
  ---------------------------------------------------
  free energy    TOTEN  =       -69.56822248 eV

  energy without entropy =      -69.56882760  energy(sigma->0) =      -69.56842419


--------------------------------------------------------------------------------------------------------




----------------------------------------- Iteration    1(  12)  ---------------------------------------


    POTLOK:  cpu time    0.05: real time    0.05
    SETDIJ:  cpu time    1.92: real time    1.92
 
    SUBROT:  cpu time    0.84: real time    0.84
    SUBROT:  cpu time    0.40: real time    0.40
    SUBROT:  cpu time    0.39: real time    0.39
    SUBROT:  cpu time    0.40: real time    0.40
    --------------------------------------------
    SUBRT+:  cpu time    2.03: real time    2.03

 Broyden mixing:
  rms(total) = 0.21033E-03    rms(broyden)= 0.21024E-03
  rms(prec ) = 0.45842E-03
  weight for this iteration     100.00

 eigenvalues of (default mixing * dielectric matrix)
  average eigenvalue GAMMA=   1.6372
  2.5070  0.9986  1.4060
 
    TRIAL :  cpu time  240.54: real time  240.34
    CORREC:  cpu time    0.00: real time    0.00
    CHARGE:  cpu time    0.12: real time    0.12
    --------------------------------------------
      LOOP:  cpu time  242.64: real time  242.44

 eigenvalue-minimisations  :     0
 total energy-change (2. order) :-0.1233372E-01  (-0.2293249E-01)
 number of electron     112.0001447 magnetization 
 augmentation part       37.8260584 magnetization 

 Free energy of the ion-electron system (eV)
  ---------------------------------------------------
  alpha Z        PSCENC =       339.31929130
  Ewald energy   TEWEN  =     -9064.70487798
  -1/2 Hartree   DENC   =     -8141.98422487
  -exchange  EXHF       =       339.95198742
  -V(xc)+E(xc)   XCENC  =       371.89175258
  PAW double counting   =     15920.07108531   -16403.92639653
  entropy T*S    EENTRO =         0.00055269
  eigenvalues    EBANDS =     -1751.18279862
  atomic energy  EATOM  =     18320.98302006
  ---------------------------------------------------
  free energy    TOTEN  =       -69.58055620 eV

  energy without entropy =      -69.58110890  energy(sigma->0) =      -69.58074043


--------------------------------------------------------------------------------------------------------




----------------------------------------- Iteration    1(  13)  ---------------------------------------


    POTLOK:  cpu time    0.05: real time    0.05
    SETDIJ:  cpu time    1.93: real time    1.93
 
    SUBROT:  cpu time    0.84: real time    0.84
    SUBROT:  cpu time    0.41: real time    0.41
    SUBROT:  cpu time    0.41: real time    0.41
    SUBROT:  cpu time    0.40: real time    0.40
    --------------------------------------------
    SUBRT+:  cpu time    2.05: real time    2.07

 Broyden mixing:
  rms(total) = 0.55648E-03    rms(broyden)= 0.55637E-03
  rms(prec ) = 0.94601E-03
  weight for this iteration     100.00

 eigenvalues of (default mixing * dielectric matrix)
  average eigenvalue GAMMA=   1.6923
  2.4806  0.9959  1.6003
 
    TRIAL :  cpu time  242.41: real time  242.20
    CORREC:  cpu time    0.00: real time    0.00
    CHARGE:  cpu time    0.09: real time    0.09
    --------------------------------------------
      LOOP:  cpu time  244.47: real time  244.27

 eigenvalue-minimisations  :     0
 total energy-change (2. order) :-0.9694981E-02  (-0.5128192E-02)
 number of electron     112.0001447 magnetization 
 augmentation part       37.8299665 magnetization 

 Free energy of the ion-electron system (eV)
  ---------------------------------------------------
  alpha Z        PSCENC =       339.31929130
  Ewald energy   TEWEN  =     -9064.70487798
  -1/2 Hartree   DENC   =     -8151.90849430
  -exchange  EXHF       =       340.12496226
  -V(xc)+E(xc)   XCENC  =       372.12640461
  PAW double counting   =     15936.32637502   -16421.67843071
  entropy T*S    EENTRO =         0.00054126
  eigenvalues    EBANDS =     -1740.17905413
  atomic energy  EATOM  =     18320.98302006
  ---------------------------------------------------
  free energy    TOTEN  =       -69.59025118 eV

  energy without entropy =      -69.59079245  energy(sigma->0) =      -69.59043160


--------------------------------------------------------------------------------------------------------




----------------------------------------- Iteration    1(  14)  ---------------------------------------


    POTLOK:  cpu time    0.09: real time    0.09
    SETDIJ:  cpu time    1.93: real time    1.93
 
    SUBROT:  cpu time    0.85: real time    0.85
    SUBROT:  cpu time    0.40: real time    0.40
    SUBROT:  cpu time    0.40: real time    0.40
    SUBROT:  cpu time    0.40: real time    0.40
    --------------------------------------------
    SUBRT+:  cpu time    2.05: real time    2.06

 Broyden mixing:
  rms(total) = 0.68642E-04    rms(broyden)= 0.68628E-04
  rms(prec ) = 0.14095E-03
  weight for this iteration     100.00

 eigenvalues of (default mixing * dielectric matrix)
  average eigenvalue GAMMA=   1.6614
  2.5166  0.9898  1.4779
 
    TRIAL :  cpu time  241.29: real time  241.08
    CORREC:  cpu time    0.00: real time    0.00
    CHARGE:  cpu time    0.12: real time    0.12
    --------------------------------------------
      LOOP:  cpu time  243.42: real time  243.22

 eigenvalue-minimisations  :     0
 total energy-change (2. order) :-0.2458034E-02  (-0.3794233E-02)
 number of electron     112.0001447 magnetization 
 augmentation part       37.8123661 magnetization 

 Free energy of the ion-electron system (eV)
  ---------------------------------------------------
  alpha Z        PSCENC =       339.31929130
  Ewald energy   TEWEN  =     -9064.70487798
  -1/2 Hartree   DENC   =     -8152.44316710
  -exchange  EXHF       =       340.12307614
  -V(xc)+E(xc)   XCENC  =       372.13584384
  PAW double counting   =     15934.27432651   -16419.79015668
  entropy T*S    EENTRO =         0.00055985
  eigenvalues    EBANDS =     -1739.49060656
  atomic energy  EATOM  =     18320.98302006
  ---------------------------------------------------
  free energy    TOTEN  =       -69.59270922 eV

  energy without entropy =      -69.59326907  energy(sigma->0) =      -69.59289583


--------------------------------------------------------------------------------------------------------




----------------------------------------- Iteration    1(  15)  ---------------------------------------


    POTLOK:  cpu time    0.10: real time    0.10
    SETDIJ:  cpu time    1.92: real time    1.91
 
    SUBROT:  cpu time    0.83: real time    0.83
    SUBROT:  cpu time    0.41: real time    0.41
    SUBROT:  cpu time    0.39: real time    0.39
    SUBROT:  cpu time    0.40: real time    0.40
    --------------------------------------------
    SUBRT+:  cpu time    2.04: real time    2.04

 Broyden mixing:
  rms(total) = 0.19453E-03    rms(broyden)= 0.19447E-03
  rms(prec ) = 0.33192E-03
  weight for this iteration     100.00

 eigenvalues of (default mixing * dielectric matrix)
  average eigenvalue GAMMA=   1.6816
  2.4727  0.9888  1.5833
 
    TRIAL :  cpu time  239.31: real time  239.10
    CORREC:  cpu time    0.00: real time    0.00
    CHARGE:  cpu time    0.09: real time    0.09
    --------------------------------------------
      LOOP:  cpu time  241.42: real time  241.21

 eigenvalue-minimisations  :     0
 total energy-change (2. order) :-0.1510169E-02  (-0.1040531E-02)
 number of electron     112.0001447 magnetization 
 augmentation part       37.8167070 magnetization 

 Free energy of the ion-electron system (eV)
  ---------------------------------------------------
  alpha Z        PSCENC =       339.31929130
  Ewald energy   TEWEN  =     -9064.70487798
  -1/2 Hartree   DENC   =     -8147.71698409
  -exchange  EXHF       =       340.03367233
  -V(xc)+E(xc)   XCENC  =       372.02425902
  PAW double counting   =     15922.18638839   -16407.08948987
  entropy T*S    EENTRO =         0.00057295
  eigenvalues    EBANDS =     -1744.63005839
  atomic energy  EATOM  =     18320.98302006
  ---------------------------------------------------
  free energy    TOTEN  =       -69.59421939 eV

  energy without entropy =      -69.59479234  energy(sigma->0) =      -69.59441037


--------------------------------------------------------------------------------------------------------




----------------------------------------- Iteration    1(  16)  ---------------------------------------


    POTLOK:  cpu time    0.10: real time    0.10
    SETDIJ:  cpu time    1.89: real time    1.89
 
    SUBROT:  cpu time    0.84: real time    0.84
    SUBROT:  cpu time    0.41: real time    0.41
    SUBROT:  cpu time    0.42: real time    0.42
    SUBROT:  cpu time    0.40: real time    0.40
    --------------------------------------------
    SUBRT+:  cpu time    2.08: real time    2.08

 Broyden mixing:
  rms(total) = 0.84733E-04    rms(broyden)= 0.84715E-04
  rms(prec ) = 0.14130E-03
  weight for this iteration     100.00

 eigenvalues of (default mixing * dielectric matrix)
  average eigenvalue GAMMA=   1.6861
  2.4863  0.9894  1.5825
 
    TRIAL :  cpu time  241.21: real time  240.99
    CORREC:  cpu time    0.00: real time    0.00
    CHARGE:  cpu time    0.11: real time    0.11
    --------------------------------------------
      LOOP:  cpu time  243.31: real time  243.09

 eigenvalue-minimisations  :     0
 total energy-change (2. order) :-0.5727753E-03  (-0.4105723E-03)
 number of electron     112.0001447 magnetization 
 augmentation part       37.8215321 magnetization 

 Free energy of the ion-electron system (eV)
  ---------------------------------------------------
  alpha Z        PSCENC =       339.31929130
  Ewald energy   TEWEN  =     -9064.70487798
  -1/2 Hartree   DENC   =     -8148.83975427
  -exchange  EXHF       =       340.05232358
  -V(xc)+E(xc)   XCENC  =       372.05155244
  PAW double counting   =     15923.04993799   -16408.14229655
  entropy T*S    EENTRO =         0.00057353
  eigenvalues    EBANDS =     -1743.36456168
  atomic energy  EATOM  =     18320.98302006
  ---------------------------------------------------
  free energy    TOTEN  =       -69.59479216 eV

[...]
     22      -2.2888      2.00000
     23      -1.9495      2.00000
     24      -1.6180      2.00000
     25      -1.2156      2.00000
     26      -1.0094      2.00000
     27      -0.9750      2.00000
     28      -0.7099      2.00000
     29      -0.5492      2.00000
     30      -0.3945      2.00000
     31      -0.2832      2.00000
     32      -0.1950      2.00000
     33      -0.1849      2.00000
     34      -0.1404      2.00000
     35      -0.0198      2.00000
     36       0.0206      2.00000
     37       1.2977      2.00000
     38       1.3084      2.00000
     39       1.3683      2.00000
     40       1.4120      2.00000
     41       1.4522      2.00000
     42       1.4670      2.00000
     43       1.5086      2.00000
     44       1.5486      2.00000
     45       1.7643      2.00000
     46       1.8943      2.00000
     47       1.9837      2.00000
     48       2.1527      2.00000
     49       2.3717      2.00000
     50       2.5759      2.00000
     51       2.7027      2.00000
     52       2.9113      2.00000
     53       3.0140      2.00000
     54       3.2250      2.00000
     55       3.4006      2.00000
     56       3.6576      2.00000
     57       6.3720     -0.00000
     58       6.5201     -0.00000
     59       7.7198      0.00000
     60       7.9009      0.00000
     61       8.3003      0.00000
     62       8.5597      0.00000
     63       9.3268      0.00000
     64       9.8461      0.00000
     65      10.0210      0.00000
     66      10.3559      0.00000
     67      10.5876      0.00000
     68      10.7869      0.00000
     69      10.9812      0.00000
     70      11.2556      0.00000
     71      11.3050      0.00000
     72      11.7085      0.00000
     73      12.2530      0.00000
     74      12.4651      0.00000
     75      13.1002      0.00000
     76      13.4820      0.00000
     77      13.8225      0.00000
     78      14.6871      0.00000
     79      15.0021      0.00000
     80      15.7176      0.00000

 k-point  40 :       0.2500   -0.2500    0.4000
  band No.  band energies     occupation 
      1     -68.6485      2.00000
      2     -68.6401      2.00000
      3     -68.6392      2.00000
      4     -68.6274      2.00000
      5     -68.6160      2.00000
      6     -68.6089      2.00000
      7     -68.5991      2.00000
      8     -68.5906      2.00000
      9     -68.5827      2.00000
     10     -68.5723      2.00000
     11     -68.5659      2.00000
     12     -68.5545      2.00000
     13     -12.2246      2.00000
     14     -11.8190      2.00000
     15     -10.8271      2.00000
     16     -10.6674      2.00000
     17     -10.3463      2.00000
     18     -10.2732      2.00000
     19      -5.4481      2.00000
     20      -5.1180      2.00000
     21      -2.4345      2.00000
     22      -2.1523      2.00000
     23      -2.0201      2.00000
     24      -1.5238      2.00000
     25      -1.3526      2.00000
     26      -1.1633      2.00000
     27      -0.9407      2.00000
     28      -0.8150      2.00000
     29      -0.5793      2.00000
     30      -0.5377      2.00000
     31      -0.2802      2.00000
     32      -0.2394      2.00000
     33      -0.1341      2.00000
     34      -0.0899      2.00000
     35      -0.0234      2.00000
     36       0.0340      2.00000
     37       1.3133      2.00000
     38       1.3468      2.00000
     39       1.3652      2.00000
     40       1.3969      2.00000
     41       1.4512      2.00000
     42       1.4826      2.00000
     43       1.5000      2.00000
     44       1.5658      2.00000
     45       1.8018      2.00000
     46       1.8469      2.00000
     47       1.9602      2.00000
     48       2.1082      2.00000
     49       2.2974      2.00000
     50       2.5310      2.00000
     51       2.6389      2.00000
     52       2.7716      2.00000
     53       2.9327      2.00000
     54       3.1622      2.00000
     55       3.3046      2.00000
     56       3.5755      2.00000
     57       6.5591     -0.00000
     58       6.7136     -0.00000
     59       7.9573      0.00000
     60       8.0173      0.00000
     61       8.7303      0.00000
     62       9.0902      0.00000
     63       9.4545      0.00000
     64       9.8294      0.00000
     65      10.2964      0.00000
     66      10.3658      0.00000
     67      10.7718      0.00000
     68      10.8513      0.00000
     69      11.1172      0.00000
     70      11.2715      0.00000
     71      11.3673      0.00000
     72      11.6261      0.00000
     73      12.0470      0.00000
     74      12.2940      0.00000
     75      12.6519      0.00000
     76      13.1214      0.00000
     77      13.2820      0.00000
     78      14.2419      0.00000
     79      15.6285      0.00000
     80      15.8474      0.00000

 k-point  41 :       0.5000   -0.2500    0.4000
  band No.  band energies     occupation 
      1     -68.6484      2.00000
      2     -68.6400      2.00000
      3     -68.6390      2.00000
      4     -68.6272      2.00000
      5     -68.6160      2.00000
      6     -68.6089      2.00000
      7     -68.5990      2.00000
      8     -68.5904      2.00000
      9     -68.5827      2.00000
     10     -68.5723      2.00000
     11     -68.5659      2.00000
     12     -68.5544      2.00000
     13     -12.0829      2.00000
     14     -11.7809      2.00000
     15     -10.8532      2.00000
     16     -10.7477      2.00000
     17     -10.5301      2.00000
     18     -10.3137      2.00000
     19      -5.4218      2.00000
     20      -4.9425      2.00000
     21      -2.4028      2.00000
     22      -2.1337      2.00000
     23      -1.8600      2.00000
     24      -1.7200      2.00000
     25      -1.4591      2.00000
     26      -1.1156      2.00000
     27      -0.8833      2.00000
     28      -0.6466      2.00000
     29      -0.6016      2.00000
     30      -0.4486      2.00000
     31      -0.2609      2.00000
     32      -0.1870      2.00000
     33      -0.1201      2.00000
     34      -0.0509      2.00000
     35      -0.0210      2.00000
     36       0.0249      2.00000
     37       1.2620      2.00000
     38       1.3160      2.00000
     39       1.4100      2.00000
     40       1.4398      2.00000
     41       1.4840      2.00000
     42       1.4927      2.00000
     43       1.5164      2.00000
     44       1.5762      2.00000
     45       1.7637      2.00000
     46       1.8405      2.00000
     47       2.1209      2.00000
     48       2.1814      2.00000
     49       2.3678      2.00000
     50       2.4631      2.00000
     51       2.4914      2.00000
     52       2.6971      2.00000
     53       2.8235      2.00000
     54       3.0892      2.00000
     55       3.2920      2.00000
     56       3.5266      2.00000
     57       6.4979     -0.00000
     58       6.5765     -0.00000
     59       7.4571      0.00000
     60       7.7200      0.00000
     61       8.5915      0.00000
     62       8.7452      0.00000
     63       9.2986      0.00000
     64       9.5361      0.00000
     65       9.9512      0.00000
     66      10.1837      0.00000
     67      10.6770      0.00000
     68      11.1095      0.00000
     69      11.2447      0.00000
     70      11.5687      0.00000
     71      11.7046      0.00000
     72      11.8944      0.00000
     73      12.3002      0.00000
     74      12.6582      0.00000
     75      13.0062      0.00000
     76      13.2288      0.00000
     77      13.6610      0.00000
     78      14.0667      0.00000
     79      14.3946      0.00000
     80      16.5157      0.00000

 k-point  42 :      -0.2500   -0.2500    0.4000
  band No.  band energies     occupation 
      1     -68.6486      2.00000
      2     -68.6401      2.00000
      3     -68.6390      2.00000
      4     -68.6271      2.00000
      5     -68.6160      2.00000
      6     -68.6089      2.00000
      7     -68.5990      2.00000
      8     -68.5904      2.00000
      9     -68.5827      2.00000
     10     -68.5724      2.00000
     11     -68.5660      2.00000
     12     -68.5546      2.00000
     13     -12.1832      2.00000
     14     -11.7092      2.00000
     15     -10.7189      2.00000
     16     -10.6888      2.00000
     17     -10.5848      2.00000
     18     -10.3873      2.00000
     19      -5.4499      2.00000
     20      -5.0741      2.00000
     21      -2.5094      2.00000
     22      -2.3828      2.00000
     23      -1.9606      2.00000
     24      -1.3702      2.00000
     25      -1.3345      2.00000
     26      -1.0522      2.00000
     27      -0.8346      2.00000
     28      -0.7629      2.00000
     29      -0.4224      2.00000
     30      -0.3359      2.00000
     31      -0.2724      2.00000
     32      -0.2090      2.00000
     33      -0.1400      2.00000
     34      -0.1386      2.00000
     35      -0.0142      2.00000
     36       0.0296      2.00000
     37       1.1734      2.00000
     38       1.3715      2.00000
     39       1.3980      2.00000
     40       1.4533      2.00000
     41       1.4556      2.00000
     42       1.4990      2.00000
     43       1.5179      2.00000
     44       1.5507      2.00000
     45       1.7449      2.00000
     46       1.8217      2.00000
     47       1.9759      2.00000
     48       2.2282      2.00000
     49       2.3974      2.00000
     50       2.6113      2.00000
     51       2.6569      2.00000
     52       2.9168      2.00000
     53       3.0697      2.00000
     54       3.1163      2.00000
     55       3.2888      2.00000
     56       3.5843      2.00000
     57       6.2862     -0.00000
     58       6.3800     -0.00000
     59       7.3603      0.00000
     60       7.5204      0.00000
     61       8.3011      0.00000
     62       8.3350      0.00000
     63       9.1063      0.00000
     64       9.3623      0.00000
     65       9.7164      0.00000
     66       9.9509      0.00000
     67      10.5268      0.00000
     68      10.9885      0.00000
     69      11.4239      0.00000
     70      11.5614      0.00000
     71      12.0164      0.00000
     72      12.2838      0.00000
     73      12.4230      0.00000
     74      12.4765      0.00000
     75      13.0362      0.00000
     76      13.1494      0.00000
     77      14.1402      0.00000
     78      14.4442      0.00000
     79      15.1650      0.00000
     80      15.8682      0.00000


--------------------------------------------------------------------------------------------------------


 soft charge-density along one line, spin component           1
         0         1         2         3         4         5         6         7         8         9
 total charge-density along one line
 
 pseudopotential strength for first ion, spin component:           1
-65.426   0.002   0.006   7.364  -0.000  -0.002   0.001   0.008
  0.002 -65.395  -0.005  -0.000   7.353   0.001  -0.001  -0.024
  0.006  -0.005 -65.386  -0.002   0.001   7.350  -0.037  -0.001
  7.364  -0.000  -0.002   6.110   0.000   0.000   0.002  -0.004
 -0.000   7.353   0.001   0.000   6.113  -0.000   0.000   0.007
 -0.002   0.001   7.350   0.000  -0.000   6.114   0.009   0.000
  0.001  -0.001  -0.037   0.002   0.000   0.009  -2.982  -0.003
  0.008  -0.024  -0.001  -0.004   0.007   0.000  -0.003  -2.987
  0.022   0.043   0.010  -0.005  -0.009  -0.003  -0.003   0.008
 -0.001  -0.018   0.008   0.000   0.005  -0.004   0.004   0.007
  0.026   0.000  -0.035  -0.007  -0.000   0.007  -0.000   0.007
  0.001  -0.001  -0.036   0.002   0.000   0.008  -3.628  -0.003
  0.008  -0.024  -0.001  -0.004   0.007   0.000  -0.003  -3.633
  0.022   0.043   0.009  -0.005  -0.008  -0.003  -0.003   0.008
 -0.001  -0.017   0.008   0.000   0.005  -0.004   0.004   0.007
  0.025   0.000  -0.034  -0.007  -0.000   0.007  -0.000   0.007
  0.007  -0.005   0.004  -0.001   0.001  -0.001  -0.001   0.000
  0.016  -0.010   0.009  -0.002   0.001  -0.002  -0.003   0.001
 total augmentation occupancy for first ion, spin component:           1
  2.000  -0.000   0.000  -0.003  -0.000   0.000   0.007  -0.005   0.001  -0.001  -0.005  -0.007   0.005  -0.001   0.001   0.004
 -0.000   2.000  -0.000  -0.000  -0.003   0.000  -0.001   0.005   0.004   0.001   0.000   0.001  -0.005  -0.005  -0.001  -0.000
  0.000  -0.000   2.000   0.000   0.000  -0.003  -0.000  -0.000  -0.001  -0.005  -0.004   0.001   0.000   0.001   0.005   0.005
 -0.003  -0.000   0.000   0.095   0.006  -0.005  -0.333   0.232  -0.074   0.011   0.017   0.280  -0.197   0.058  -0.007  -0.011
 -0.000  -0.003   0.000   0.006   0.102   0.001   0.020  -0.048  -0.445   0.015   0.011  -0.013   0.037   0.377  -0.011  -0.009
  0.000   0.000  -0.003  -0.005   0.001   0.099   0.098  -0.003  -0.014   0.236   0.354  -0.077   0.001   0.011  -0.202  -0.297
  0.007  -0.001  -0.000  -0.333   0.020   0.098   4.007  -0.794   0.099   0.216   0.146  -1.736   0.744  -0.091  -0.182  -0.141
 -0.005   0.005  -0.000   0.232  -0.048  -0.003  -0.794   3.513   0.293   0.159   0.297   0.744  -1.271  -0.216  -0.114  -0.206
  0.001   0.004  -0.001  -0.074  -0.445  -0.014   0.099   0.293   4.689  -0.041  -0.117  -0.091  -0.216  -2.398   0.035   0.087
 -0.001   0.001  -0.005   0.011   0.015   0.236   0.216   0.159  -0.041   3.636   0.798  -0.182  -0.115   0.035  -1.354  -0.760
 -0.005   0.000  -0.004   0.017   0.011   0.354   0.146   0.297  -0.117   0.798   3.993  -0.141  -0.206   0.087  -0.760  -1.740
 -0.007   0.001   0.001   0.280  -0.013  -0.077  -1.736   0.744  -0.091  -0.182  -0.141   1.441  -0.696   0.083   0.153   0.136
  0.005  -0.005   0.000  -0.197   0.037   0.001   0.744  -1.271  -0.216  -0.115  -0.206  -0.696   1.006   0.154   0.079   0.132
 -0.001  -0.005   0.001   0.058   0.377   0.011  -0.091  -0.216  -2.398   0.035   0.087   0.083   0.154   2.082  -0.029  -0.063
  0.001  -0.001   0.005  -0.007  -0.011  -0.202  -0.182  -0.114   0.035  -1.354  -0.760   0.153   0.079  -0.029   1.060   0.721
  0.004  -0.000   0.005  -0.011  -0.009  -0.297  -0.141  -0.206   0.087  -0.760  -1.740   0.136   0.132  -0.063   0.721   1.460
 -0.025   0.017  -0.013  -0.020   0.011  -0.006   0.080  -0.101  -0.024  -0.006   0.025  -0.063   0.088   0.036   0.006   0.006
  0.012  -0.008   0.006   0.001  -0.000  -0.000  -0.008   0.003  -0.004   0.004  -0.019   0.004  -0.005  -0.002  -0.001   0.003


------------------------ aborting loop because EDIFF is reached ----------------------------------------


    FORLOC:  cpu time    0.01: real time    0.01
    FORHF :  cpu time  486.53: real time  486.08
    FORNL :  cpu time    0.39: real time    0.39
    FORCOR:  cpu time    1.97: real time    1.97

 VOLUME and BASIS-vectors are now :
 -----------------------------------------------------------------------------
  energy-cutoff  :      400.00
  volume of cell :      221.90
      direct lattice vectors                 reciprocal lattice vectors
     3.224796000 -5.643830000  0.031572000     0.154525165 -0.088592321  0.053460880
     3.224796000  5.643830000  0.031572000     0.154525165  0.088592321  0.053460880
    -2.101946000  0.000000000  6.075537000    -0.001606004  0.000000000  0.164038877

  length of vectors
     6.500240234  6.500240234  6.428866683     0.185969598  0.185969598  0.164046738


 FORCES acting on ions:
    Electron-Ion                     Ewald-Force                    Non-Local-Force
 -----------------------------------------------------------------------------------------------
   -.143E+02 -.973E+02 0.110E+02   0.131E+02 0.949E+02 -.932E+01   0.105E+01 0.213E+01 -.147E+01
   -.143E+02 0.972E+02 0.117E+02   0.131E+02 -.948E+02 -.101E+02   0.105E+01 -.209E+01 -.137E+01
   0.253E+02 -.169E+02 0.408E+01   -.219E+02 0.167E+02 -.279E+01   -.290E+01 0.161E+00 -.113E+01
   0.255E+02 0.169E+02 0.464E+01   -.223E+02 -.167E+02 -.342E+01   -.284E+01 -.188E+00 -.108E+01
   -.113E+02 -.314E+02 -.105E+02   0.106E+02 0.301E+02 0.927E+01   0.720E+00 0.132E+01 0.107E+01
   -.110E+02 0.315E+02 -.113E+02   0.103E+02 -.302E+02 0.101E+02   0.685E+00 -.135E+01 0.113E+01
   -.135E+03 -.990E+01 -.489E+02   0.132E+03 0.993E+01 0.481E+02   0.278E+01 -.268E-01 0.751E+00
   0.702E+02 -.126E+03 0.956E+02   -.685E+02 0.123E+03 -.935E+02   -.155E+01 0.228E+01 -.186E+01
   0.667E+02 -.133E+03 -.496E+02   -.652E+02 0.130E+03 0.486E+02   -.138E+01 0.221E+01 0.907E+00
   0.704E+02 0.126E+03 0.963E+02   -.687E+02 -.124E+03 -.942E+02   -.158E+01 -.231E+01 -.188E+01
   -.135E+03 0.992E+01 -.493E+02   0.132E+03 -.995E+01 0.484E+02   0.279E+01 0.264E-01 0.734E+00
   0.666E+02 0.133E+03 -.498E+02   -.651E+02 -.130E+03 0.489E+02   -.135E+01 -.218E+01 0.875E+00
 -----------------------------------------------------------------------------------------------
   0.279E+01 0.162E-01 0.376E+01   -.568E-13 -.114E-12 -.426E-13   -.254E+01 -.169E-01 -.332E+01
 
 
 POSITION                                       TOTAL-FORCE (eV/Angst)
 -----------------------------------------------------------------------------------
      2.13385     -2.80652      0.74958        -0.004820     -0.003950      0.006325
      1.08288      2.80652      3.78735        -0.005651     -0.000117     -0.002256
      5.40423     -0.97432      0.77721         0.008816     -0.001357      0.002723
      4.35326      0.97432      3.81498         0.002027      0.001501     -0.001797
      1.01754     -0.97328      3.67130         0.051334     -0.012031     -0.108852
      2.07178      0.97328      0.62409        -0.012580      0.006721      0.023328
      2.15090      4.69667      3.05304        -0.005813      0.001767      0.006275
      1.11215     -0.89759      5.98620         0.004308     -0.013170      0.052144
      2.14287     -2.74882      3.03886        -0.026304      0.039553      0.018638
      2.16313      0.89759      2.94844        -0.011785     -0.012265      0.011105
      1.09993     -4.69667      6.09081         0.002035     -0.001870     -0.004558
      1.09189      2.74882      6.07662        -0.001566     -0.004783     -0.003076
 -----------------------------------------------------------------------------------
    total drift:                               -0.058991     -0.001086     -0.053994


--------------------------------------------------------------------------------------------------------



  FREE ENERGIE OF THE ION-ELECTRON SYSTEM (eV)
  ---------------------------------------------------
  free  energy   TOTEN  =       -69.59513912 eV

  energy  without entropy=      -69.59570617  energy(sigma->0) =      -69.59532813
 


--------------------------------------------------------------------------------------------------------


    POTLOK:  cpu time    2.14: real time    2.15


--------------------------------------------------------------------------------------------------------


 writing wavefunctions
     LOOP+:  cpu time 5614.61: real time 5611.54
    4ORBIT:  cpu time    0.00: real time    0.00

 total amount of memory used by VASP on root node   155701. kBytes
========================================================================

   base      :      30000. kBytes
   nonl-proj :      74517. kBytes
   fftplans  :        702. kBytes
   grid      :       2400. kBytes
   one-center:        186. kBytes
   HF        :        194. kBytes
   nonlr-proj:       5126. kBytes
   wavefun   :      42576. kBytes
 
  
  
 General timing and accounting informations for this job:
 ========================================================
  
                  Total CPU time used (sec):     5650.504
                            User time (sec):     5647.955
                          System time (sec):        2.549
                         Elapsed time (sec):     5648.189
  
                   Maximum memory used (kb):      299656.
                   Average memory used (kb):           0.
  
                          Minor page faults:        79153
                          Major page faults:            0
                 Voluntary context switches:         3583
