   12   12    1    1
  0.1849176E+02  0.6500240E-09  0.6500240E-09  0.6428867E-09  0.5000000E-15
  1.000000000000000E-004
  CAR 
 CGS                                     
  112   42   80
 
  0.0000000E+00  0.0000000E+00  0.0000000E+00  0.1250000E-01
   1      -68.652162
   2      -68.644584
   3      -68.638901
   4      -68.623957
   5      -68.618610
   6      -68.612716
   7      -68.601804
   8      -68.595270
   9      -68.582593
  10      -68.567086
  11      -68.566464
  12      -68.552251
  13      -12.720807
  14      -11.129638
  15      -10.916926
  16      -10.602705
  17      -10.251424
  18      -10.235362
  19       -5.984135
  20       -4.983246
  21       -2.760218
  22       -2.210051
  23       -2.069747
  24       -1.922093
  25       -1.578546
  26       -0.986880
  27       -0.952533
  28       -0.682926
  29       -0.399179
  30       -0.276819
  31       -0.263033
  32       -0.235590
  33       -0.186603
  34       -0.158977
  35       -0.039085
  36        0.035320
  37        1.348868
  38        1.360972
  39        1.413387
  40        1.456864
  41        1.472405
  42        1.474679
  43        1.519258
  44        1.532655
  45        1.573793
  46        1.710974
  47        1.891635
  48        1.926045
  49        2.058401
  50        2.652611
  51        2.729729
  52        3.094375
  53        3.219210
  54        4.005316
  55        4.036826
  56        4.171337
  57        5.539127
  58        6.358487
  59        7.634046
  60        7.983393
  61        8.616666
  62        8.793013
  63        9.573133
  64        9.738776
  65        9.813939
  66       10.417044
  67       10.581767
  68       10.697147
  69       10.709707
  70       11.276877
  71       11.712780
  72       12.398335
  73       12.452340
  74       12.729915
  75       13.321060
  76       13.381688
  77       13.836710
  78       13.878318
  79       14.147114
  80       14.177560
 
  0.2500000E+00  0.7372575E-17  0.1387779E-16  0.2500000E-01
   1      -68.652116
   2      -68.644560
   3      -68.638861
   4      -68.623931
   5      -68.618498
   6      -68.612614
   7      -68.601834
   8      -68.595270
   9      -68.582541
  10      -68.567052
  11      -68.566393
  12      -68.552218
  13      -12.595839
  14      -11.127814
  15      -10.981199
  16      -10.676708
  17      -10.366519
  18      -10.278205
  19       -5.932822
  20       -4.773333
  21       -2.645238
  22       -2.253658
  23       -2.085455
  24       -1.688254
  25       -1.349124
  26       -0.997653
  27       -0.766954
  28       -0.619374
  29       -0.555141
  30       -0.437354
  31       -0.360852
  32       -0.243383
  33       -0.195988
  34       -0.168652
  35       -0.047313
  36        0.042227
  37        1.277930
  38        1.333722
  39        1.354096
  40        1.393853
  41        1.426580
  42        1.472368
  43        1.496235
  44        1.533037
  45        1.723320
  46        1.859467
  47        2.056234
  48        2.093670
  49        2.229943
  50        2.414275
  51        2.556948
  52        2.825442
  53        2.950859
  54        3.242301
  55        3.661003
  56        4.038627
  57        6.171378
  58        6.905325
  59        8.137114
  60        8.267237
  61        8.594938
  62        9.012546
  63        9.243207
  64        9.531590
  65        9.861328
  66       10.375515
  67       10.632739
  68       10.814736
  69       10.938599
  70       11.193015
  71       11.660765
  72       11.771220
  73       12.115782
  74       12.440594
  75       12.617059
  76       13.010246
  77       13.501184
  78       13.877930
  79       14.216550
  80       14.705792
 
  0.5000000E+00  0.1474515E-16  0.2775558E-16  0.1250000E-01
   1      -68.651999
   2      -68.644392
   3      -68.638787
   4      -68.623846
   5      -68.618447
   6      -68.612600
   7      -68.601747
   8      -68.595204
   9      -68.582533
  10      -68.566871
  11      -68.566340
  12      -68.552109
  13      -12.436495
  14      -11.249635
  15      -10.955042
  16      -10.763937
  17      -10.427625
  18      -10.359650
  19       -5.870898
  20       -4.548880
  21       -2.492619
  22       -2.248066
  23       -1.944636
  24       -1.460818
  25       -1.228378
  26       -1.097601
  27       -0.901766
  28       -0.863562
  29       -0.597251
  30       -0.536121
  31       -0.274300
  32       -0.211445
  33       -0.201802
  34       -0.143899
  35       -0.031030
  36        0.082171
  37        1.253088
  38        1.323988
  39        1.350000
  40        1.397598
  41        1.470721
  42        1.478503
  43        1.499431
  44        1.556700
  45        1.753564
  46        1.793402
  47        1.964123
  48        2.148638
  49        2.318047
  50        2.358257
  51        2.555208
  52        2.670543
  53        2.939184
  54        3.077822
  55        3.250542
  56        3.860037
  57        6.385026
  58        7.095710
  59        7.976981
  60        8.201275
  61        8.519626
  62        8.824205
  63        9.325710
  64        9.893353
  65       10.007003
  66       10.516408
  67       10.694815
  68       10.792342
  69       11.147452
  70       11.408929
  71       11.614314
  72       11.775662
  73       11.937358
  74       12.503462
  75       12.779115
  76       12.995458
  77       13.396553
  78       13.549584
  79       13.935299
  80       14.276828
 
  0.7372575E-17  0.2500000E+00  0.1387779E-16  0.2500000E-01
   1      -68.652140
   2      -68.644538
   3      -68.638875
   4      -68.623916
   5      -68.618502
   6      -68.612610
   7      -68.601806
   8      -68.595296
   9      -68.582523
  10      -68.567057
  11      -68.566410
  12      -68.552214
  13      -12.595833
  14      -11.127275
  15      -10.982648
  16      -10.675247
  17      -10.367396
  18      -10.277840
  19       -5.933179
  20       -4.772972
  21       -2.645255
  22       -2.251410
  23       -2.088291
  24       -1.689651
  25       -1.346086
  26       -0.995839
  27       -0.768309
  28       -0.623203
  29       -0.551451
  30       -0.442344
  31       -0.360822
  32       -0.241764
  33       -0.192694
  34       -0.169730
  35       -0.045772
  36        0.040389
  37        1.277831
  38        1.337665
  39        1.355350
  40        1.388971
  41        1.426240
  42        1.470603
  43        1.501287
  44        1.528087
  45        1.725149
  46        1.858339
  47        2.056436
  48        2.095797
  49        2.228953
  50        2.413989
  51        2.557689
  52        2.828240
  53        2.947119
  54        3.240787
  55        3.661310
  56        4.040078
  57        6.171570
  58        6.906259
  59        8.139680
  60        8.263943
  61        8.593952
  62        9.014196
  63        9.244341
  64        9.526227
  65        9.866088
  66       10.374586
  67       10.635697
  68       10.812104
  69       10.939626
  70       11.188533
  71       11.656520
  72       11.772897
  73       12.116997
  74       12.446165
  75       12.619663
  76       13.003546
  77       13.520628
  78       13.896566
  79       14.272517
  80       14.839419
 
  0.2500000E+00  0.2500000E+00  0.0000000E+00  0.2500000E-01
   1      -68.652139
   2      -68.644561
   3      -68.638762
   4      -68.623816
   5      -68.618634
   6      -68.612746
   7      -68.601710
   8      -68.595171
   9      -68.582655
  10      -68.567072
  11      -68.566526
  12      -68.552235
  13      -12.440326
  14      -11.191312
  15      -10.942014
  16      -10.876735
  17      -10.391374
  18      -10.351572
  19       -5.876322
  20       -4.521912
  21       -2.417032
  22       -2.246266
  23       -1.792009
  24       -1.681945
  25       -1.355302
  26       -1.301580
  27       -1.074158
  28       -0.680763
  29       -0.525642
  30       -0.297064
  31       -0.282187
  32       -0.224179
  33       -0.188136
  34       -0.127281
  35       -0.095750
  36        0.081398
  37        1.292797
  38        1.311501
  39        1.414663
  40        1.425037
  41        1.461769
  42        1.482847
  43        1.495254
  44        1.571552
  45        1.671080
  46        1.880020
  47        1.940288
  48        2.134793
  49        2.280023
  50        2.320791
  51        2.559111
  52        2.649490
  53        2.902390
  54        2.945674
  55        3.697485
  56        3.832166
  57        6.171521
  58        6.987828
  59        8.001258
  60        8.326234
  61        8.434865
  62        8.571331
  63        9.146912
  64        9.247495
  65       10.362224
  66       10.493485
  67       10.923997
  68       11.187117
  69       11.324803
  70       11.561993
  71       11.816062
  72       11.962265
  73       12.317414
  74       12.504053
  75       12.709863
  76       12.914382
  77       13.341090
  78       13.443380
  79       14.258667
  80       14.364744
 
  0.5000000E+00  0.2500000E+00 -0.2775558E-16  0.2500000E-01
   1      -68.651926
   2      -68.644349
   3      -68.638839
   4      -68.623822
   5      -68.618455
   6      -68.612515
   7      -68.601769
   8      -68.595229
   9      -68.582476
  10      -68.566863
  11      -68.566345
  12      -68.552103
  13      -12.440597
  14      -11.354636
  15      -10.936810
  16      -10.736900
  17      -10.390576
  18      -10.271790
  19       -5.947738
  20       -4.642336
  21       -2.392363
  22       -2.227359
  23       -2.057609
  24       -1.640714
  25       -1.365099
  26       -1.281363
  27       -1.016222
  28       -0.511122
  29       -0.485402
  30       -0.332320
  31       -0.281108
  32       -0.212101
  33       -0.150646
  34       -0.135798
  35       -0.012902
  36        0.114377
  37        1.245359
  38        1.316657
  39        1.378992
  40        1.436974
  41        1.459767
  42        1.490987
  43        1.499665
  44        1.553133
  45        1.750711
  46        1.826721
  47        1.919159
  48        2.135643
  49        2.219247
  50        2.384188
  51        2.561784
  52        2.789799
  53        2.980562
  54        3.311189
  55        3.602264
  56        3.747077
  57        6.089199
  58        6.937270
  59        7.614099
  60        8.067325
  61        8.408618
  62        8.615894
  63        8.984764
  64        9.152177
  65       10.087474
  66       10.334184
  67       10.730280
  68       11.110335
  69       11.460263
  70       11.597146
  71       11.799321
  72       12.081425
  73       12.477760
  74       12.920118
  75       13.030214
  76       13.835034
  77       14.217329
  78       14.657233
  79       15.431521
  80       15.641065
 
 -0.2500000E+00  0.2500000E+00  0.0000000E+00  0.2500000E-01
   1      -68.652130
   2      -68.644551
   3      -68.638841
   4      -68.623895
   5      -68.618433
   6      -68.612545
   7      -68.601804
   8      -68.595267
   9      -68.582482
  10      -68.567054
  11      -68.566353
  12      -68.552217
  13      -12.598702
  14      -11.251990
  15      -10.990722
  16      -10.569129
  17      -10.367913
  18      -10.180136
  19       -6.009773
  20       -4.894246
  21       -2.647399
  22       -2.315641
  23       -1.973062
  24       -1.646216
  25       -1.493612
  26       -1.184448
  27       -0.788585
  28       -0.587200
  29       -0.450484
  30       -0.334868
  31       -0.294505
  32       -0.230605
  33       -0.172895
  34       -0.129722
  35       -0.007278
  36        0.072151
  37        1.259165
  38        1.320779
  39        1.363685
  40        1.423034
  41        1.431748
  42        1.476041
  43        1.504417
  44        1.541182
  45        1.723253
  46        1.812201
  47        1.995152
  48        2.072783
  49        2.415550
  50        2.463678
  51        2.527743
  52        2.875002
  53        3.140190
  54        3.229916
  55        3.783125
  56        4.068237
  57        5.982334
  58        6.693944
  59        7.532238
  60        8.219302
  61        8.617028
  62        8.914668
  63        9.308005
  64        9.431692
  65        9.806759
  66       10.268899
  67       10.538139
  68       10.826172
  69       10.970995
  70       11.385314
  71       11.468598
  72       11.732811
  73       12.102819
  74       12.664101
  75       12.942921
  76       13.103846
  77       13.343412
  78       13.519288
  79       14.482944
  80       14.754137
 
  0.1474515E-16  0.5000000E+00  0.2775558E-16  0.1250000E-01
   1      -68.651969
   2      -68.644416
   3      -68.638794
   4      -68.623837
   5      -68.618489
   6      -68.612559
   7      -68.601741
   8      -68.595212
   9      -68.582462
  10      -68.566951
  11      -68.566401
  12      -68.552043
  13      -12.436482
  14      -11.249716
  15      -10.955691
  16      -10.762884
  17      -10.429279
  18      -10.358234
  19       -5.871505
  20       -4.548318
  21       -2.495217
  22       -2.243426
  23       -1.945859
  24       -1.461346
  25       -1.227409
  26       -1.102311
  27       -0.901608
  28       -0.856622
  29       -0.600625
  30       -0.539648
  31       -0.271799
  32       -0.205162
  33       -0.202911
  34       -0.145859
  35       -0.031634
  36        0.080523
  37        1.254619
  38        1.329327
  39        1.343953
  40        1.395639
  41        1.470754
  42        1.482569
  43        1.499931
  44        1.550248
  45        1.749870
  46        1.790848
  47        1.972717
  48        2.144719
  49        2.325134
  50        2.364316
  51        2.551820
  52        2.666635
  53        2.935575
  54        3.077932
  55        3.249409
  56        3.863418
  57        6.385228
  58        7.094877
  59        7.980041
  60        8.203563
  61        8.518674
  62        8.823021
  63        9.323179
  64        9.891196
  65       10.012205
  66       10.511406
  67       10.691651
  68       10.795939
  69       11.141912
  70       11.407473
  71       11.609681
  72       11.776057
  73       11.948364
  74       12.504601
  75       12.826764
  76       13.034980
  77       13.549017
  78       13.680683
  79       14.550201
  80       15.255889
 
  0.2500000E+00  0.5000000E+00 -0.2775558E-16  0.2500000E-01
   1      -68.651924
   2      -68.644349
   3      -68.638819
   4      -68.623801
   5      -68.618481
   6      -68.612517
   7      -68.601780
   8      -68.595237
   9      -68.582431
  10      -68.566893
  11      -68.566400
  12      -68.552058
  13      -12.440586
  14      -11.354718
  15      -10.936955
  16      -10.736759
  17      -10.390137
  18      -10.272108
  19       -5.948048
  20       -4.642019
  21       -2.392713
  22       -2.226497
  23       -2.058479
  24       -1.641818
  25       -1.359960
  26       -1.283480
  27       -1.017510
  28       -0.515681
  29       -0.481482
  30       -0.330038
  31       -0.281409
  32       -0.214868
  33       -0.151018
  34       -0.136319
  35       -0.009328
  36        0.112768
  37        1.247278
  38        1.314372
  39        1.383702
  40        1.436642
  41        1.461699
  42        1.489910
  43        1.497079
  44        1.548522
  45        1.746281
  46        1.828888
  47        1.923756
  48        2.133875
  49        2.221899
  50        2.386832
  51        2.558484
  52        2.791175
  53        2.978034
  54        3.309703
  55        3.602656
  56        3.749245
  57        6.089035
  58        6.938509
  59        7.615161
  60        8.065070
  61        8.409804
  62        8.615793
  63        8.980324
  64        9.154533
  65       10.088287
  66       10.336105
  67       10.730923
  68       11.110128
  69       11.451114
  70       11.579526
  71       11.784016
  72       12.033716
  73       12.520237
  74       12.682550
  75       12.913619
  76       13.211298
  77       14.229389
  78       14.772751
  79       15.262287
  80       15.908981
 
  0.5000000E+00  0.5000000E+00  0.0000000E+00  0.1250000E-01
   1      -68.651757
   2      -68.644160
   3      -68.638656
   4      -68.623681
   5      -68.618290
   6      -68.612437
   7      -68.601571
   8      -68.595037
   9      -68.582361
  10      -68.566712
  11      -68.566239
  12      -68.551885
  13      -12.432391
  14      -11.502032
  15      -10.912264
  16      -10.616624
  17      -10.399087
  18      -10.199479
  19       -6.026351
  20       -4.809973
  21       -2.312327
  22       -2.265970
  23       -2.094616
  24       -1.704402
  25       -1.246235
  26       -1.106303
  27       -0.842846
  28       -0.782152
  29       -0.731493
  30       -0.242963
  31       -0.198254
  32       -0.180960
  33       -0.148503
  34       -0.038982
  35       -0.001149
  36        0.184765
  37        1.267226
  38        1.317025
  39        1.374243
  40        1.413982
  41        1.436236
  42        1.490896
  43        1.507463
  44        1.548172
  45        1.785251
  46        1.846539
  47        1.995843
  48        2.151242
  49        2.253228
  50        2.335472
  51        2.560664
  52        2.763278
  53        2.775473
  54        3.365061
  55        3.764551
  56        4.005842
  57        5.857617
  58        6.774177
  59        7.078438
  60        8.414100
  61        8.557861
  62        8.767302
  63        9.140733
  64        9.240608
  65        9.960335
  66       10.282161
  67       10.720935
  68       10.824783
  69       10.878109
  70       11.274513
  71       11.750047
  72       11.921632
  73       11.970124
  74       12.365645
  75       12.538070
  76       13.458475
  77       14.281452
  78       14.672739
  79       16.749055
  80       16.756007
 
 -0.2168404E-18 -0.2168404E-18  0.2000000E+00  0.2500000E-01
   1      -68.652165
   2      -68.644585
   3      -68.638869
   4      -68.623925
   5      -68.618528
   6      -68.612639
   7      -68.601829
   8      -68.595291
   9      -68.582566
  10      -68.567090
  11      -68.566437
  12      -68.552252
  13      -12.617634
  14      -11.425427
  15      -10.778159
  16      -10.607777
  17      -10.250191
  18      -10.237362
  19       -5.830868
  20       -5.046956
  21       -2.599725
  22       -2.371971
  23       -1.962202
  24       -1.775419
  25       -1.445275
  26       -1.126953
  27       -1.066141
  28       -0.771012
  29       -0.467281
  30       -0.292222
  31       -0.241642
  32       -0.235111
  33       -0.193754
  34       -0.148029
  35       -0.015993
  36        0.027346
  37        1.332272
  38        1.380347
  39        1.414986
  40        1.439112
  41        1.462087
  42        1.470852
  43        1.513347
  44        1.546632
  45        1.632504
  46        1.757218
  47        1.786293
  48        1.950137
  49        2.088247
  50        2.659769
  51        2.719457
  52        3.198148
  53        3.255233
  54        3.519537
  55        3.893834
  56        3.976636
  57        6.045705
  58        6.415370
  59        7.820765
  60        7.910609
  61        8.368136
  62        8.821747
  63        9.778029
  64        9.794255
  65       10.061587
  66       10.580427
  67       10.642682
  68       10.810501
  69       10.855506
  70       11.492279
  71       11.559765
  72       12.030568
  73       12.575026
  74       12.775732
  75       12.914865
  76       13.207250
  77       13.536649
  78       13.820289
  79       14.194721
  80       14.704066
 
  0.2500000E+00  0.1517883E-17  0.2000000E+00  0.2500000E-01
   1      -68.652101
   2      -68.644523
   3      -68.638855
   4      -68.623911
   5      -68.618574
   6      -68.612679
   7      -68.601781
   8      -68.595250
   9      -68.582569
  10      -68.567034
  11      -68.566453
  12      -68.552184
  13      -12.458620
  14      -11.466780
  15      -10.863130
  16      -10.689104
  17      -10.373513
  18      -10.246163
  19       -5.766811
  20       -4.804727
  21       -2.442834
  22       -2.234457
  23       -1.850938
  24       -1.713633
  25       -1.435502
  26       -1.185870
  27       -0.885834
  28       -0.746495
  29       -0.604944
  30       -0.523792
  31       -0.310997
  32       -0.243608
  33       -0.176642
  34       -0.125409
  35       -0.054155
  36        0.064034
  37        1.300114
  38        1.337037
  39        1.369041
  40        1.428254
  41        1.446776
  42        1.477712
  43        1.523188
  44        1.546206
  45        1.645208
  46        1.874346
  47        1.974959
  48        2.048439
  49        2.195045
  50        2.475734
  51        2.595224
  52        2.838376
  53        2.964527
  54        3.133972
  55        3.567468
  56        3.723299
  57        6.440713
  58        6.955595
  59        8.166751
  60        8.245053
  61        8.838736
  62        9.127617
  63        9.462153
  64        9.797740
  65       10.083224
  66       10.299656
  67       10.739446
  68       11.081738
  69       11.289216
  70       11.430569
  71       11.631707
  72       11.726982
  73       12.083941
  74       12.263794
  75       12.542268
  76       12.658331
  77       12.953589
  78       13.059591
  79       13.640581
  80       14.690150
 
  0.5000000E+00  0.9107298E-17  0.2000000E+00  0.2500000E-01
   1      -68.651951
   2      -68.644357
   3      -68.638768
   4      -68.623785
   5      -68.618440
   6      -68.612548
   7      -68.601690
   8      -68.595177
   9      -68.582488
  10      -68.566899
  11      -68.566386
  12      -68.552124
  13      -12.356166
  14      -11.413060
  15      -10.952924
  16      -10.683481
  17      -10.479254
  18      -10.335027
  19       -5.751849
  20       -4.722383
  21       -2.522194
  22       -2.185419
  23       -1.952091
  24       -1.535510
  25       -1.298081
  26       -1.098939
  27       -0.871046
  28       -0.754634
  29       -0.550121
  30       -0.441563
  31       -0.292319
  32       -0.181665
  33       -0.147211
  34       -0.107349
  35       -0.044802
  36        0.025409
  37        1.269518
  38        1.297646
  39        1.352105
  40        1.428973
  41        1.453736
  42        1.479107
  43        1.500125
  44        1.590119
  45        1.720740
  46        1.933908
  47        2.073790
  48        2.147309
  49        2.264802
  50        2.401375
  51        2.567874
  52        2.598881
  53        2.900732
  54        3.008115
  55        3.357903
  56        3.897590
  57        6.366097
  58        6.897285
  59        7.570945
  60        8.080826
  61        8.551936
  62        8.799430
  63        9.281320
  64        9.628485
  65        9.926716
  66       10.275500
  67       10.656740
  68       10.931313
  69       10.972699
  70       11.282556
  71       11.520250
  72       11.785420
  73       12.247106
  74       12.532145
  75       13.059457
  76       13.514342
  77       14.304092
  78       14.623482
  79       15.131724
  80       16.274275
 
 -0.2500000E+00 -0.4098284E-16  0.2000000E+00  0.2500000E-01
   1      -68.652161
   2      -68.644576
   3      -68.638844
   4      -68.623900
   5      -68.618531
   6      -68.612651
   7      -68.601815
   8      -68.595276
   9      -68.582590
  10      -68.567072
  11      -68.566452
  12      -68.552252
  13      -12.541198
  14      -11.336845
  15      -10.873625
  16      -10.606436
  17      -10.398759
  18      -10.282953
  19       -5.824303
  20       -4.974562
  21       -2.665761
  22       -2.451774
  23       -2.037965
  24       -1.577788
  25       -1.173106
  26       -0.984105
  27       -0.794465
  28       -0.655969
  29       -0.515958
  30       -0.391199
  31       -0.267805
  32       -0.255751
  33       -0.186778
  34       -0.147459
  35       -0.046319
  36        0.016680
  37        1.287595
  38        1.312181
  39        1.385666
  40        1.411055
  41        1.433688
  42        1.457949
  43        1.491696
  44        1.563325
  45        1.687012
  46        1.915097
  47        1.985422
  48        2.144962
  49        2.334086
  50        2.565603
  51        2.615395
  52        2.828674
  53        2.976637
  54        3.249220
  55        3.681053
  56        3.942782
  57        6.181231
  58        6.641269
  59        7.763711
  60        7.971383
  61        8.217292
  62        8.564974
  63        9.379336
  64        9.576664
  65        9.902374
  66       10.249208
  67       10.543114
  68       10.785119
  69       10.843270
  70       11.070442
  71       11.571158
  72       12.023570
  73       12.528777
  74       12.753840
  75       12.949444
  76       13.304419
  77       13.402749
  78       13.741803
  79       13.854937
  80       14.723437
 
  0.1517883E-17  0.2500000E+00  0.2000000E+00  0.2500000E-01
   1      -68.652102
   2      -68.644521
   3      -68.638855
   4      -68.623911
   5      -68.618568
   6      -68.612686
   7      -68.601789
   8      -68.595243
   9      -68.582582
  10      -68.567024
  11      -68.566436
  12      -68.552198
  13      -12.458660
  14      -11.466487
  15      -10.864389
  16      -10.687644
  17      -10.374732
  18      -10.245392
  19       -5.766671
  20       -4.804857
  21       -2.445225
  22       -2.231707
  23       -1.851724
  24       -1.713563
  25       -1.434293
  26       -1.183810
  27       -0.889531
  28       -0.746274
  29       -0.607639
  30       -0.521784
  31       -0.314029
  32       -0.245985
  33       -0.173731
  34       -0.124099
  35       -0.049403
  36        0.061682
  37        1.301436
  38        1.333946
  39        1.368071
  40        1.435188
  41        1.445238
  42        1.480096
  43        1.519393
  44        1.549075
  45        1.642520
  46        1.868187
  47        1.984575
  48        2.045780
  49        2.193773
  50        2.474613
  51        2.596581
  52        2.837614
  53        2.962266
  54        3.134374
  55        3.567198
  56        3.725326
  57        6.440897
  58        6.955205
  59        8.169845
  60        8.242836
  61        8.834674
  62        9.129448
  63        9.467583
  64        9.793678
  65       10.081633
  66       10.298381
  67       10.744180
  68       11.077451
  69       11.290068
  70       11.427620
  71       11.635523
  72       11.721565
  73       12.089092
  74       12.268092
  75       12.542038
  76       12.654556
  77       12.955497
  78       13.057422
  79       13.654251
  80       14.696078
 
  0.2500000E+00  0.2500000E+00  0.2000000E+00  0.2500000E-01
   1      -68.652010
   2      -68.644433
   3      -68.638704
   4      -68.623760
   5      -68.618408
   6      -68.612522
   7      -68.601663
   8      -68.595125
   9      -68.582446
  10      -68.566934
  11      -68.566320
  12      -68.552100
  13      -12.326758
  14      -11.474656
  15      -10.862746
  16      -10.856917
  17      -10.407418
  18      -10.287653
  19       -5.747656
  20       -4.692044
  21       -2.241658
  22       -2.137989
  23       -1.927346
  24       -1.850895
  25       -1.453432
  26       -1.396385
  27       -1.037866
  28       -0.520242
  29       -0.461466
  30       -0.348174
  31       -0.250332
  32       -0.216770
  33       -0.161996
  34       -0.111769
  35       -0.094092
  36        0.083287
  37        1.261854
  38        1.347160
  39        1.397380
  40        1.433738
  41        1.453216
  42        1.510160
  43        1.533621
  44        1.542661
  45        1.753258
  46        1.817471
  47        2.040795
  48        2.135814
  49        2.285003
  50        2.311976
  51        2.520955
  52        2.771425
  53        2.897152
  54        3.261441
  55        3.495686
  56        3.799569
  57        6.183713
  58        6.839448
  59        7.825824
  60        8.043565
  61        8.190790
  62        8.724463
  63        9.153179
  64        9.305823
  65       10.220439
  66       10.446587
  67       10.589941
  68       11.002478
  69       11.242894
  70       11.484578
  71       11.815709
  72       12.173426
  73       12.209004
  74       12.571856
  75       12.693614
  76       13.116854
  77       13.416192
  78       13.881376
  79       14.006542
  80       14.521607
 
  0.5000000E+00  0.2500000E+00  0.2000000E+00  0.2500000E-01
   1      -68.651887
   2      -68.644311
   3      -68.638830
   4      -68.623786
   5      -68.618469
   6      -68.612551
   7      -68.601740
   8      -68.595201
   9      -68.582465
  10      -68.566822
  11      -68.566432
  12      -68.552065
  13      -12.373334
  14      -11.473232
  15      -10.936984
  16      -10.652497
  17      -10.420370
  18      -10.304858
  19       -5.800044
  20       -4.836340
  21       -2.527647
  22       -2.244202
  23       -1.873294
  24       -1.644522
  25       -1.504075
  26       -1.308652
  27       -0.898373
  28       -0.534567
  29       -0.380578
  30       -0.350252
  31       -0.222549
  32       -0.179448
  33       -0.158603
  34       -0.074944
  35       -0.027001
  36        0.082640
  37        1.190832
  38        1.361809
  39        1.395254
  40        1.442796
  41        1.464201
  42        1.508536
  43        1.517821
  44        1.585934
  45        1.739827
  46        1.814349
  47        2.038229
  48        2.236011
  49        2.267233
  50        2.363456
  51        2.488394
  52        2.670021
  53        3.053532
  54        3.411832
  55        3.725359
  56        3.863151
  57        5.934383
  58        6.615737
  59        7.353501
  60        7.941038
  61        8.065120
  62        8.724659
  63        8.905327
  64        9.137087
  65        9.840984
  66       10.330822
  67       10.555047
  68       10.928331
  69       11.219133
  70       11.417163
  71       11.750896
  72       12.003495
  73       12.496842
  74       12.829862
  75       13.203216
  76       14.178352
  77       14.718488
  78       15.162746
  79       15.918039
  80       16.565848
 
 -0.2500000E+00  0.2500000E+00  0.2000000E+00  0.2500000E-01
   1      -68.652067
   2      -68.644524
   3      -68.638895
   4      -68.623959
   5      -68.618505