       N       E                     dE             d eps       ncg     rms          ort
SDA:   1     0.755402321126E+02    0.75540E+02   -0.21320E+03  3360   0.533E+03 0.000E+00
DMP:   2    -0.837825477135E+01   -0.83918E+02   -0.14689E+03  3360   0.395E+03-0.737E+02
DMP:   3    -0.151667824218E+02   -0.67885E+01   -0.20384E+03  3360   0.694E+03-0.482E+03
DMP:   4    -0.226485448762E+02   -0.74818E+01   -0.10738E+03  3360   0.390E+03-0.319E+03
DMP:   5    -0.608221168041E+02   -0.38174E+02   -0.15049E+02  3360   0.705E+02-0.861E+02
DMP:   6    -0.659364650034E+02   -0.51143E+01   -0.81703E+01  3360   0.246E+02-0.110E+02
DMP:   7    -0.674751711831E+02   -0.15387E+01   -0.41326E+01  3360   0.147E+02-0.114E+02
DMP:   8    -0.690854702040E+02   -0.16103E+01   -0.77017E+00  3360   0.283E+01-0.237E+01
DMP:   9    -0.693950970338E+02   -0.30963E+00   -0.38622E+00  3360   0.111E+01-0.367E+00
DMP:  10    -0.694988540811E+02   -0.10376E+00   -0.15216E+00  3360   0.547E+00-0.437E+00
DMP:  11    -0.695684244932E+02   -0.69570E-01   -0.36910E-01  3360   0.105E+00-0.338E-01
DMP:  12    -0.695807708516E+02   -0.12346E-01   -0.22830E-01  3360   0.689E-01-0.310E-01
DMP:  13    -0.695904243213E+02   -0.96535E-02   -0.51178E-02  3360   0.161E-01-0.875E-02
DMP:  14    -0.695928760587E+02   -0.24517E-02   -0.37763E-02  3360   0.964E-02-0.527E-03
DMP:  15    -0.695943795388E+02   -0.15035E-02   -0.10363E-02  3360   0.333E-02-0.193E-02
DMP:  16    -0.695949493931E+02   -0.56985E-03   -0.40860E-03  3360   0.915E-03 0.278E-03
DMP:  17    -0.695951219171E+02   -0.17252E-03   -0.20847E-03  3360   0.579E-03-0.152E-03
DMP:  18    -0.695952387295E+02   -0.11681E-03   -0.55973E-04  3360   0.119E-03 0.547E-04
DMP:  19    -0.695952674601E+02   -0.28731E-04   -0.35180E-04  3360   0.881E-04-0.491E-06
DMP:  20    -0.695952871318E+02   -0.19672E-04   -0.11526E-04  3360   0.241E-04 0.124E-04
DMP:  21    -0.695952944767E+02   -0.73449E-05   -0.69823E-05  3360   0.140E-04 0.905E-05
   1 F= -.69595294E+02 E0= -.69595484E+02  d E =0.568051E-03
