<?xml version="1.0" encoding="ISO-8859-1"?>
<modeling>
 <generator>
  <i name="program" type="string">vasp </i>
  <i name="version" type="string">5.3.3  </i>
  <i name="subversion" type="string">18Dez12 (build Nov 13 2015 09:58:40) complex                          parallel </i>
  <i name="platform" type="string">LinuxIFC </i>
  <i name="date" type="string">2017 10 18 </i>
  <i name="time" type="string">13:10:55 </i>
 </generator>
 <incar>
  <i type="string" name="SYSTEM"> CGS</i>
  <i type="string" name="PREC">normal</i>
  <i type="string" name="ALGO"> D</i>
  <i type="logical" name="LDIAG"> T  </i>
  <i name="EDIFF">      0.00001000</i>
  <i name="ENCUT">    400.00000000</i>
  <i name="TIME">      0.40000000</i>
  <i type="int" name="ISMEAR">     1</i>
  <i name="SIGMA">      0.10000000</i>
  <i type="logical" name="LHFCALC"> T  </i>
  <i type="string" name="GGA"> PE</i>
  <i name="HFSCREEN">      0.20000000</i>
  <i name="AEXX">      0.25000000</i>
  <i type="string" name="PRECFOCK">fast</i>
 </incar>
 <kpoints>
  <generation param="Gamma">
   <v type="int" name="divisions">       4        4        5 </v>
   <v name="usershift">      0.00000000       0.00000000       0.00000000 </v>
   <v name="genvec1">      0.25000000       0.00000000       0.00000000 </v>
   <v name="genvec2">      0.00000000       0.25000000       0.00000000 </v>
   <v name="genvec3">      0.00000000       0.00000000       0.20000000 </v>
   <v name="shift">      0.00000000       0.00000000       0.00000000 </v>
  </generation>
  <varray name="kpointlist" >
   <v>       0.00000000       0.00000000       0.00000000 </v>
   <v>       0.25000000       0.00000000       0.00000000 </v>
   <v>       0.50000000       0.00000000       0.00000000 </v>
   <v>       0.00000000       0.25000000       0.00000000 </v>
   <v>       0.25000000       0.25000000       0.00000000 </v>
   <v>       0.50000000       0.25000000      -0.00000000 </v>
   <v>      -0.25000000       0.25000000       0.00000000 </v>
   <v>       0.00000000       0.50000000       0.00000000 </v>
   <v>       0.25000000       0.50000000      -0.00000000 </v>
   <v>       0.50000000       0.50000000       0.00000000 </v>
   <v>      -0.00000000      -0.00000000       0.20000000 </v>
   <v>       0.25000000       0.00000000       0.20000000 </v>
   <v>       0.50000000       0.00000000       0.20000000 </v>
   <v>      -0.25000000      -0.00000000       0.20000000 </v>
   <v>       0.00000000       0.25000000       0.20000000 </v>
   <v>       0.25000000       0.25000000       0.20000000 </v>
   <v>       0.50000000       0.25000000       0.20000000 </v>
   <v>      -0.25000000       0.25000000       0.20000000 </v>
   <v>       0.00000000       0.50000000       0.20000000 </v>
   <v>       0.25000000       0.50000000       0.20000000 </v>
   <v>       0.50000000       0.50000000       0.20000000 </v>
   <v>      -0.25000000       0.50000000       0.20000000 </v>
   <v>      -0.00000000      -0.25000000       0.20000000 </v>
   <v>       0.25000000      -0.25000000       0.20000000 </v>
   <v>       0.50000000      -0.25000000       0.20000000 </v>
   <v>      -0.25000000      -0.25000000       0.20000000 </v>
   <v>      -0.00000000      -0.00000000       0.40000000 </v>
   <v>       0.25000000       0.00000000       0.40000000 </v>
   <v>       0.50000000       0.00000000       0.40000000 </v>
   <v>      -0.25000000       0.00000000       0.40000000 </v>
   <v>       0.00000000       0.25000000       0.40000000 </v>
   <v>       0.25000000       0.25000000       0.40000000 </v>
   <v>       0.50000000       0.25000000       0.40000000 </v>
   <v>      -0.25000000       0.25000000       0.40000000 </v>
   <v>       0.00000000       0.50000000       0.40000000 </v>
   <v>       0.25000000       0.50000000       0.40000000 </v>
   <v>       0.50000000       0.50000000       0.40000000 </v>
   <v>      -0.25000000       0.50000000       0.40000000 </v>
   <v>       0.00000000      -0.25000000       0.40000000 </v>
   <v>       0.25000000      -0.25000000       0.40000000 </v>
   <v>       0.50000000      -0.25000000       0.40000000 </v>
   <v>      -0.25000000      -0.25000000       0.40000000 </v>
  </varray>
  <varray name="weights" >
   <v>       0.01250000 </v>
   <v>       0.02500000 </v>
   <v>       0.01250000 </v>
   <v>       0.02500000 </v>
   <v>       0.02500000 </v>
   <v>       0.02500000 </v>
   <v>       0.02500000 </v>
   <v>       0.01250000 </v>
   <v>       0.02500000 </v>
   <v>       0.01250000 </v>
   <v>       0.02500000 </v>
   <v>       0.02500000 </v>
   <v>       0.02500000 </v>
   <v>       0.02500000 </v>
   <v>       0.02500000 </v>
   <v>       0.02500000 </v>
   <v>       0.02500000 </v>
   <v>       0.02500000 </v>
   <v>       0.02500000 </v>
   <v>       0.02500000 </v>
   <v>       0.02500000 </v>
   <v>       0.02500000 </v>
   <v>       0.02500000 </v>
   <v>       0.02500000 </v>
   <v>       0.02500000 </v>
   <v>       0.02500000 </v>
   <v>       0.02500000 </v>
   <v>       0.02500000 </v>
   <v>       0.02500000 </v>
   <v>       0.02500000 </v>
   <v>       0.02500000 </v>
   <v>       0.02500000 </v>
   <v>       0.02500000 </v>
   <v>       0.02500000 </v>
   <v>       0.02500000 </v>
   <v>       0.02500000 </v>
   <v>       0.02500000 </v>
   <v>       0.02500000 </v>
   <v>       0.02500000 </v>
   <v>       0.02500000 </v>
   <v>       0.02500000 </v>
   <v>       0.02500000 </v>
  </varray>
 </kpoints>
 <parameters>
  <separator name="general" >
   <i type="string" name="SYSTEM">CGS</i>
   <i type="logical" name="LCOMPAT"> F  </i>
  </separator>
  <separator name="electronic" >
   <i type="string" name="PREC">normal</i>
   <i name="ENMAX">    400.00000000</i>
   <i name="ENAUG">    758.23300000</i>
   <i name="EDIFF">      0.00001000</i>
   <i type="int" name="IALGO">    53</i>
   <i type="int" name="IWAVPR">    10</i>
   <i type="int" name="NBANDS">    80</i>
   <i name="NELECT">    112.00000000</i>
   <i type="int" name="TURBO">     0</i>
   <i type="int" name="IRESTART">     0</i>
   <i type="int" name="NREBOOT">     0</i>
   <i type="int" name="NMIN">     0</i>
   <i name="EREF">      0.00000000</i>
   <separator name="electronic smearing" >
    <i type="int" name="ISMEAR">     1</i>
    <i name="SIGMA">      0.10000000</i>
    <i name="KSPACING">      0.50000000</i>
    <i type="logical" name="KGAMMA"> T  </i>
   </separator>
   <separator name="electronic projectors" >
    <i type="logical" name="LREAL"> F  </i>
    <v name="ROPT">      0.00000000      0.00000000      0.00000000</v>
    <i type="int" name="LMAXPAW">  -100</i>
    <i type="int" name="LMAXMIX">     2</i>
    <i type="logical" name="NLSPLINE"> F  </i>
   </separator>
   <separator name="electronic startup" >
    <i type="int" name="ISTART">     1</i>
    <i type="int" name="ICHARG">     0</i>
    <i type="int" name="INIWAV">     1</i>
   </separator>
   <separator name="electronic spin" >
    <i type="int" name="ISPIN">     1</i>
    <i type="logical" name="LNONCOLLINEAR"> F  </i>
    <v name="MAGMOM">      1.00000000      1.00000000      1.00000000      1.00000000      1.00000000      1.00000000      1.00000000      1.00000000      1.00000000      1.00000000      1.00000000      1.00000000</v>
    <i name="NUPDOWN">     -1.00000000</i>
    <i type="logical" name="LSORBIT"> F  </i>
    <v name="SAXIS">      0.00000000      0.00000000      1.00000000</v>
    <i type="logical" name="LSPIRAL"> F  </i>
    <v name="QSPIRAL">      0.00000000      0.00000000      0.00000000</v>
    <i type="logical" name="LZEROZ"> F  </i>
   </separator>
   <separator name="electronic exchange-correlation" >
    <i type="logical" name="LASPH"> F  </i>
    <i type="logical" name="LMETAGGA"> F  </i>
   </separator>
   <separator name="electronic convergence" >
    <i type="int" name="NELM">    60</i>
    <i type="int" name="NELMDL">     0</i>
    <i type="int" name="NELMIN">     2</i>
    <i name="ENINI">    400.00000000</i>
    <separator name="electronic convergence detail" >
     <i type="logical" name="LDIAG"> T  </i>
     <i type="logical" name="LSUBROT"> T  </i>
     <i name="WEIMIN">      0.00000000</i>
     <i name="EBREAK">      0.00000003</i>
     <i name="DEPER">      0.30000000</i>
     <i type="int" name="NRMM">     4</i>
     <i name="TIME">      0.40000000</i>
    </separator>
   </separator>
   <separator name="electronic mixer" >
    <i name="AMIX">      0.40000000</i>
    <i name="BMIX">      1.00000000</i>
    <i name="AMIN">      0.10000000</i>
    <i name="AMIX_MAG">      1.60000000</i>
    <i name="BMIX_MAG">      1.00000000</i>
    <separator name="electronic mixer details" >
     <i type="int" name="IMIX">     4</i>
     <i type="int" name="MAXMIX">   -45</i>
     <i name="WC">    100.00000000</i>
     <i type="int" name="INIMIX">     1</i>
     <i type="int" name="MIXPRE">     1</i>
     <i type="int" name="MREMOVE">     5</i>
    </separator>
   </separator>
   <separator name="electronic dipolcorrection" >
    <i type="logical" name="LDIPOL"> F  </i>
    <i type="logical" name="LMONO"> F  </i>
    <i type="int" name="IDIPOL">     0</i>
    <i name="EPSILON">      1.00000000</i>
    <v name="DIPOL">   -100.00000000   -100.00000000   -100.00000000</v>
    <i name="EFIELD">      0.00000000</i>
   </separator>
  </separator>
  <separator name="grids" >
   <i type="int" name="NGX">    32</i>
   <i type="int" name="NGY">    32</i>
   <i type="int" name="NGZ">    32</i>
   <i type="int" name="NGXF">    64</i>
   <i type="int" name="NGYF">    64</i>
   <i type="int" name="NGZF">    64</i>
   <i type="logical" name="ADDGRID"> F  </i>
  </separator>
  <separator name="ionic" >
   <i type="int" name="NSW">     0</i>
   <i type="int" name="IBRION">    -1</i>
   <i type="int" name="ISIF">     0</i>
   <i name="PSTRESS">      0.00000000</i>
   <i name="EDIFFG">      0.00010000</i>
   <i type="int" name="NFREE">     0</i>
   <i name="POTIM">      0.50000000</i>
   <i name="SMASS">     -3.00000000</i>
   <i name="SCALEE">      1.00000000</i>
  </separator>
  <separator name="ionic md" >
   <i name="TEBEG">      0.00010000</i>
   <i name="TEEND">      0.00010000</i>
   <i type="int" name="NBLOCK">     1</i>
   <i type="int" name="KBLOCK">     1</i>
   <i type="int" name="NPACO">   256</i>
   <i name="APACO">     16.00000000</i>
  </separator>
  <separator name="symmetry" >
   <i type="int" name="ISYM">     3</i>
   <i name="SYMPREC">      0.00001000</i>
  </separator>
  <separator name="dos" >
   <i type="logical" name="LORBIT"> F  </i>
   <v name="RWIGS">     -1.00000000     -1.00000000     -1.00000000</v>
   <i type="int" name="NEDOS">   301</i>
   <i name="EMIN">     10.00000000</i>
   <i name="EMAX">    -10.00000000</i>
   <i name="EFERMI">      0.00000000</i>
  </separator>
  <separator name="writing" >
   <i type="int" name="NWRITE">     2</i>
   <i type="logical" name="LWAVE"> T  </i>
   <i type="logical" name="LCHARG"> T  </i>
   <i type="logical" name="LPARD"> F  </i>
   <i type="logical" name="LVTOT"> F  </i>
   <i type="logical" name="LVHAR"> F  </i>
   <i type="logical" name="LELF"> F  </i>
   <i type="logical" name="LOPTICS"> F  </i>
   <v name="STM">      0.00000000      0.00000000      0.00000000      0.00000000      0.00000000      0.00000000      0.00000000</v>
  </separator>
  <separator name="performance" >
   <i type="int" name="NPAR">    16</i>
   <i type="int" name="NSIM">     4</i>
   <i type="int" name="NBLK">    -1</i>
   <i type="logical" name="LPLANE"> T  </i>
   <i type="logical" name="LSCALAPACK"> T  </i>
   <i type="logical" name="LSCAAWARE"> F  </i>
   <i type="logical" name="LSCALU"> F  </i>
   <i type="logical" name="LASYNC"> F  </i>
   <i type="logical" name="LORBITALREAL"> F  </i>
  </separator>
  <separator name="miscellaneous" >
   <i type="int" name="IDIOT">     3</i>
   <i type="logical" name="LMUSIC"> F  </i>
   <v name="POMASS">     63.54600000     72.61000000     32.06600000</v>
   <v name="DARWINR">      0.00000000      0.00000000      0.00000000</v>
   <v name="DARWINV">      1.00000000      1.00000000      1.00000000</v>
   <i type="logical" name="LCORR"> T  </i>
  </separator>
  <i type="logical" name="GGA_COMPAT"> T  </i>
  <i type="logical" name="LBERRY"> F  </i>
  <i type="int" name="ICORELEVEL">     0</i>
  <i type="logical" name="LDAU"> F  </i>
  <i type="int" name="I_CONSTRAINED_M">     0</i>
  <separator name="electronic exchange-correlation" >
   <i type="string" name="GGA">PE</i>
   <i type="int" name="VOSKOWN">     0</i>
   <i type="logical" name="LHFCALC"> T  </i>
   <i type="string" name="PRECFOCK">fast</i>
   <i type="logical" name="LSYMGRAD"> F  </i>
   <i type="logical" name="LHFONE"> F  </i>
   <i type="logical" name="LRHFCALC"> F  </i>
   <i type="logical" name="LTHOMAS"> F  </i>
   <i type="logical" name="LMODELHF"> F  </i>
   <i name="ENCUT4O">     -1.00000000</i>
   <i type="int" name="EXXOEP">     0</i>
   <i type="int" name="FOURORBIT">     0</i>
   <i name="AEXX">      0.25000000</i>
   <i name="HFALPHA">     -1.00000000</i>
   <i name="MCALPHA">      0.00000000</i>
   <i name="ALDAX">      0.75000000</i>
   <i name="AGGAX">      0.75000000</i>
   <i name="ALDAC">      1.00000000</i>
   <i name="AGGAC">      1.00000000</i>
   <i type="int" name="NKREDX">     1</i>
   <i type="int" name="NKREDY">     1</i>
   <i type="int" name="NKREDZ">     1</i>
   <i type="logical" name="SHIFTRED"> F  </i>
   <i type="logical" name="ODDONLY"> F  </i>
   <i type="logical" name="EVENONLY"> F  </i>
   <i type="int" name="LMAXFOCK">     4</i>
   <i type="int" name="NMAXFOCKAE">     1</i>
   <i type="logical" name="LFOCKAEDFT"> F  </i>
   <i name="HFSCREEN">      0.20000000</i>
   <i name="HFSCREENC">      0.20000000</i>
   <i type="int" name="NBANDSGWLOW">     1</i>
  </separator>
  <separator name="vdW DFT" >
   <i type="logical" name="LUSE_VDW"> F  </i>
   <i name="Zab_VDW">     -0.84910000</i>
   <i name="PARAM1">      0.12340000</i>
   <i name="PARAM2">      1.00000000</i>
   <i name="PARAM3">      0.00000000</i>
  </separator>
  <separator name="model GW" >
   <i type="int" name="MODEL_GW">     0</i>
   <i name="MODEL_EPS0">     11.09505304</i>
   <i name="MODEL_ALPHA">      1.00000000</i>
  </separator>
  <separator name="linear response parameters" >
   <i type="logical" name="LEPSILON"> F  </i>
   <i type="logical" name="LRPA"> F  </i>
   <i type="logical" name="LNABLA"> F  </i>
   <i type="logical" name="LVEL"> F  </i>
   <i type="int" name="KINTER">     0</i>
   <i name="CSHIFT">      0.10000000</i>
   <i name="OMEGAMAX">     -1.00000000</i>
   <i name="DEG_THRESHOLD">      0.00200000</i>
  </separator>
  <separator name="orbital magnetization" >
   <i type="logical" name="NUCIND"> F  </i>
   <v name="MAGPOS">      0.00000000      0.00000000      0.00000000</v>
   <i type="logical" name="LNICSALL"> T  </i>
   <i type="logical" name="ORBITALMAG"> F  </i>
   <i type="logical" name="LMAGBLOCH"> F  </i>
   <i type="logical" name="LCHIMAG"> F  </i>
   <i type="logical" name="LGAUGE"> T  </i>
   <i type="int" name="MAGATOM">     0</i>
   <v name="MAGDIPOL">      0.00000000      0.00000000      0.00000000</v>
   <v name="AVECCONST">      0.00000000      0.00000000      0.00000000</v>
  </separator>
  <separator name="response functions" >
   <i type="logical" name="LADDER"> F  </i>
   <i type="logical" name="LFXC"> F  </i>
   <i type="logical" name="LHARTREE"> T  </i>
   <i type="int" name="IBSE">     0</i>
   <i type="logical" name="LTCTE"> F  </i>
   <i type="logical" name="LTETE"> F  </i>
   <i type="logical" name="LTRIPLET"> F  </i>
   <i type="logical" name="LFXCEPS"> F  </i>
   <i type="logical" name="L2ORDER"> F  </i>
   <i type="logical" name="LUSEW"> F  </i>
   <i name="ENCUTGW">     -2.00000000</i>
   <i name="ENCUTGWSOFT">     -2.00000000</i>
   <i name="ENCUTLF">     -1.00000000</i>
   <i type="int" name="LMAXMP2">    -1</i>
   <i name="SCISSOR">      0.00000000</i>
   <i type="int" name="NOMEGA">     0</i>
   <i type="int" name="NOMEGAR">     0</i>
   <i type="int" name="NBANDSGW">    -1</i>
   <i type="int" name="NBANDSO">    -1</i>
   <i type="int" name="NBANDSV">    -1</i>
   <i type="int" name="NELM">     1</i>
   <i type="int" name="DIM">     3</i>
   <i type="int" name="ANTIRES">     0</i>
   <i name="OMEGAMAX">    -30.00000000</i>
   <i name="OMEGATL">   -200.00000000</i>
   <i type="int" name="OMEGAGRID">     0</i>
   <i name="CSHIFT">     -0.10000000</i>
   <i type="logical" name="SELFENERGY"> F  </i>
   <i type="logical" name="LSPECTRAL"> F  </i>
   <i type="logical" name="ODDONLYGW"> F  </i>
   <i type="logical" name="EVENONLYGW"> F  </i>
   <i type="int" name="NKREDLFX">     1</i>
   <i type="int" name="NKREDLFY">     1</i>
   <i type="int" name="NKREDLFZ">     1</i>
   <i type="int" name="MAXMEM">  1800</i>
   <i type="int" name="TELESCOPE">     0</i>
  </separator>
 </parameters>
 <atominfo>
  <atoms>      12 </atoms>
  <types>       3 </types>
  <array name="atoms" >
   <dimension dim="1">ion</dimension>
   <field type="string">element</field>
   <field type="int">atomtype</field>
   <set>
    <rc><c>Cu</c><c>   1</c></rc>
    <rc><c>Cu</c><c>   1</c></rc>
    <rc><c>Cu</c><c>   1</c></rc>
    <rc><c>Cu</c><c>   1</c></rc>
    <rc><c>Ge</c><c>   2</c></rc>
    <rc><c>Ge</c><c>   2</c></rc>
    <rc><c>S </c><c>   3</c></rc>
    <rc><c>S </c><c>   3</c></rc>
    <rc><c>S </c><c>   3</c></rc>
    <rc><c>S </c><c>   3</c></rc>
    <rc><c>S </c><c>   3</c></rc>
    <rc><c>S </c><c>   3</c></rc>
   </set>
  </array>
  <array name="atomtypes" >
   <dimension dim="1">type</dimension>
   <field type="int">atomspertype</field>
   <field type="string">element</field>
   <field>mass</field>
   <field>valence</field>
   <field type="string">pseudopotential</field>
   <set>
    <rc><c>   4</c><c>Cu</c><c>     63.54600000</c><c>     17.00000000</c><c>  PAW_PBE Cu_pv 06Sep2000               </c></rc>
    <rc><c>   2</c><c>Ge</c><c>     72.61000000</c><c>      4.00000000</c><c>  PAW_PBE Ge 05Jan2001                  </c></rc>
    <rc><c>   6</c><c>S </c><c>     32.06600000</c><c>      6.00000000</c><c>  PAW_PBE S 17Jan2003                   </c></rc>
   </set>
  </array>
 </atominfo>
 <structure name="initialpos" >
  <crystal>
   <varray name="basis" >
    <v>       3.22479600      -5.64383000       0.03157200 </v>
    <v>       3.22479600       5.64383000       0.03157200 </v>
    <v>      -2.10194600       0.00000000       6.07553700 </v>
   </varray>
   <i name="volume">    221.90106089 </i>
   <varray name="rec_basis" >
    <v>       0.15452516      -0.08859232       0.05346088 </v>
    <v>       0.15452516       0.08859232       0.05346088 </v>
    <v>      -0.00160600       0.00000000       0.16403888 </v>
   </varray>
  </crystal>
  <varray name="positions" >
   <v>       0.61844300       0.12117100       0.11953300 </v>
   <v>       0.12117100       0.61844300       0.61953300 </v>
   <v>       0.96295700       0.79032200       0.11881300 </v>
   <v>       0.79032200       0.96295700       0.61881300 </v>
   <v>       0.43973200       0.26728100       0.59904700 </v>
   <v>       0.26728100       0.43973200       0.09904700 </v>
   <v>       0.07949800       0.91167500       0.49891848 </v>
   <v>       0.57140300       0.41236400       0.98018400 </v>
   <v>       0.73711100       0.25006200       0.49504900 </v>
   <v>       0.41236400       0.57140300       0.48018400 </v>
   <v>       0.91167500       0.07949800       0.99736300 </v>
   <v>       0.25006200       0.73711100       0.99504900 </v>
  </varray>
 </structure>
 <calculation>
  <scstep>
   <time name="total">  234.58  234.38</time>
   <energy>
    <i name="alphaZ">    339.31929130 </i>
    <i name="ewald">  -9064.65978207 </i>
    <i name="hartreedc">  -8067.44262879 </i>
    <i name="XCdc">    369.90425301 </i>
    <i name="pawpsdc">  16899.47029191 </i>
    <i name="pawaedc"> -17392.28440768 </i>
    <i name="eentropy">     -0.00146941 </i>
    <i name="bandstr">  -1657.20021288 </i>
    <i name="atom">  18320.98302006 </i>
    <i name="e_fr_energy">     75.54023211 </i>
    <i name="e_wo_entrp">     75.54170153 </i>
    <i name="e_0_energy">     75.54072192 </i>
   </energy>
  </scstep>
  <scstep>
   <time name="total">  240.05  239.89</time>
   <energy>
    <i name="e_fr_energy">     -8.37825477 </i>
    <i name="e_wo_entrp">     -8.37765683 </i>
    <i name="e_0_energy">     -8.37805546 </i>
   </energy>
  </scstep>
  <scstep>
   <time name="total">  246.36  246.16</time>
   <energy>
    <i name="e_fr_energy">    -15.16678242 </i>
    <i name="e_wo_entrp">    -15.16701466 </i>
    <i name="e_0_energy">    -15.16685983 </i>
   </energy>
  </scstep>
  <scstep>
   <time name="total">  244.32  244.11</time>
   <energy>
    <i name="e_fr_energy">    -22.64854488 </i>
    <i name="e_wo_entrp">    -22.64889394 </i>
    <i name="e_0_energy">    -22.64866123 </i>
   </energy>
  </scstep>
  <scstep>
   <time name="total">  242.87  242.67</time>
   <energy>
    <i name="e_fr_energy">    -60.82211680 </i>
    <i name="e_wo_entrp">    -60.82273548 </i>
    <i name="e_0_energy">    -60.82232303 </i>
   </energy>
  </scstep>
  <scstep>
   <time name="total">  242.11  241.92</time>
   <energy>
    <i name="e_fr_energy">    -65.93646500 </i>
    <i name="e_wo_entrp">    -65.93714249 </i>
    <i name="e_0_energy">    -65.93669083 </i>
   </energy>
  </scstep>
  <scstep>
   <time name="total">  241.49  241.29</time>
   <energy>
    <i name="e_fr_energy">    -67.47517118 </i>
    <i name="e_wo_entrp">    -67.47561159 </i>
    <i name="e_0_energy">    -67.47531799 </i>
   </energy>
  </scstep>
  <scstep>
   <time name="total">  242.85  242.63</time>
   <energy>
    <i name="e_fr_energy">    -69.08547020 </i>
    <i name="e_wo_entrp">    -69.08619922 </i>
    <i name="e_0_energy">    -69.08571321 </i>
   </energy>
  </scstep>
  <scstep>
   <time name="total">  242.62  242.41</time>
   <energy>
    <i name="e_fr_energy">    -69.39509703 </i>
    <i name="e_wo_entrp">    -69.39596136 </i>
    <i name="e_0_energy">    -69.39538514 </i>
   </energy>
  </scstep>
  <scstep>
   <time name="total">  242.87  242.67</time>
   <energy>
    <i name="e_fr_energy">    -69.49885408 </i>
    <i name="e_wo_entrp">    -69.49957706 </i>
    <i name="e_0_energy">    -69.49909507 </i>
   </energy>
  </scstep>
  <scstep>
   <time name="total">  244.20  244.00</time>
   <energy>
    <i name="e_fr_energy">    -69.56842449 </i>
    <i name="e_wo_entrp">    -69.56903063 </i>
    <i name="e_0_energy">    -69.56862654 </i>
   </energy>
  </scstep>
  <scstep>
   <time name="total">  244.92  244.71</time>
   <energy>
    <i name="e_fr_energy">    -69.58077085 </i>
    <i name="e_wo_entrp">    -69.58132478 </i>
    <i name="e_0_energy">    -69.58095549 </i>
   </energy>
  </scstep>
  <scstep>
   <time name="total">  244.86  244.66</time>
   <energy>
    <i name="e_fr_energy">    -69.59042432 </i>
    <i name="e_wo_entrp">    -69.59096676 </i>
    <i name="e_0_energy">    -69.59060513 </i>
   </energy>
  </scstep>
  <scstep>
   <time name="total">  244.37  244.19</time>
   <energy>
    <i name="e_fr_energy">    -69.59287606 </i>
    <i name="e_wo_entrp">    -69.59343669 </i>
    <i name="e_0_energy">    -69.59306294 </i>
   </energy>
  </scstep>
  <scstep>
   <time name="total">  246.32  246.15</time>
   <energy>
    <i name="e_fr_energy">    -69.59437954 </i>
    <i name="e_wo_entrp">    -69.59495326 </i>
    <i name="e_0_energy">    -69.59457078 </i>
   </energy>
  </scstep>
  <scstep>
   <time name="total">  247.49  247.30</time>
   <energy>
    <i name="e_fr_energy">    -69.59494939 </i>
    <i name="e_wo_entrp">    -69.59552392 </i>
    <i name="e_0_energy">    -69.59514090 </i>
   </energy>
  </scstep>
  <scstep>
   <time name="total">  248.37  248.19</time>
   <energy>
    <i name="e_fr_energy">    -69.59512192 </i>
    <i name="e_wo_entrp">    -69.59569335 </i>
    <i name="e_0_energy">    -69.59531239 </i>
   </energy>
  </scstep>
  <scstep>
   <time name="total">  246.81  246.61</time>
   <energy>
    <i name="e_fr_energy">    -69.59523873 </i>
    <i name="e_wo_entrp">    -69.59580712 </i>
    <i name="e_0_energy">    -69.59542819 </i>
   </energy>
  </scstep>
  <scstep>
   <time name="total">  247.19  246.98</time>
   <energy>
    <i name="e_fr_energy">    -69.59526746 </i>
    <i name="e_wo_entrp">    -69.59583448 </i>
    <i name="e_0_energy">    -69.59545647 </i>
   </energy>
  </scstep>
  <scstep>
   <time name="total">  252.99  252.77</time>
   <energy>
    <i name="e_fr_energy">    -69.59528713 </i>
    <i name="e_wo_entrp">    -69.59585458 </i>
    <i name="e_0_energy">    -69.59547628 </i>
   </energy>
  </scstep>
  <scstep>
   <time name="total">  253.32  253.11</time>
   <energy>
    <i name="alphaZ">    339.31929130 </i>
    <i name="ewald">  -9064.65978207 </i>
    <i name="hartreedc">  -8149.43636586 </i>
    <i name="XCdc">    372.06746554 </i>
    <i name="pawpsdc">  15921.71190803 </i>
    <i name="pawaedc"> -16406.90198552 </i>
    <i name="eentropy">      0.00056805 </i>
    <i name="bandstr">  -1742.74411617 </i>
    <i name="atom">  18320.98302006 </i>
    <i name="e_fr_energy">    -69.59529448 </i>
    <i name="e_wo_entrp">    -69.59586253 </i>
    <i name="e_0_energy">    -69.59548383 </i>
   </energy>
  </scstep>
  <structure>
   <crystal>
    <varray name="basis" >
     <v>       3.22479600      -5.64383000       0.03157200 </v>
     <v>       3.22479600       5.64383000       0.03157200 </v>
     <v>      -2.10194600       0.00000000       6.07553700 </v>
    </varray>
    <i name="volume">    221.90106089 </i>
    <varray name="rec_basis" >
     <v>       0.15452516      -0.08859232       0.05346088 </v>
     <v>       0.15452516       0.08859232       0.05346088 </v>
     <v>      -0.00160600       0.00000000       0.16403888 </v>
    </varray>
   </crystal>
   <varray name="positions" >
    <v>       0.61844300       0.12117100       0.11953300 </v>
    <v>       0.12117100       0.61844300       0.61953300 </v>
    <v>       0.96295700       0.79032200       0.11881300 </v>
    <v>       0.79032200       0.96295700       0.61881300 </v>
    <v>       0.43973200       0.26728100       0.59904700 </v>
    <v>       0.26728100       0.43973200       0.09904700 </v>
    <v>       0.07949800       0.91167500       0.49891848 </v>
    <v>       0.57140300       0.41236400       0.98018400 </v>
    <v>       0.73711100       0.25006200       0.49504900 </v>
    <v>       0.41236400       0.57140300       0.48018400 </v>
    <v>       0.91167500       0.07949800       0.99736300 </v>
    <v>       0.25006200       0.73711100       0.99504900 </v>
   </varray>
  </structure>
  <varray name="forces" >
   <v>      -0.00196676      -0.00116615      -0.00032904 </v>
   <v>      -0.00909238      -0.01176793       0.00485949 </v>
   <v>       0.00134110      -0.00019421       0.02970847 </v>
   <v>      -0.00281798       0.01363523       0.00428346 </v>
   <v>      -0.00770063       0.00792748       0.00962602 </v>
   <v>       0.00169372      -0.00739427      -0.00058449 </v>
   <v>       0.03567482       0.00041483      -0.07687908 </v>
   <v>       0.00497455      -0.00586479       0.00799555 </v>
   <v>      -0.00710427       0.00172658      -0.00221897 </v>
   <v>      -0.00578145       0.00610051       0.00141722 </v>
   <v>      -0.00300223      -0.00252646       0.01283278 </v>
   <v>      -0.00621850      -0.00089082       0.00928859 </v>
  </varray>
  <energy>
   <i name="e_fr_energy">    -69.59529448 </i>
   <i name="e_wo_entrp">    -69.59548383 </i>
   <i name="e_0_energy">      0.00056805 </i>
  </energy>
  <time name="totalsc"> 5641.76 5640.36</time>
  <eigenvalues>
   <array>
    <dimension dim="1">band</dimension>
    <dimension dim="2">kpoint</dimension>
    <dimension dim="3">spin</dimension>
    <field>eigene</field>
    <field>occ</field>
    <set>
     <set comment="spin 1">
      <set comment="kpoint 1">
       <r>  -68.6522    1.0000 </r>
       <r>  -68.6446    1.0000 </r>
       <r>  -68.6389    1.0000 </r>
       <r>  -68.6240    1.0000 </r>
       <r>  -68.6186    1.0000 </r>
       <r>  -68.6127    1.0000 </r>
       <r>  -68.6018    1.0000 </r>
       <r>  -68.5953    1.0000 </r>
       <r>  -68.5826    1.0000 </r>
       <r>  -68.5671    1.0000 </r>
       <r>  -68.5665    1.0000 </r>
       <r>  -68.5523    1.0000 </r>
       <r>  -12.7208    1.0000 </r>
       <r>  -11.1296    1.0000 </r>
       <r>  -10.9169    1.0000 </r>
       <r>  -10.6027    1.0000 </r>
       <r>  -10.2514    1.0000 </r>
       <r>  -10.2354    1.0000 </r>
       <r>   -5.9841    1.0000 </r>
       <r>   -4.9832    1.0000 </r>
       <r>   -2.7602    1.0000 </r>
       <r>   -2.2101    1.0000 </r>
       <r>   -2.0697    1.0000 </r>
       <r>   -1.9221    1.0000 </r>
       <r>   -1.5785    1.0000 </r>
       <r>   -0.9869    1.0000 </r>
       <r>   -0.9525    1.0000 </r>
       <r>   -0.6829    1.0000 </r>
       <r>   -0.3992    1.0000 </r>
       <r>   -0.2768    1.0000 </r>
       <r>   -0.2630    1.0000 </r>
       <r>   -0.2356    1.0000 </r>
       <r>   -0.1866    1.0000 </r>
       <r>   -0.1590    1.0000 </r>
       <r>   -0.0391    1.0000 </r>
       <r>    0.0353    1.0000 </r>
       <r>    1.3489    1.0000 </r>
       <r>    1.3610    1.0000 </r>
       <r>    1.4134    1.0000 </r>
       <r>    1.4569    1.0000 </r>
       <r>    1.4724    1.0000 </r>
       <r>    1.4747    1.0000 </r>
       <r>    1.5193    1.0000 </r>
       <r>    1.5327    1.0000 </r>
       <r>    1.5738    1.0000 </r>
       <r>    1.7110    1.0000 </r>
       <r>    1.8916    1.0000 </r>
       <r>    1.9260    1.0000 </r>
       <r>    2.0584    1.0000 </r>
       <r>    2.6526    1.0000 </r>
       <r>    2.7297    1.0000 </r>
       <r>    3.0944    1.0000 </r>
       <r>    3.2192    1.0000 </r>
       <r>    4.0053    1.0049 </r>
       <r>    4.0368    1.0133 </r>
       <r>    4.1713    0.8611 </r>
       <r>    5.5391   -0.0000 </r>
       <r>    6.3585   -0.0000 </r>
       <r>    7.6340    0.0000 </r>
       <r>    7.9834    0.0000 </r>
       <r>    8.6167    0.0000 </r>
       <r>    8.7930    0.0000 </r>
       <r>    9.5731    0.0000 </r>
       <r>    9.7388    0.0000 </r>
       <r>    9.8139    0.0000 </r>
       <r>   10.4170    0.0000 </r>
       <r>   10.5818    0.0000 </r>
       <r>   10.6971    0.0000 </r>
       <r>   10.7097    0.0000 </r>
       <r>   11.2769    0.0000 </r>
       <r>   11.7128    0.0000 </r>
       <r>   12.3983    0.0000 </r>
       <r>   12.4523    0.0000 </r>
       <r>   12.7299    0.0000 </r>
       <r>   13.3211    0.0000 </r>
       <r>   13.3817    0.0000 </r>
       <r>   13.8367    0.0000 </r>
       <r>   13.8783    0.0000 </r>
       <r>   14.1471    0.0000 </r>
       <r>   14.1776    0.0000 </r>
      </set>
      <set comment="kpoint 2">
       <r>  -68.6521    1.0000 </r>
       <r>  -68.6446    1.0000 </r>
       <r>  -68.6389    1.0000 </r>
       <r>  -68.6239    1.0000 </r>
       <r>  -68.6185    1.0000 </r>
       <r>  -68.6126    1.0000 </r>
       <r>  -68.6018    1.0000 </r>
       <r>  -68.5953    1.0000 </r>
       <r>  -68.5825    1.0000 </r>
       <r>  -68.5671    1.0000 </r>
       <r>  -68.5664    1.0000 </r>
       <r>  -68.5522    1.0000 </r>
       <r>  -12.5958    1.0000 </r>
       <r>  -11.1278    1.0000 </r>
       <r>  -10.9812    1.0000 </r>
       <r>  -10.6767    1.0000 </r>
       <r>  -10.3665    1.0000 </r>
       <r>  -10.2782    1.0000 </r>
       <r>   -5.9328    1.0000 </r>
       <r>   -4.7733    1.0000 </r>
       <r>   -2.6452    1.0000 </r>
       <r>   -2.2537    1.0000 </r>
       <r>   -2.0855    1.0000 </r>
       <r>   -1.6883    1.0000 </r>
       <r>   -1.3491    1.0000 </r>
       <r>   -0.9977    1.0000 </r>
       <r>   -0.7670    1.0000 </r>
       <r>   -0.6194    1.0000 </r>
       <r>   -0.5551    1.0000 </r>
       <r>   -0.4374    1.0000 </r>
       <r>   -0.3609    1.0000 </r>
       <r>   -0.2434    1.0000 </r>
       <r>   -0.1960    1.0000 </r>
       <r>   -0.1687    1.0000 </r>
       <r>   -0.0473    1.0000 </r>
       <r>    0.0422    1.0000 </r>
       <r>    1.2779    1.0000 </r>
       <r>    1.3337    1.0000 </r>
       <r>    1.3541    1.0000 </r>
       <r>    1.3939    1.0000 </r>
       <r>    1.4266    1.0000 </r>
       <r>    1.4724    1.0000 </r>
       <r>    1.4962    1.0000 </r>
       <r>    1.5330    1.0000 </r>
       <r>    1.7233    1.0000 </r>
       <r>    1.8595    1.0000 </r>
       <r>    2.0562    1.0000 </r>
       <r>    2.0937    1.0000 </r>
       <r>    2.2299    1.0000 </r>
       <r>    2.4143    1.0000 </r>
       <r>    2.5569    1.0000 </r>
       <r>    2.8254    1.0000 </r>
       <r>    2.9509    1.0000 </r>
       <r>    3.2423    1.0000 </r>
       <r>    3.6610    1.0000 </r>
       <r>    4.0386    1.0140 </r>
       <r>    6.1714   -0.0000 </r>
       <r>    6.9053   -0.0000 </r>
       <r>    8.1371    0.0000 </r>
       <r>    8.2672    0.0000 </r>
       <r>    8.5949    0.0000 </r>
       <r>    9.0125    0.0000 </r>
       <r>    9.2432    0.0000 </r>
       <r>    9.5316    0.0000 </r>
       <r>    9.8613    0.0000 </r>
       <r>   10.3755    0.0000 </r>
       <r>   10.6327    0.0000 </r>
       <r>   10.8147    0.0000 </r>
       <r>   10.9386    0.0000 </r>
       <r>   11.1930    0.0000 </r>
       <r>   11.6608    0.0000 </r>
       <r>   11.7712    0.0000 </r>
       <r>   12.1158    0.0000 </r>
       <r>   12.4406    0.0000 </r>
       <r>   12.6171    0.0000 </r>
       <r>   13.0102    0.0000 </r>
       <r>   13.5012    0.0000 </r>
       <r>   13.8779    0.0000 </r>
       <r>   14.2165    0.0000 </r>
       <r>   14.7058    0.0000 </r>
      </set>
      <set comment="kpoint 3">
       <r>  -68.6520    1.0000 </r>
       <r>  -68.6444    1.0000 </r>
       <r>  -68.6388    1.0000 </r>
       <r>  -68.6238    1.0000 </r>
       <r>  -68.6184    1.0000 </r>
       <r>  -68.6126    1.0000 </r>
       <r>  -68.6017    1.0000 </r>
       <r>  -68.5952    1.0000 </r>
       <r>  -68.5825    1.0000 </r>
       <r>  -68.5669    1.0000 </r>
       <r>  -68.5663    1.0000 </r>
       <r>  -68.5521    1.0000 </r>
       <r>  -12.4365    1.0000 </r>
       <r>  -11.2496    1.0000 </r>
       <r>  -10.9550    1.0000 </r>
       <r>  -10.7639    1.0000 </r>
       <r>  -10.4276    1.0000 </r>
       <r>  -10.3597    1.0000 </r>
       <r>   -5.8709    1.0000 </r>
       <r>   -4.5489    1.0000 </r>
       <r>   -2.4926    1.0000 </r>
       <r>   -2.2481    1.0000 </r>
       <r>   -1.9446    1.0000 </r>
       <r>   -1.4608    1.0000 </r>
       <r>   -1.2284    1.0000 </r>
       <r>   -1.0976    1.0000 </r>
       <r>   -0.9018    1.0000 </r>
       <r>   -0.8636    1.0000 </r>
       <r>   -0.5973    1.0000 </r>
       <r>   -0.5361    1.0000 </r>
       <r>   -0.2743    1.0000 </r>
       <r>   -0.2114    1.0000 </r>
       <r>   -0.2018    1.0000 </r>
       <r>   -0.1439    1.0000 </r>
       <r>   -0.0310    1.0000 </r>
       <r>    0.0822    1.0000 </r>
       <r>    1.2531    1.0000 </r>
       <r>    1.3240    1.0000 </r>
       <r>    1.3500    1.0000 </r>
       <r>    1.3976    1.0000 </r>
       <r>    1.4707    1.0000 </r>
       <r>    1.4785    1.0000 </r>
       <r>    1.4994    1.0000 </r>
       <r>    1.5567    1.0000 </r>
       <r>    1.7536    1.0000 </r>
       <r>    1.7934    1.0000 </r>
       <r>    1.9641    1.0000 </r>
       <r>    2.1486    1.0000 </r>
       <r>    2.3180    1.0000 </r>
       <r>    2.3583    1.0000 </r>
       <r>    2.5552    1.0000 </r>
       <r>    2.6705    1.0000 </r>
       <r>    2.9392    1.0000 </r>
       <r>    3.0778    1.0000 </r>
       <r>    3.2505    1.0000 </r>
       <r>    3.8600    1.0000 </r>
       <r>    6.3850   -0.0000 </r>
       <r>    7.0957    0.0000 </r>
       <r>    7.9770    0.0000 </r>
       <r>    8.2013    0.0000 </r>
       <r>    8.5196    0.0000 </r>
       <r>    8.8242    0.0000 </r>
       <r>    9.3257    0.0000 </r>
       <r>    9.8934    0.0000 </r>
       <r>   10.0070    0.0000 </r>
       <r>   10.5164    0.0000 </r>
       <r>   10.6948    0.0000 </r>
       <r>   10.7923    0.0000 </r>
       <r>   11.1475    0.0000 </r>
       <r>   11.4089    0.0000 </r>
       <r>   11.6143    0.0000 </r>
       <r>   11.7757    0.0000 </r>
       <r>   11.9374    0.0000 </r>
       <r>   12.5035    0.0000 </r>
       <r>   12.7791    0.0000 </r>
       <r>   12.9955    0.0000 </r>
       <r>   13.3966    0.0000 </r>
       <r>   13.5496    0.0000 </r>
       <r>   13.9353    0.0000 </r>
       <r>   14.2768    0.0000 </r>
      </set>
      <set comment="kpoint 4">
       <r>  -68.6521    1.0000 </r>
       <r>  -68.6445    1.0000 </r>
       <r>  -68.6389    1.0000 </r>
       <r>  -68.6239    1.0000 </r>
       <r>  -68.6185    1.0000 </r>
       <r>  -68.6126    1.0000 </r>
       <r>  -68.6018    1.0000 </r>
       <r>  -68.5953    1.0000 </r>
       <r>  -68.5825    1.0000 </r>
       <r>  -68.5671    1.0000 </r>
       <r>  -68.5664    1.0000 </r>
       <r>  -68.5522    1.0000 </r>
       <r>  -12.5958    1.0000 </r>
       <r>  -11.1273    1.0000 </r>
       <r>  -10.9826    1.0000 </r>
       <r>  -10.6752    1.0000 </r>
       <r>  -10.3674    1.0000 </r>
       <r>  -10.2778    1.0000 </r>
       <r>   -5.9332    1.0000 </r>
       <r>   -4.7730    1.0000 </r>
       <r>   -2.6453    1.0000 </r>
       <r>   -2.2514    1.0000 </r>
       <r>   -2.0883    1.0000 </r>
       <r>   -1.6897    1.0000 </r>
       <r>   -1.3461    1.0000 </r>
       <r>   -0.9958    1.0000 </r>
       <r>   -0.7683    1.0000 </r>
       <r>   -0.6232    1.0000 </r>
       <r>   -0.5515    1.0000 </r>
       <r>   -0.4423    1.0000 </r>
       <r>   -0.3608    1.0000 </r>
       <r>   -0.2418    1.0000 </r>
       <r>   -0.1927    1.0000 </r>
       <r>   -0.1697    1.0000 </r>
       <r>   -0.0458    1.0000 </r>
       <r>    0.0404    1.0000 </r>
       <r>    1.2778    1.0000 </r>
       <r>    1.3377    1.0000 </r>
       <r>    1.3553    1.0000 </r>
       <r>    1.3890    1.0000 </r>
       <r>    1.4262    1.0000 </r>
       <r>    1.4706    1.0000 </r>
       <r>    1.5013    1.0000 </r>
       <r>    1.5281    1.0000 </r>
       <r>    1.7251    1.0000 </r>
       <r>    1.8583    1.0000 </r>
       <r>    2.0564    1.0000 </r>
       <r>    2.0958    1.0000 </r>
       <r>    2.2290    1.0000 </r>
       <r>    2.4140    1.0000 </r>
       <r>    2.5577    1.0000 </r>
       <r>    2.8282    1.0000 </r>
       <r>    2.9471    1.0000 </r>
       <r>    3.2408    1.0000 </r>
       <r>    3.6613    1.0000 </r>
       <r>    4.0401    1.0146 </r>
       <r>    6.1716   -0.0000 </r>
       <r>    6.9063   -0.0000 </r>
       <r>    8.1397    0.0000 </r>
       <r>    8.2639    0.0000 </r>
       <r>    8.5940    0.0000 </r>
       <r>    9.0142    0.0000 </r>
       <r>    9.2443    0.0000 </r>
       <r>    9.5262    0.0000 </r>
       <r>    9.8661    0.0000 </r>
       <r>   10.3746    0.0000 </r>
       <r>   10.6357    0.0000 </r>
       <r>   10.8121    0.0000 </r>
       <r>   10.9396    0.0000 </r>
       <r>   11.1885    0.0000 </r>
       <r>   11.6565    0.0000 </r>
       <r>   11.7729    0.0000 </r>
       <r>   12.1170    0.0000 </r>
       <r>   12.4462    0.0000 </r>
       <r>   12.6197    0.0000 </r>
       <r>   13.0035    0.0000 </r>
       <r>   13.5206    0.0000 </r>
       <r>   13.8966    0.0000 </r>
       <r>   14.2725    0.0000 </r>
       <r>   14.8394    0.0000 </r>
      </set>
      <set comment="kpoint 5">
       <r>  -68.6521    1.0000 </r>
       <r>  -68.6446    1.0000 </r>
       <r>  -68.6388    1.0000 </r>
       <r>  -68.6238    1.0000 </r>
       <r>  -68.6186    1.0000 </r>
       <r>  -68.6127    1.0000 </r>
       <r>  -68.6017    1.0000 </r>
       <r>  -68.5952    1.0000 </r>
       <r>  -68.5827    1.0000 </r>
       <r>  -68.5671    1.0000 </r>
       <r>  -68.5665    1.0000 </r>
       <r>  -68.5522    1.0000 </r>
       <r>  -12.4403    1.0000 </r>
       <r>  -11.1913    1.0000 </r>
       <r>  -10.9420    1.0000 </r>
       <r>  -10.8767    1.0000 </r>
       <r>  -10.3914    1.0000 </r>
       <r>  -10.3516    1.0000 </r>
       <r>   -5.8763    1.0000 </r>
       <r>   -4.5219    1.0000 </r>
       <r>   -2.4170    1.0000 </r>
       <r>   -2.2463    1.0000 </r>
       <r>   -1.7920    1.0000 </r>
       <r>   -1.6819    1.0000 </r>
       <r>   -1.3553    1.0000 </r>
       <r>   -1.3016    1.0000 </r>
       <r>   -1.0742    1.0000 </r>
       <r>   -0.6808    1.0000 </r>
       <r>   -0.5256    1.0000 </r>
       <r>   -0.2971    1.0000 </r>
       <r>   -0.2822    1.0000 </r>
       <r>   -0.2242    1.0000 </r>
       <r>   -0.1881    1.0000 </r>
       <r>   -0.1273    1.0000 </r>
       <r>   -0.0957    1.0000 </r>
       <r>    0.0814    1.0000 </r>
       <r>    1.2928    1.0000 </r>
       <r>    1.3115    1.0000 </r>
       <r>    1.4147    1.0000 </r>
       <r>    1.4250    1.0000 </r>
       <r>    1.4618    1.0000 </r>
       <r>    1.4828    1.0000 </r>
       <r>    1.4953    1.0000 </r>
       <r>    1.5716    1.0000 </r>
       <r>    1.6711    1.0000 </r>
       <r>    1.8800    1.0000 </r>
       <r>    1.9403    1.0000 </r>
       <r>    2.1348    1.0000 </r>
       <r>    2.2800    1.0000 </r>
       <r>    2.3208    1.0000 </r>
       <r>    2.5591    1.0000 </r>
       <r>    2.6495    1.0000 </r>
       <r>    2.9024    1.0000 </r>
       <r>    2.9457    1.0000 </r>
       <r>    3.6975    1.0000 </r>
       <r>    3.8322    1.0000 </r>
       <r>    6.1715   -0.0000 </r>
       <r>    6.9878    0.0000 </r>
       <r>    8.0013    0.0000 </r>
       <r>    8.3262    0.0000 </r>
       <r>    8.4349    0.0000 </r>
       <r>    8.5713    0.0000 </r>
       <r>    9.1469    0.0000 </r>
       <r>    9.2475    0.0000 </r>
       <r>   10.3622    0.0000 </r>
       <r>   10.4935    0.0000 </r>
       <r>   10.9240    0.0000 </r>
       <r>   11.1871    0.0000 </r>
       <r>   11.3248    0.0000 </r>
       <r>   11.5620    0.0000 </r>
       <r>   11.8161    0.0000 </r>
       <r>   11.9623    0.0000 </r>
       <r>   12.3174    0.0000 </r>
       <r>   12.5041    0.0000 </r>
       <r>   12.7099    0.0000 </r>
       <r>   12.9144    0.0000 </r>
       <r>   13.3411    0.0000 </r>
       <r>   13.4434    0.0000 </r>
       <r>   14.2587    0.0000 </r>
       <r>   14.3647    0.0000 </r>
      </set>
      <set comment="kpoint 6">
       <r>  -68.6519    1.0000 </r>
       <r>  -68.6443    1.0000 </r>
       <r>  -68.6388    1.0000 </r>
       <r>  -68.6238    1.0000 </r>
       <r>  -68.6185    1.0000 </r>
       <r>  -68.6125    1.0000 </r>
       <r>  -68.6018    1.0000 </r>
       <r>  -68.5952    1.0000 </r>
       <r>  -68.5825    1.0000 </r>
       <r>  -68.5669    1.0000 </r>
       <r>  -68.5663    1.0000 </r>
       <r>  -68.5521    1.0000 </r>
       <r>  -12.4406    1.0000 </r>
       <r>  -11.3546    1.0000 </r>
       <r>  -10.9368    1.0000 </r>
       <r>  -10.7369    1.0000 </r>
       <r>  -10.3906    1.0000 </r>
       <r>  -10.2718    1.0000 </r>
       <r>   -5.9477    1.0000 </r>
       <r>   -4.6423    1.0000 </r>
       <r>   -2.3924    1.0000 </r>
       <r>   -2.2274    1.0000 </r>
       <r>   -2.0576    1.0000 </r>
       <r>   -1.6407    1.0000 </r>
       <r>   -1.3651    1.0000 </r>
       <r>   -1.2814    1.0000 </r>
       <r>   -1.0162    1.0000 </r>
       <r>   -0.5111    1.0000 </r>
       <r>   -0.4854    1.0000 </r>
       <r>   -0.3323    1.0000 </r>
       <r>   -0.2811    1.0000 </r>
       <r>   -0.2121    1.0000 </r>
       <r>   -0.1506    1.0000 </r>
       <r>   -0.1358    1.0000 </r>
       <r>   -0.0129    1.0000 </r>
       <r>    0.1144    1.0000 </r>
       <r>    1.2454    1.0000 </r>
       <r>    1.3167    1.0000 </r>
       <r>    1.3790    1.0000 </r>
       <r>    1.4370    1.0000 </r>
       <r>    1.4598    1.0000 </r>
       <r>    1.4910    1.0000 </r>
       <r>    1.4997    1.0000 </r>
       <r>    1.5531    1.0000 </r>
       <r>    1.7507    1.0000 </r>
       <r>    1.8267    1.0000 </r>
       <r>    1.9192    1.0000 </r>
       <r>    2.1356    1.0000 </r>
       <r>    2.2192    1.0000 </r>
       <r>    2.3842    1.0000 </r>
       <r>    2.5618    1.0000 </r>
       <r>    2.7898    1.0000 </r>
       <r>    2.9806    1.0000 </r>
       <r>    3.3112    1.0000 </r>
       <r>    3.6023    1.0000 </r>
       <r>    3.7471    1.0000 </r>
       <r>    6.0892   -0.0000 </r>
       <r>    6.9373   -0.0000 </r>
       <r>    7.6141    0.0000 </r>
       <r>    8.0673    0.0000 </r>
       <r>    8.4086    0.0000 </r>
       <r>    8.6159    0.0000 </r>
       <r>    8.9848    0.0000 </r>
       <r>    9.1522    0.0000 </r>
       <r>   10.0875    0.0000 </r>
       <r>   10.3342    0.0000 </r>
       <r>   10.7303    0.0000 </r>
       <r>   11.1103    0.0000 </r>
       <r>   11.4603    0.0000 </r>
       <r>   11.5971    0.0000 </r>
       <r>   11.7993    0.0000 </r>
       <r>   12.0814    0.0000 </r>
       <r>   12.4778    0.0000 </r>
       <r>   12.9201    0.0000 </r>
       <r>   13.0302    0.0000 </r>
       <r>   13.8350    0.0000 </r>
       <r>   14.2173    0.0000 </r>
       <r>   14.6572    0.0000 </r>
       <r>   15.4315    0.0000 </r>
       <r>   15.6411    0.0000 </r>
      </set>
      <set comment="kpoint 7">
       <r>  -68.6521    1.0000 </r>
       <r>  -68.6446    1.0000 </r>
       <r>  -68.6388    1.0000 </r>
       <r>  -68.6239    1.0000 </r>
       <r>  -68.6184    1.0000 </r>
       <r>  -68.6125    1.0000 </r>
       <r>  -68.6018    1.0000 </r>
       <r>  -68.5953    1.0000 </r>
       <r>  -68.5825    1.0000 </r>
       <r>  -68.5671    1.0000 </r>
       <r>  -68.5664    1.0000 </r>
       <r>  -68.5522    1.0000 </r>
       <r>  -12.5987    1.0000 </r>
       <r>  -11.2520    1.0000 </r>
       <r>  -10.9907    1.0000 </r>
       <r>  -10.5691    1.0000 </r>
       <r>  -10.3679    1.0000 </r>
       <r>  -10.1801    1.0000 </r>
       <r>   -6.0098    1.0000 </r>
       <r>   -4.8942    1.0000 </r>
       <r>   -2.6474    1.0000 </r>
       <r>   -2.3156    1.0000 </r>
       <r>   -1.9731    1.0000 </r>
       <r>   -1.6462    1.0000 </r>
       <r>   -1.4936    1.0000 </r>
       <r>   -1.1844    1.0000 </r>
       <r>   -0.7886    1.0000 </r>
       <r>   -0.5872    1.0000 </r>
       <r>   -0.4505    1.0000 </r>
       <r>   -0.3349    1.0000 </r>
       <r>   -0.2945    1.0000 </r>
       <r>   -0.2306    1.0000 </r>
       <r>   -0.1729    1.0000 </r>
       <r>   -0.1297    1.0000 </r>
       <r>   -0.0073    1.0000 </r>
       <r>    0.0722    1.0000 </r>
       <r>    1.2592    1.0000 </r>
       <r>    1.3208    1.0000 </r>
       <r>    1.3637    1.0000 </r>
       <r>    1.4230    1.0000 </r>
       <r>    1.4317    1.0000 </r>
       <r>    1.4760    1.0000 </r>
       <r>    1.5044    1.0000 </r>
       <r>    1.5412    1.0000 </r>
       <r>    1.7233    1.0000 </r>
       <r>    1.8122    1.0000 </r>
       <r>    1.9952    1.0000 </r>
       <r>    2.0728    1.0000 </r>
       <r>    2.4156    1.0000 </r>
       <r>    2.4637    1.0000 </r>
       <r>    2.5277    1.0000 </r>
       <r>    2.8750    1.0000 </r>
       <r>    3.1402    1.0000 </r>
       <r>    3.2299    1.0000 </r>
       <r>    3.7831    1.0000 </r>
       <r>    4.0682    1.0270 </r>
       <r>    5.9823   -0.0000 </r>
       <r>    6.6939   -0.0000 </r>
       <r>    7.5322    0.0000 </r>
       <r>    8.2193    0.0000 </r>
       <r>    8.6170    0.0000 </r>
       <r>    8.9147    0.0000 </r>
       <r>    9.3080    0.0000 </r>
       <r>    9.4317    0.0000 </r>
       <r>    9.8068    0.0000 </r>
       <r>   10.2689    0.0000 </r>
       <r>   10.5381    0.0000 </r>
       <r>   10.8262    0.0000 </r>
       <r>   10.9710    0.0000 </r>
       <r>   11.3853    0.0000 </r>
       <r>   11.4686    0.0000 </r>
       <r>   11.7328    0.0000 </r>
       <r>   12.1028    0.0000 </r>
       <r>   12.6641    0.0000 </r>
       <r>   12.9429    0.0000 </r>
       <r>   13.1038    0.0000 </r>
       <r>   13.3434    0.0000 </r>
       <r>   13.5193    0.0000 </r>
       <r>   14.4829    0.0000 </r>
       <r>   14.7541    0.0000 </r>
      </set>
      <set comment="kpoint 8">
       <r>  -68.6520    1.0000 </r>
       <r>  -68.6444    1.0000 </r>
       <r>  -68.6388    1.0000 </r>
       <r>  -68.6238    1.0000 </r>
       <r>  -68.6185    1.0000 </r>
       <r>  -68.6126    1.0000 </r>
       <r>  -68.6017    1.0000 </r>
       <r>  -68.5952    1.0000 </r>
       <r>  -68.5825    1.0000 </r>
       <r>  -68.5670    1.0000 </r>
       <r>  -68.5664    1.0000 </r>
       <r>  -68.5520    1.0000 </r>
       <r>  -12.4365    1.0000 </r>
       <r>  -11.2497    1.0000 </r>
       <r>  -10.9557    1.0000 </r>
       <r>  -10.7629    1.0000 </r>
       <r>  -10.4293    1.0000 </r>
       <r>  -10.3582    1.0000 </r>
       <r>   -5.8715    1.0000 </r>
       <r>   -4.5483    1.0000 </r>
       <r>   -2.4952    1.0000 </r>
       <r>   -2.2434    1.0000 </r>
       <r>   -1.9459    1.0000 </r>
       <r>   -1.4613    1.0000 </r>
       <r>   -1.2274    1.0000 </r>
       <r>   -1.1023    1.0000 </r>
       <r>   -0.9016    1.0000 </r>
       <r>   -0.8566    1.0000 </r>
       <r>   -0.6006    1.0000 </r>
       <r>   -0.5396    1.0000 </r>
       <r>   -0.2718    1.0000 </r>
       <r>   -0.2052    1.0000 </r>
       <r>   -0.2029    1.0000 </r>
       <r>   -0.1459    1.0000 </r>
       <r>   -0.0316    1.0000 </r>
       <r>    0.0805    1.0000 </r>
       <r>    1.2546    1.0000 </r>
       <r>    1.3293    1.0000 </r>
       <r>    1.3440    1.0000 </r>
       <r>    1.3956    1.0000 </r>
       <r>    1.4708    1.0000 </r>
       <r>    1.4826    1.0000 </r>
       <r>    1.4999    1.0000 </r>
       <r>    1.5502    1.0000 </r>
       <r>    1.7499    1.0000 </r>
       <r>    1.7908    1.0000 </r>
       <r>    1.9727    1.0000 </r>
       <r>    2.1447    1.0000 </r>
       <r>    2.3251    1.0000 </r>
       <r>    2.3643    1.0000 </r>
       <r>    2.5518    1.0000 </r>
       <r>    2.6666    1.0000 </r>
       <r>    2.9356    1.0000 </r>
       <r>    3.0779    1.0000 </r>
       <r>    3.2494    1.0000 </r>
       <r>    3.8634    1.0000 </r>
       <r>    6.3852   -0.0000 </r>
       <r>    7.0949    0.0000 </r>
       <r>    7.9800    0.0000 </r>
       <r>    8.2036    0.0000 </r>
       <r>    8.5187    0.0000 </r>
       <r>    8.8230    0.0000 </r>
       <r>    9.3232    0.0000 </r>
       <r>    9.8912    0.0000 </r>
       <r>   10.0122    0.0000 </r>
       <r>   10.5114    0.0000 </r>
       <r>   10.6917    0.0000 </r>
       <r>   10.7959    0.0000 </r>
       <r>   11.1419    0.0000 </r>
       <r>   11.4075    0.0000 </r>
       <r>   11.6097    0.0000 </r>
       <r>   11.7761    0.0000 </r>
       <r>   11.9484    0.0000 </r>
       <r>   12.5046    0.0000 </r>
       <r>   12.8268    0.0000 </r>
       <r>   13.0350    0.0000 </r>
       <r>   13.5490    0.0000 </r>
       <r>   13.6807    0.0000 </r>
       <r>   14.5502    0.0000 </r>
       <r>   15.2559    0.0000 </r>
      </set>
      <set comment="kpoint 9">
       <r>  -68.6519    1.0000 </r>
       <r>  -68.6443    1.0000 </r>
       <r>  -68.6388    1.0000 </r>
       <r>  -68.6238    1.0000 </r>
       <r>  -68.6185    1.0000 </r>
       <r>  -68.6125    1.0000 </r>
       <r>  -68.6018    1.0000 </r>
       <r>  -68.5952    1.0000 </r>
       <r>  -68.5824    1.0000 </r>
       <r>  -68.5669    1.0000 </r>
       <r>  -68.5664    1.0000 </r>
       <r>  -68.5521    1.0000 </r>
       <r>  -12.4406    1.0000 </r>
       <r>  -11.3547    1.0000 </r>
       <r>  -10.9370    1.0000 </r>
       <r>  -10.7368    1.0000 </r>
       <r>  -10.3901    1.0000 </r>
       <r>  -10.2721    1.0000 </r>
       <r>   -5.9480    1.0000 </r>
       <r>   -4.6420    1.0000 </r>
       <r>   -2.3927    1.0000 </r>
       <r>   -2.2265    1.0000 </r>
       <r>   -2.0585    1.0000 </r>
       <r>   -1.6418    1.0000 </r>
       <r>   -1.3600    1.0000 </r>
       <r>   -1.2835    1.0000 </r>
       <r>   -1.0175    1.0000 </r>
       <r>   -0.5157    1.0000 </r>
       <r>   -0.4815    1.0000 </r>
       <r>   -0.3300    1.0000 </r>
       <r>   -0.2814    1.0000 </r>
       <r>   -0.2149    1.0000 </r>
       <r>   -0.1510    1.0000 </r>
       <r>   -0.1363    1.0000 </r>
       <r>   -0.0093    1.0000 </r>
       <r>    0.1128    1.0000 </r>
       <r>    1.2473    1.0000 </r>
       <r>    1.3144    1.0000 </r>
       <r>    1.3837    1.0000 </r>
       <r>    1.4366    1.0000 </r>
       <r>    1.4617    1.0000 </r>
       <r>    1.4899    1.0000 </r>
       <r>    1.4971    1.0000 </r>
       <r>    1.5485    1.0000 </r>
       <r>    1.7463    1.0000 </r>
       <r>    1.8289    1.0000 </r>
       <r>    1.9238    1.0000 </r>
       <r>    2.1339    1.0000 </r>
       <r>    2.2219    1.0000 </r>
       <r>    2.3868    1.0000 </r>
       <r>    2.5585    1.0000 </r>
       <r>    2.7912    1.0000 </r>
       <r>    2.9780    1.0000 </r>
       <r>    3.3097    1.0000 </r>
       <r>    3.6027    1.0000 </r>
       <r>    3.7492    1.0000 </r>
       <r>    6.0890   -0.0000 </r>
       <r>    6.9385   -0.0000 </r>
       <r>    7.6152    0.0000 </r>
       <r>    8.0651    0.0000 </r>
       <r>    8.4098    0.0000 </r>
       <r>    8.6158    0.0000 </r>
       <r>    8.9803    0.0000 </r>
       <r>    9.1545    0.0000 </r>
       <r>   10.0883    0.0000 </r>
       <r>   10.3361    0.0000 </r>
       <r>   10.7309    0.0000 </r>
       <r>   11.1101    0.0000 </r>
       <r>   11.4511    0.0000 </r>
       <r>   11.5795    0.0000 </r>
       <r>   11.7840    0.0000 </r>
       <r>   12.0337    0.0000 </r>
       <r>   12.5202    0.0000 </r>
       <r>   12.6826    0.0000 </r>
       <r>   12.9136    0.0000 </r>
       <r>   13.2113    0.0000 </r>
       <r>   14.2294    0.0000 </r>
       <r>   14.7728    0.0000 </r>
       <r>   15.2623    0.0000 </r>
       <r>   15.9090    0.0000 </r>
      </set>
      <set comment="kpoint 10">
       <r>  -68.6518    1.0000 </r>
       <r>  -68.6442    1.0000 </r>
       <r>  -68.6387    1.0000 </r>
       <r>  -68.6237    1.0000 </r>
       <r>  -68.6183    1.0000 </r>
       <r>  -68.6124    1.0000 </r>
       <r>  -68.6016    1.0000 </r>
       <r>  -68.5950    1.0000 </r>
       <r>  -68.5824    1.0000 </r>
       <r>  -68.5667    1.0000 </r>
       <r>  -68.5662    1.0000 </r>
       <r>  -68.5519    1.0000 </r>
       <r>  -12.4324    1.0000 </r>
       <r>  -11.5020    1.0000 </r>
       <r>  -10.9123    1.0000 </r>
       <r>  -10.6166    1.0000 </r>
       <r>  -10.3991    1.0000 </r>
       <r>  -10.1995    1.0000 </r>
       <r>   -6.0264    1.0000 </r>
       <r>   -4.8100    1.0000 </r>
       <r>   -2.3123    1.0000 </r>
       <r>   -2.2660    1.0000 </r>
       <r>   -2.0946    1.0000 </r>
       <r>   -1.7044    1.0000 </r>
       <r>   -1.2462    1.0000 </r>
       <r>   -1.1063    1.0000 </r>
       <r>   -0.8428    1.0000 </r>
       <r>   -0.7822    1.0000 </r>
       <r>   -0.7315    1.0000 </r>
       <r>   -0.2430    1.0000 </r>
       <r>   -0.1983    1.0000 </r>
       <r>   -0.1810    1.0000 </r>
       <r>   -0.1485    1.0000 </r>
       <r>   -0.0390    1.0000 </r>
       <r>   -0.0011    1.0000 </r>
       <r>    0.1848    1.0000 </r>
       <r>    1.2672    1.0000 </r>
       <r>    1.3170    1.0000 </r>
       <r>    1.3742    1.0000 </r>
       <r>    1.4140    1.0000 </r>
       <r>    1.4362    1.0000 </r>
       <r>    1.4909    1.0000 </r>
       <r>    1.5075    1.0000 </r>
       <r>    1.5482    1.0000 </r>
       <r>    1.7853    1.0000 </r>
       <r>    1.8465    1.0000 </r>
       <r>    1.9958    1.0000 </r>
       <r>    2.1512    1.0000 </r>
       <r>    2.2532    1.0000 </r>
       <r>    2.3355    1.0000 </r>
       <r>    2.5607    1.0000 </r>
       <r>    2.7633    1.0000 </r>
       <r>    2.7755    1.0000 </r>
       <r>    3.3651    1.0000 </r>
       <r>    3.7646    1.0000 </r>
       <r>    4.0058    1.0050 </r>
       <r>    5.8576   -0.0000 </r>
       <r>    6.7742   -0.0000 </r>
       <r>    7.0784    0.0000 </r>
       <r>    8.4141    0.0000 </r>
       <r>    8.5579    0.0000 </r>
       <r>    8.7673    0.0000 </r>
       <r>    9.1407    0.0000 </r>
       <r>    9.2406    0.0000 </r>
       <r>    9.9603    0.0000 </r>
       <r>   10.2822    0.0000 </r>
       <r>   10.7209    0.0000 </r>
       <r>   10.8248    0.0000 </r>
       <r>   10.8781    0.0000 </r>
       <r>   11.2745    0.0000 </r>
       <r>   11.7500    0.0000 </r>
       <r>   11.9216    0.0000 </r>
       <r>   11.9701    0.0000 </r>
       <r>   12.3656    0.0000 </r>
       <r>   12.5381    0.0000 </r>
       <r>   13.4585    0.0000 </r>
       <r>   14.2815    0.0000 </r>
       <r>   14.6727    0.0000 </r>
       <r>   16.7491    0.0000 </r>
       <r>   16.7560    0.0000 </r>
      </set>
      <set comment="kpoint 11">
       <r>  -68.6522    1.0000 </r>
       <r>  -68.6446    1.0000 </r>
       <r>  -68.6389    1.0000 </r>
       <r>  -68.6239    1.0000 </r>
       <r>  -68.6185    1.0000 </r>
       <r>  -68.6126    1.0000 </r>
       <r>  -68.6018    1.0000 </r>
       <r>  -68.5953    1.0000 </r>
       <r>  -68.5826    1.0000 </r>
       <r>  -68.5671    1.0000 </r>
       <r>  -68.5664    1.0000 </r>
       <r>  -68.5523    1.0000 </r>
       <r>  -12.6176    1.0000 </r>
       <r>  -11.4254    1.0000 </r>
       <r>  -10.7782    1.0000 </r>
       <r>  -10.6078    1.0000 </r>
       <r>  -10.2502    1.0000 </r>
       <r>  -10.2374    1.0000 </r>
       <r>   -5.8309    1.0000 </r>
       <r>   -5.0470    1.0000 </r>
       <r>   -2.5997    1.0000 </r>
       <r>   -2.3720    1.0000 </r>
       <r>   -1.9622    1.0000 </r>
       <r>   -1.7754    1.0000 </r>
       <r>   -1.4453    1.0000 </r>
       <r>   -1.1270    1.0000 </r>
       <r>   -1.0661    1.0000 </r>
       <r>   -0.7710    1.0000 </r>
       <r>   -0.4673    1.0000 </r>
       <r>   -0.2922    1.0000 </r>
       <r>   -0.2416    1.0000 </r>
       <r>   -0.2351    1.0000 </r>
       <r>   -0.1938    1.0000 </r>
       <r>   -0.1480    1.0000 </r>
       <r>   -0.0160    1.0000 </r>
       <r>    0.0273    1.0000 </r>
       <r>    1.3323    1.0000 </r>
       <r>    1.3803    1.0000 </r>
       <r>    1.4150    1.0000 </r>
       <r>    1.4391    1.0000 </r>
       <r>    1.4621    1.0000 </r>
       <r>    1.4709    1.0000 </r>
       <r>    1.5133    1.0000 </r>
       <r>    1.5466    1.0000 </r>
       <r>    1.6325    1.0000 </r>
       <r>    1.7572    1.0000 </r>
       <r>    1.7863    1.0000 </r>
       <r>    1.9501    1.0000 </r>
       <r>    2.0882    1.0000 </r>
       <r>    2.6598    1.0000 </r>
       <r>    2.7195    1.0000 </r>
       <r>    3.1981    1.0000 </r>
       <r>    3.2552    1.0000 </r>
       <r>    3.5195    1.0000 </r>
       <r>    3.8938    1.0000 </r>
       <r>    3.9766    1.0016 </r>
       <r>    6.0457   -0.0000 </r>
       <r>    6.4154   -0.0000 </r>
       <r>    7.8208    0.0000 </r>
       <r>    7.9106    0.0000 </r>
       <r>    8.3681    0.0000 </r>
       <r>    8.8217    0.0000 </r>
       <r>    9.7780    0.0000 </r>
       <r>    9.7943    0.0000 </r>
       <r>   10.0616    0.0000 </r>
       <r>   10.5804    0.0000 </r>
       <r>   10.6427    0.0000 </r>
       <r>   10.8105    0.0000 </r>
       <r>   10.8555    0.0000 </r>
       <r>   11.4923    0.0000 </r>
       <r>   11.5598    0.0000 </r>
       <r>   12.0306    0.0000 </r>
       <r>   12.5750    0.0000 </r>
       <r>   12.7757    0.0000 </r>
       <r>   12.9149    0.0000 </r>
       <r>   13.2073    0.0000 </r>
       <r>   13.5366    0.0000 </r>
       <r>   13.8203    0.0000 </r>
       <r>   14.1947    0.0000 </r>
       <r>   14.7041    0.0000 </r>
      </set>
      <set comment="kpoint 12">
       <r>  -68.6521    1.0000 </r>
       <r>  -68.6445    1.0000 </r>
       <r>  -68.6389    1.0000 </r>
       <r>  -68.6239    1.0000 </r>
       <r>  -68.6186    1.0000 </r>
       <r>  -68.6127    1.0000 </r>
       <r>  -68.6018    1.0000 </r>
       <r>  -68.5953    1.0000 </r>
       <r>  -68.5826    1.0000 </r>
       <r>  -68.5670    1.0000 </r>
       <r>  -68.5665    1.0000 </r>
       <r>  -68.5522    1.0000 </r>
       <r>  -12.4586    1.0000 </r>
       <r>  -11.4668    1.0000 </r>
       <r>  -10.8631    1.0000 </r>
       <r>  -10.6891    1.0000 </r>
       <r>  -10.3735    1.0000 </r>
       <r>  -10.2462    1.0000 </r>
       <r>   -5.7668    1.0000 </r>
       <r>   -4.8047    1.0000 </r>
       <r>   -2.4428    1.0000 </r>
       <r>   -2.2345    1.0000 </r>
       <r>   -1.8509    1.0000 </r>
       <r>   -1.7136    1.0000 </r>
       <r>   -1.4355    1.0000 </r>
       <r>   -1.1859    1.0000 </r>
       <r>   -0.8858    1.0000 </r>
       <r>   -0.7465    1.0000 </r>
       <r>   -0.6049    1.0000 </r>
       <r>   -0.5238    1.0000 </r>
       <r>   -0.3110    1.0000 </r>
       <r>   -0.2436    1.0000 </r>
       <r>   -0.1766    1.0000 </r>
       <r>   -0.1254    1.0000 </r>
       <r>   -0.0542    1.0000 </r>
       <r>    0.0640    1.0000 </r>
       <r>    1.3001    1.0000 </r>
       <r>    1.3370    1.0000 </r>
       <r>    1.3690    1.0000 </r>
       <r>    1.4283    1.0000 </r>
       <r>    1.4468    1.0000 </r>
       <r>    1.4777    1.0000 </r>
       <r>    1.5232    1.0000 </r>
       <r>    1.5462    1.0000 </r>
       <r>    1.6452    1.0000 </r>
       <r>    1.8743    1.0000 </r>
       <r>    1.9750    1.0000 </r>
       <r>    2.0484    1.0000 </r>
       <r>    2.1950    1.0000 </r>
       <r>    2.4757    1.0000 </r>
       <r>    2.5952    1.0000 </r>
       <r>    2.8384    1.0000 </r>
       <r>    2.9645    1.0000 </r>
       <r>    3.1340    1.0000 </r>
       <r>    3.5675    1.0000 </r>
       <r>    3.7233    1.0000 </r>
       <r>    6.4407   -0.0000 </r>
       <r>    6.9556    0.0000 </r>
       <r>    8.1668    0.0000 </r>
       <r>    8.2451    0.0000 </r>
       <r>    8.8387    0.0000 </r>
       <r>    9.1276    0.0000 </r>
       <r>    9.4622    0.0000 </r>
       <r>    9.7977    0.0000 </r>
       <r>   10.0832    0.0000 </r>
       <r>   10.2997    0.0000 </r>
       <r>   10.7394    0.0000 </r>
       <r>   11.0817    0.0000 </r>
       <r>   11.2892    0.0000 </r>
       <r>   11.4306    0.0000 </r>
       <r>   11.6317    0.0000 </r>
       <r>   11.7270    0.0000 </r>
       <r>   12.0839    0.0000 </r>
       <r>   12.2638    0.0000 </r>
       <r>   12.5423    0.0000 </r>
       <r>   12.6583    0.0000 </r>
       <r>   12.9536    0.0000 </r>
       <r>   13.0596    0.0000 </r>
       <r>   13.6406    0.0000 </r>
       <r>   14.6901    0.0000 </r>
      </set>
      <set comment="kpoint 13">
       <r>  -68.6520    1.0000 </r>
       <r>  -68.6444    1.0000 </r>
       <r>  -68.6388    1.0000 </r>
       <r>  -68.6238    1.0000 </r>
       <r>  -68.6184    1.0000 </r>
       <r>  -68.6125    1.0000 </r>
       <r>  -68.6017    1.0000 </r>
       <r>  -68.5952    1.0000 </r>
       <r>  -68.5825    1.0000 </r>
       <r>  -68.5669    1.0000 </r>
       <r>  -68.5664    1.0000 </r>
       <r>  -68.5521    1.0000 </r>
       <r>  -12.3562    1.0000 </r>
       <r>  -11.4131    1.0000 </r>
       <r>  -10.9529    1.0000 </r>
       <r>  -10.6835    1.0000 </r>
       <r>  -10.4793    1.0000 </r>
       <r>  -10.3350    1.0000 </r>
       <r>   -5.7518    1.0000 </r>
       <r>   -4.7224    1.0000 </r>
       <r>   -2.5222    1.0000 </r>
       <r>   -2.1854    1.0000 </r>
       <r>   -1.9521    1.0000 </r>
       <r>   -1.5355    1.0000 </r>
       <r>   -1.2981    1.0000 </r>
       <r>   -1.0989    1.0000 </r>
       <r>   -0.8710    1.0000 </r>
       <r>   -0.7546    1.0000 </r>
       <r>   -0.5501    1.0000 </r>
       <r>   -0.4416    1.0000 </r>
       <r>   -0.2923    1.0000 </r>
       <r>   -0.1817    1.0000 </r>
       <r>   -0.1472    1.0000 </r>
       <r>   -0.1073    1.0000 </r>
       <r>   -0.0448    1.0000 </r>
       <r>    0.0254    1.0000 </r>
       <r>    1.2695    1.0000 </r>
       <r>    1.2976    1.0000 </r>
       <r>    1.3521    1.0000 </r>
       <r>    1.4290    1.0000 </r>
       <r>    1.4537    1.0000 </r>
       <r>    1.4791    1.0000 </r>
       <r>    1.5001    1.0000 </r>
       <r>    1.5901    1.0000 </r>
       <r>    1.7207    1.0000 </r>
       <r>    1.9339    1.0000 </r>
       <r>    2.0738    1.0000 </r>
       <r>    2.1473    1.0000 </r>
       <r>    2.2648    1.0000 </r>
       <r>    2.4014    1.0000 </r>
       <r>    2.5679    1.0000 </r>
       <r>    2.5989    1.0000 </r>
       <r>    2.9007    1.0000 </r>
       <r>    3.0081    1.0000 </r>
       <r>    3.3579    1.0000 </r>
       <r>    3.8976    1.0000 </r>
       <r>    6.3661   -0.0000 </r>
       <r>    6.8973   -0.0000 </r>
       <r>    7.5709    0.0000 </r>
       <r>    8.0808    0.0000 </r>
       <r>    8.5519    0.0000 </r>
       <r>    8.7994    0.0000 </r>
       <r>    9.2813    0.0000 </r>
       <r>    9.6285    0.0000 </r>
       <r>    9.9267    0.0000 </r>
       <r>   10.2755    0.0000 </r>
       <r>   10.6567    0.0000 </r>
       <r>   10.9313    0.0000 </r>
       <r>   10.9727    0.0000 </r>
       <r>   11.2826    0.0000 </r>
       <r>   11.5202    0.0000 </r>
       <r>   11.7854    0.0000 </r>
       <r>   12.2471    0.0000 </r>
       <r>   12.5321    0.0000 </r>
       <r>   13.0595    0.0000 </r>
       <r>   13.5143    0.0000 </r>
       <r>   14.3041    0.0000 </r>
       <r>   14.6235    0.0000 </r>
       <r>   15.1317    0.0000 </r>
       <r>   16.2743    0.0000 </r>
      </set>
      <set comment="kpoint 14">
       <r>  -68.6522    1.0000 </r>
       <r>  -68.6446    1.0000 </r>
       <r>  -68.6388    1.0000 </r>
       <r>  -68.6239    1.0000 </r>
       <r>  -68.6185    1.0000 </r>
       <r>  -68.6127    1.0000 </r>
       <r>  -68.6018    1.0000 </r>
       <r>  -68.5953    1.0000 </r>
       <r>  -68.5826    1.0000 </r>
       <r>  -68.5671    1.0000 </r>
       <r>  -68.5665    1.0000 </r>
       <r>  -68.5523    1.0000 </r>
       <r>  -12.5412    1.0000 </r>
       <r>  -11.3368    1.0000 </r>
       <r>  -10.8736    1.0000 </r>
       <r>  -10.6064    1.0000 </r>
       <r>  -10.3988    1.0000 </r>
       <r>  -10.2830    1.0000 </r>
       <r>   -5.8243    1.0000 </r>
       <r>   -4.9746    1.0000 </r>
       <r>   -2.6658    1.0000 </r>
       <r>   -2.4518    1.0000 </r>
       <r>   -2.0380    1.0000 </r>
       <r>   -1.5778    1.0000 </r>
       <r>   -1.1731    1.0000 </r>
       <r>   -0.9841    1.0000 </r>
       <r>   -0.7945    1.0000 </r>
       <r>   -0.6560    1.0000 </r>
       <r>   -0.5160    1.0000 </r>
       <r>   -0.3912    1.0000 </r>
       <r>   -0.2678    1.0000 </r>
       <r>   -0.2558    1.0000 </r>
       <r>   -0.1868    1.0000 </r>
       <r>   -0.1475    1.0000 </r>
       <r>   -0.0463    1.0000 </r>
       <r>    0.0167    1.0000 </r>
       <r>    1.2876    1.0000 </r>
       <r>    1.3122    1.0000 </r>
       <r>    1.3857    1.0000 </r>
       <r>    1.4111    1.0000 </r>
       <r>    1.4337    1.0000 </r>
       <r>    1.4579    1.0000 </r>
       <r>    1.4917    1.0000 </r>
       <r>    1.5633    1.0000 </r>
       <r>    1.6870    1.0000 </r>
       <r>    1.9151    1.0000 </r>
       <r>    1.9854    1.0000 </r>
       <r>    2.1450    1.0000 </r>
       <r>    2.3341    1.0000 </r>
       <r>    2.5656    1.0000 </r>
       <r>    2.6154    1.0000 </r>
       <r>    2.8287    1.0000 </r>
       <r>    2.9766    1.0000 </r>
       <r>    3.2492    1.0000 </r>
       <r>    3.6811    1.0000 </r>
       <r>    3.9428    1.0003 </r>
       <r>    6.1812   -0.0000 </r>
       <r>    6.6413   -0.0000 </r>
       <r>    7.7637    0.0000 </r>
       <r>    7.9714    0.0000 </r>
       <r>    8.2173    0.0000 </r>
       <r>    8.5650    0.0000 </r>
       <r>    9.3793    0.0000 </r>
       <r>    9.5767    0.0000 </r>
       <r>    9.9024    0.0000 </r>
       <r>   10.2492    0.0000 </r>
       <r>   10.5431    0.0000 </r>
       <r>   10.7851    0.0000 </r>
       <r>   10.8433    0.0000 </r>
       <r>   11.0704    0.0000 </r>
       <r>   11.5712    0.0000 </r>
       <r>   12.0236    0.0000 </r>
       <r>   12.5288    0.0000 </r>
       <r>   12.7538    0.0000 </r>
       <r>   12.9494    0.0000 </r>
       <r>   13.3044    0.0000 </r>
       <r>   13.4027    0.0000 </r>
       <r>   13.7418    0.0000 </r>
       <r>   13.8549    0.0000 </r>
       <r>   14.7234    0.0000 </r>
      </set>
      <set comment="kpoint 15">
       <r>  -68.6521    1.0000 </r>
       <r>  -68.6445    1.0000 </r>
       <r>  -68.6389    1.0000 </r>
       <r>  -68.6239    1.0000 </r>
       <r>  -68.6186    1.0000 </r>
       <r>  -68.6127    1.0000 </r>
       <r>  -68.6018    1.0000 </r>
       <r>  -68.5952    1.0000 </r>
       <r>  -68.5826    1.0000 </r>
       <r>  -68.5670    1.0000 </r>
       <r>  -68.5664    1.0000 </r>
       <r>  -68.5522    1.0000 </r>
       <r>  -12.4587    1.0000 </r>
       <r>  -11.4665    1.0000 </r>
       <r>  -10.8644    1.0000 </r>
       <r>  -10.6876    1.0000 </r>
       <r>  -10.3747    1.0000 </r>
       <r>  -10.2454    1.0000 </r>
       <r>   -5.7667    1.0000 </r>
       <r>   -4.8049    1.0000 </r>
       <r>   -2.4452    1.0000 </r>
       <r>   -2.2317    1.0000 </r>
       <r>   -1.8517    1.0000 </r>
       <r>   -1.7136    1.0000 </r>
       <r>   -1.4343    1.0000 </r>
       <r>   -1.1838    1.0000 </r>
       <r>   -0.8895    1.0000 </r>
       <r>   -0.7463    1.0000 </r>
       <r>   -0.6076    1.0000 </r>
       <r>   -0.5218    1.0000 </r>
       <r>   -0.3140    1.0000 </r>
       <r>   -0.2460    1.0000 </r>
       <r>   -0.1737    1.0000 </r>
       <r>   -0.1241    1.0000 </r>
       <r>   -0.0494    1.0000 </r>
       <r>    0.0617    1.0000 </r>
       <r>    1.3014    1.0000 </r>
       <r>    1.3339    1.0000 </r>
       <r>    1.3681    1.0000 </r>
       <r>    1.4352    1.0000 </r>
       <r>    1.4452    1.0000 </r>
       <r>    1.4801    1.0000 </r>
       <r>    1.5194    1.0000 </r>
       <r>    1.5491    1.0000 </r>
       <r>    1.6425    1.0000 </r>
       <r>    1.8682    1.0000 </r>
       <r>    1.9846    1.0000 </r>
       <r>    2.0458    1.0000 </r>
       <r>    2.1938    1.0000 </r>
       <r>    2.4746    1.0000 </r>
       <r>    2.5966    1.0000 </r>
       <r>    2.8376    1.0000 </r>
       <r>    2.9623    1.0000 </r>
       <r>    3.1344    1.0000 </r>
       <r>    3.5672    1.0000 </r>
       <r>    3.7253    1.0000 </r>
       <r>    6.4409   -0.0000 </r>
       <r>    6.9552    0.0000 </r>
       <r>    8.1698    0.0000 </r>
       <r>    8.2428    0.0000 </r>
       <r>    8.8347    0.0000 </r>
       <r>    9.1294    0.0000 </r>
       <r>    9.4676    0.0000 </r>
       <r>    9.7937    0.0000 </r>
       <r>   10.0816    0.0000 </r>
       <r>   10.2984    0.0000 </r>
       <r>   10.7442    0.0000 </r>
       <r>   11.0775    0.0000 </r>
       <r>   11.2901    0.0000 </r>
       <r>   11.4276    0.0000 </r>
       <r>   11.6355    0.0000 </r>
       <r>   11.7216    0.0000 </r>
       <r>   12.0891    0.0000 </r>
       <r>   12.2681    0.0000 </r>
       <r>   12.5420    0.0000 </r>
       <r>   12.6546    0.0000 </r>
       <r>   12.9555    0.0000 </r>
       <r>   13.0574    0.0000 </r>
       <r>   13.6543    0.0000 </r>
       <r>   14.6961    0.0000 </r>
      </set>
      <set comment="kpoint 16">
       <r>  -68.6520    1.0000 </r>
       <r>  -68.6444    1.0000 </r>
       <r>  -68.6387    1.0000 </r>
       <r>  -68.6238    1.0000 </r>
       <r>  -68.6184    1.0000 </r>
       <r>  -68.6125    1.0000 </r>
       <r>  -68.6017    1.0000 </r>
       <r>  -68.5951    1.0000 </r>
       <r>  -68.5824    1.0000 </r>
       <r>  -68.5669    1.0000 </r>
       <r>  -68.5663    1.0000 </r>
       <r>  -68.5521    1.0000 </r>
       <r>  -12.3268    1.0000 </r>
       <r>  -11.4747    1.0000 </r>
       <r>  -10.8627    1.0000 </r>
       <r>  -10.8569    1.0000 </r>
       <r>  -10.4074    1.0000 </r>
       <r>  -10.2877    1.0000 </r>
       <r>   -5.7477    1.0000 </r>
       <r>   -4.6920    1.0000 </r>
       <r>   -2.2417    1.0000 </r>
       <r>   -2.1380    1.0000 </r>
       <r>   -1.9273    1.0000 </r>
       <r>   -1.8509    1.0000 </r>
       <r>   -1.4534    1.0000 </r>
       <r>   -1.3964    1.0000 </r>
       <r>   -1.0379    1.0000 </r>
       <r>   -0.5202    1.0000 </r>
       <r>   -0.4615    1.0000 </r>
       <r>   -0.3482    1.0000 </r>
       <r>   -0.2503    1.0000 </r>
       <r>   -0.2168    1.0000 </r>
       <r>   -0.1620    1.0000 </r>
       <r>   -0.1118    1.0000 </r>
       <r>   -0.0941    1.0000 </r>
       <r>    0.0833    1.0000 </r>
       <r>    1.2619    1.0000 </r>
       <r>    1.3472    1.0000 </r>
       <r>    1.3974    1.0000 </r>
       <r>    1.4337    1.0000 </r>
       <r>    1.4532    1.0000 </r>
       <r>    1.5102    1.0000 </r>
       <r>    1.5336    1.0000 </r>
       <r>    1.5427    1.0000 </r>
       <r>    1.7533    1.0000 </r>
       <r>    1.8175    1.0000 </r>
       <r>    2.0408    1.0000 </r>
       <r>    2.1358    1.0000 </r>
       <r>    2.2850    1.0000 </r>
       <r>    2.3120    1.0000 </r>
       <r>    2.5210    1.0000 </r>
       <r>    2.7714    1.0000 </r>
       <r>    2.8972    1.0000 </r>
       <r>    3.2614    1.0000 </r>
       <r>    3.4957    1.0000 </r>
       <r>    3.7996    1.0000 </r>
       <r>    6.1837   -0.0000 </r>
       <r>    6.8394   -0.0000 </r>
       <r>    7.8258    0.0000 </r>
       <r>    8.0436    0.0000 </r>
       <r>    8.1908    0.0000 </r>
       <r>    8.7245    0.0000 </r>
       <r>    9.1532    0.0000 </r>
       <r>    9.3058    0.0000 </r>
       <r>   10.2204    0.0000 </r>
       <r>   10.4466    0.0000 </r>
       <r>   10.5899    0.0000 </r>
       <r>   11.0025    0.0000 </r>
       <r>   11.2429    0.0000 </r>
       <r>   11.4846    0.0000 </r>
       <r>   11.8157    0.0000 </r>
       <r>   12.1734    0.0000 </r>
       <r>   12.2090    0.0000 </r>
       <r>   12.5719    0.0000 </r>
       <r>   12.6936    0.0000 </r>
       <r>   13.1169    0.0000 </r>
       <r>   13.4162    0.0000 </r>
       <r>   13.8814    0.0000 </r>
       <r>   14.0065    0.0000 </r>
       <r>   14.5216    0.0000 </r>
      </set>
      <set comment="kpoint 17">
       <r>  -68.6519    1.0000 </r>
       <r>  -68.6443    1.0000 </r>
       <r>  -68.6388    1.0000 </r>
       <r>  -68.6238    1.0000 </r>
       <r>  -68.6185    1.0000 </r>
       <r>  -68.6126    1.0000 </r>
       <r>  -68.6017    1.0000 </r>
       <r>  -68.5952    1.0000 </r>
       <r>  -68.5825    1.0000 </r>
       <r>  -68.5668    1.0000 </r>
       <r>  -68.5664    1.0000 </r>
       <r>  -68.5521    1.0000 </r>
       <r>  -12.3733    1.0000 </r>
       <r>  -11.4732    1.0000 </r>
       <r>  -10.9370    1.0000 </r>
       <r>  -10.6525    1.0000 </r>
       <r>  -10.4204    1.0000 </r>
       <r>  -10.3049    1.0000 </r>
       <r>   -5.8000    1.0000 </r>
       <r>   -4.8363    1.0000 </r>
       <r>   -2.5276    1.0000 </r>
       <r>   -2.2442    1.0000 </r>
       <r>   -1.8733    1.0000 </r>
       <r>   -1.6445    1.0000 </r>
       <r>   -1.5041    1.0000 </r>
       <r>   -1.3087    1.0000 </r>
       <r>   -0.8984    1.0000 </r>
       <r>   -0.5346    1.0000 </r>
       <r>   -0.3806    1.0000 </r>
       <r>   -0.3503    1.0000 </r>
       <r>   -0.2225    1.0000 </r>
       <r>   -0.1794    1.0000 </r>
       <r>   -0.1586    1.0000 </r>
       <r>   -0.0749    1.0000 </r>
       <r>   -0.0270    1.0000 </r>
       <r>    0.0826    1.0000 </r>
       <r>    1.1908    1.0000 </r>
       <r>    1.3618    1.0000 </r>
       <r>    1.3953    1.0000 </r>
       <r>    1.4428    1.0000 </r>
       <r>    1.4642    1.0000 </r>
       <r>    1.5085    1.0000 </r>
       <r>    1.5178    1.0000 </r>
       <r>    1.5859    1.0000 </r>
       <r>    1.7398    1.0000 </r>
       <r>    1.8143    1.0000 </r>
       <r>    2.0382    1.0000 </r>
       <r>    2.2360    1.0000 </r>
       <r>    2.2672    1.0000 </r>
       <r>    2.3635    1.0000 </r>
       <r>    2.4884    1.0000 </r>
       <r>    2.6700    1.0000 </r>
       <r>    3.0535    1.0000 </r>
       <r>    3.4118    1.0000 </r>
       <r>    3.7254    1.0000 </r>
       <r>    3.8632    1.0000 </r>
       <r>    5.9344   -0.0000 </r>
       <r>    6.6157   -0.0000 </r>
       <r>    7.3535    0.0000 </r>
       <r>    7.9410    0.0000 </r>
       <r>    8.0651    0.0000 </r>
       <r>    8.7247    0.0000 </r>
       <r>    8.9053    0.0000 </r>
       <r>    9.1371    0.0000 </r>
       <r>    9.8410    0.0000 </r>
       <r>   10.3308    0.0000 </r>
       <r>   10.5550    0.0000 </r>
       <r>   10.9283    0.0000 </r>
       <r>   11.2191    0.0000 </r>
       <r>   11.4172    0.0000 </r>
       <r>   11.7509    0.0000 </r>
       <r>   12.0035    0.0000 </r>
       <r>   12.4968    0.0000 </r>
       <r>   12.8299    0.0000 </r>
       <r>   13.2032    0.0000 </r>
       <r>   14.1784    0.0000 </r>
       <r>   14.7185    0.0000 </r>
       <r>   15.1627    0.0000 </r>
       <r>   15.9180    0.0000 </r>
       <r>   16.5658    0.0000 </r>
      </set>
      <set comment="kpoint 18">
       <r>  -68.6521    1.0000 </r>
       <r>  -68.6445    1.0000 </r>
       <r>  -68.6389    1.0000 </r>
       <r>  -68.6240    1.0000 </r>
       <r>  -68.6185    1.0000 </r>
       <r>  -68.6126    1.0000 </r>
       <r>  -68.6019    1.0000 </r>
       <r>  -68.5953    1.0000 </r>
       <r>  -68.5825    1.0000 </r>
       <r>  -68.5670    1.0000 </r>
       <r>  -68.5664    1.0000 </r>
       <r>  -68.5522    1.0000 </r>
       <r>  -12.4998    1.0000 </r>
       <r>  -11.4253    1.0000 </r>
       <r>  -10.9479    1.0000 </r>
       <r>  -10.5805    1.0000 </r>
       <r>  -10.3759    1.0000 </r>
       <r>  -10.2076    1.0000 </r>
       <r>   -5.8282    1.0000 </r>
       <r>   -4.9406    1.0000 </r>
       <r>   -2.5731    1.0000 </r>
       <r>   -2.3664    1.0000 </r>
       <r>   -1.9194    1.0000 </r>
       <r>   -1.5943    1.0000 </r>
       <r>   -1.4156    1.0000 </r>
       <r>   -1.1226    1.0000 </r>
       <r>   -0.8116    1.0000 </r>
       <r>   -0.6792    1.0000 </r>
       <r>   -0.5353    1.0000 </r>
       <r>   -0.4683    1.0000 </r>
       <r>   -0.2519    1.0000 </r>
       <r>   -0.2002    1.0000 </r>
       <r>   -0.1684    1.0000 </r>
       <r>   -0.1169    1.0000 </r>
       <r>   -0.0307    1.0000 </r>
       <r>    0.0587    1.0000 </r>
       <r>    1.2808    1.0000 </r>
       <r>    1.3241    1.0000 </r>
       <r>    1.3459    1.0000 </r>
       <r>    1.4318    1.0000 </r>
       <r>    1.4530    1.0000 </r>
       <r>    1.4679    1.0000 </r>
       <r>    1.4943    1.0000 </r>
       <r>    1.5560    1.0000 </r>
       <r>    1.7265    1.0000 </r>
       <r>    1.8427    1.0000 </r>
       <r>    1.9704    1.0000 </r>
       <r>    2.0970    1.0000 </r>
       <r>    2.3374    1.0000 </r>
       <r>    2.4483    1.0000 </r>
       <r>    2.5397    1.0000 </r>
       <r>    2.8497    1.0000 </r>
       <r>    3.0549    1.0000 </r>
       <r>    3.2649    1.0000 </r>
       <r>    3.6709    1.0000 </r>
       <r>    3.7823    1.0000 </r>
       <r>    6.2626   -0.0000 </r>
       <r>    6.8005   -0.0000 </r>
       <r>    7.8151    0.0000 </r>
       <r>    8.1341    0.0000 </r>
       <r>    8.3351    0.0000 </r>
       <r>    8.9325    0.0000 </r>
       <r>    9.3373    0.0000 </r>
[...]
       <r>   11.7098    0.0000 </r>
       <r>   11.8989    0.0000 </r>
       <r>   12.2965    0.0000 </r>
       <r>   12.6568    0.0000 </r>
       <r>   13.0132    0.0000 </r>
       <r>   13.2323    0.0000 </r>
       <r>   13.6766    0.0000 </r>
       <r>   14.0673    0.0000 </r>
       <r>   14.3988    0.0000 </r>
       <r>   16.5550    0.0000 </r>
      </set>
      <set comment="kpoint 42">
       <r>  -68.6520    1.0000 </r>
       <r>  -68.6445    1.0000 </r>
       <r>  -68.6386    1.0000 </r>
       <r>  -68.6237    1.0000 </r>
       <r>  -68.6184    1.0000 </r>
       <r>  -68.6126    1.0000 </r>
       <r>  -68.6016    1.0000 </r>
       <r>  -68.5951    1.0000 </r>
       <r>  -68.5825    1.0000 </r>
       <r>  -68.5670    1.0000 </r>
       <r>  -68.5663    1.0000 </r>
       <r>  -68.5522    1.0000 </r>
       <r>  -12.1784    1.0000 </r>
       <r>  -11.7057    1.0000 </r>
       <r>  -10.7173    1.0000 </r>
       <r>  -10.6924    1.0000 </r>
       <r>  -10.5879    1.0000 </r>
       <r>  -10.3915    1.0000 </r>
       <r>   -5.4462    1.0000 </r>
       <r>   -5.0712    1.0000 </r>
       <r>   -2.5080    1.0000 </r>
       <r>   -2.3785    1.0000 </r>
       <r>   -1.9631    1.0000 </r>
       <r>   -1.3694    1.0000 </r>
       <r>   -1.3322    1.0000 </r>
       <r>   -1.0562    1.0000 </r>
       <r>   -0.8304    1.0000 </r>
       <r>   -0.7674    1.0000 </r>
       <r>   -0.4203    1.0000 </r>
       <r>   -0.3384    1.0000 </r>
       <r>   -0.2705    1.0000 </r>
       <r>   -0.2096    1.0000 </r>
       <r>   -0.1441    1.0000 </r>
       <r>   -0.1393    1.0000 </r>
       <r>   -0.0128    1.0000 </r>
       <r>    0.0289    1.0000 </r>
       <r>    1.1732    1.0000 </r>
       <r>    1.3706    1.0000 </r>
       <r>    1.3968    1.0000 </r>
       <r>    1.4524    1.0000 </r>
       <r>    1.4542    1.0000 </r>
       <r>    1.4986    1.0000 </r>
       <r>    1.5170    1.0000 </r>
       <r>    1.5482    1.0000 </r>
       <r>    1.7443    1.0000 </r>
       <r>    1.8209    1.0000 </r>
       <r>    1.9734    1.0000 </r>
       <r>    2.2276    1.0000 </r>
       <r>    2.3974    1.0000 </r>
       <r>    2.6132    1.0000 </r>
       <r>    2.6554    1.0000 </r>
       <r>    2.9131    1.0000 </r>
       <r>    3.0685    1.0000 </r>
       <r>    3.1176    1.0000 </r>
       <r>    3.2871    1.0000 </r>
       <r>    3.5805    1.0000 </r>
       <r>    6.2931   -0.0000 </r>
       <r>    6.3822   -0.0000 </r>
       <r>    7.3525    0.0000 </r>
       <r>    7.5256    0.0000 </r>
       <r>    8.3129    0.0000 </r>
       <r>    8.3359    0.0000 </r>
       <r>    9.1035    0.0000 </r>
       <r>    9.3591    0.0000 </r>
       <r>    9.7147    0.0000 </r>
       <r>    9.9420    0.0000 </r>
       <r>   10.5245    0.0000 </r>
       <r>   10.9889    0.0000 </r>
       <r>   11.4282    0.0000 </r>
       <r>   11.5672    0.0000 </r>
       <r>   12.0197    0.0000 </r>
       <r>   12.2868    0.0000 </r>
       <r>   12.4318    0.0000 </r>
       <r>   12.4716    0.0000 </r>
       <r>   13.0333    0.0000 </r>
       <r>   13.1489    0.0000 </r>
       <r>   14.1409    0.0000 </r>
       <r>   14.4368    0.0000 </r>
       <r>   15.1661    0.0000 </r>
       <r>   15.8658    0.0000 </r>
      </set>
     </set>
    </set>
   </array>
  </eigenvalues>
  <separator name="orbital magnetization" >
   <v name="MAGDIPOLOUT">      0.00000000      0.00000000      0.00000000</v>
  </separator>
  <dos>
   <i name="efermi">      4.21969429 </i>
   <total>
    <array>
     <dimension dim="1">gridpoints</dimension>
     <dimension dim="2">spin</dimension>
     <field>energy</field>
     <field>total</field>
     <field>integrated</field>
     <set>
      <set comment="spin 1">
       <r>   -72.8301     0.0000     0.0000 </r>
       <r>   -72.5238     0.0000     0.0000 </r>
       <r>   -72.2174     0.0000     0.0000 </r>
       <r>   -71.9110     0.0000     0.0000 </r>
       <r>   -71.6046     0.0000     0.0000 </r>
       <r>   -71.2982     0.0000     0.0000 </r>
       <r>   -70.9918     0.0000     0.0000 </r>
       <r>   -70.6855     0.0000     0.0000 </r>
       <r>   -70.3791     0.0000     0.0000 </r>
       <r>   -70.0727     0.0000     0.0000 </r>
       <r>   -69.7663     0.0000     0.0000 </r>
       <r>   -69.4599    -0.0000    -0.0000 </r>
       <r>   -69.1536    -0.0000    -0.0000 </r>
       <r>   -68.8472    -0.2282    -0.0699 </r>
       <r>   -68.5408    69.9910    21.3740 </r>
       <r>   -68.2344     8.5715    24.0001 </r>
       <r>   -67.9280    -0.0005    24.0000 </r>
       <r>   -67.6217     0.0000    24.0000 </r>
       <r>   -67.3153     0.0000    24.0000 </r>
       <r>   -67.0089     0.0000    24.0000 </r>
       <r>   -66.7025     0.0000    24.0000 </r>
       <r>   -66.3961     0.0000    24.0000 </r>
       <r>   -66.0898     0.0000    24.0000 </r>
       <r>   -65.7834     0.0000    24.0000 </r>
       <r>   -65.4770     0.0000    24.0000 </r>
       <r>   -65.1706     0.0000    24.0000 </r>
       <r>   -64.8642     0.0000    24.0000 </r>
       <r>   -64.5578     0.0000    24.0000 </r>
       <r>   -64.2515     0.0000    24.0000 </r>
       <r>   -63.9451     0.0000    24.0000 </r>
       <r>   -63.6387     0.0000    24.0000 </r>
       <r>   -63.3323     0.0000    24.0000 </r>
       <r>   -63.0259     0.0000    24.0000 </r>
       <r>   -62.7196     0.0000    24.0000 </r>
       <r>   -62.4132     0.0000    24.0000 </r>
       <r>   -62.1068     0.0000    24.0000 </r>
       <r>   -61.8004     0.0000    24.0000 </r>
       <r>   -61.4940     0.0000    24.0000 </r>
       <r>   -61.1877     0.0000    24.0000 </r>
       <r>   -60.8813     0.0000    24.0000 </r>
       <r>   -60.5749     0.0000    24.0000 </r>
       <r>   -60.2685     0.0000    24.0000 </r>
       <r>   -59.9621     0.0000    24.0000 </r>
       <r>   -59.6557     0.0000    24.0000 </r>
       <r>   -59.3494     0.0000    24.0000 </r>
       <r>   -59.0430     0.0000    24.0000 </r>
       <r>   -58.7366     0.0000    24.0000 </r>
       <r>   -58.4302     0.0000    24.0000 </r>
       <r>   -58.1238     0.0000    24.0000 </r>
       <r>   -57.8175     0.0000    24.0000 </r>
       <r>   -57.5111     0.0000    24.0000 </r>
       <r>   -57.2047     0.0000    24.0000 </r>
       <r>   -56.8983     0.0000    24.0000 </r>
       <r>   -56.5919     0.0000    24.0000 </r>
       <r>   -56.2856     0.0000    24.0000 </r>
       <r>   -55.9792     0.0000    24.0000 </r>
       <r>   -55.6728     0.0000    24.0000 </r>
       <r>   -55.3664     0.0000    24.0000 </r>
       <r>   -55.0600     0.0000    24.0000 </r>
       <r>   -54.7537     0.0000    24.0000 </r>
       <r>   -54.4473     0.0000    24.0000 </r>
       <r>   -54.1409     0.0000    24.0000 </r>
       <r>   -53.8345     0.0000    24.0000 </r>
       <r>   -53.5281     0.0000    24.0000 </r>
       <r>   -53.2217     0.0000    24.0000 </r>
       <r>   -52.9154     0.0000    24.0000 </r>
       <r>   -52.6090     0.0000    24.0000 </r>
       <r>   -52.3026     0.0000    24.0000 </r>
       <r>   -51.9962     0.0000    24.0000 </r>
       <r>   -51.6898     0.0000    24.0000 </r>
       <r>   -51.3835     0.0000    24.0000 </r>
       <r>   -51.0771     0.0000    24.0000 </r>
       <r>   -50.7707     0.0000    24.0000 </r>
       <r>   -50.4643     0.0000    24.0000 </r>
       <r>   -50.1579     0.0000    24.0000 </r>
       <r>   -49.8516     0.0000    24.0000 </r>
       <r>   -49.5452     0.0000    24.0000 </r>
       <r>   -49.2388     0.0000    24.0000 </r>
       <r>   -48.9324     0.0000    24.0000 </r>
       <r>   -48.6260     0.0000    24.0000 </r>
       <r>   -48.3197     0.0000    24.0000 </r>
       <r>   -48.0133     0.0000    24.0000 </r>
       <r>   -47.7069     0.0000    24.0000 </r>
       <r>   -47.4005     0.0000    24.0000 </r>
       <r>   -47.0941     0.0000    24.0000 </r>
       <r>   -46.7877     0.0000    24.0000 </r>
       <r>   -46.4814     0.0000    24.0000 </r>
       <r>   -46.1750     0.0000    24.0000 </r>
       <r>   -45.8686     0.0000    24.0000 </r>
       <r>   -45.5622     0.0000    24.0000 </r>
       <r>   -45.2558     0.0000    24.0000 </r>
       <r>   -44.9495     0.0000    24.0000 </r>
       <r>   -44.6431     0.0000    24.0000 </r>
       <r>   -44.3367     0.0000    24.0000 </r>
       <r>   -44.0303     0.0000    24.0000 </r>
       <r>   -43.7239     0.0000    24.0000 </r>
       <r>   -43.4176     0.0000    24.0000 </r>
       <r>   -43.1112     0.0000    24.0000 </r>
       <r>   -42.8048     0.0000    24.0000 </r>
       <r>   -42.4984     0.0000    24.0000 </r>
       <r>   -42.1920     0.0000    24.0000 </r>
       <r>   -41.8856     0.0000    24.0000 </r>
       <r>   -41.5793     0.0000    24.0000 </r>
       <r>   -41.2729     0.0000    24.0000 </r>
       <r>   -40.9665     0.0000    24.0000 </r>
       <r>   -40.6601     0.0000    24.0000 </r>
       <r>   -40.3537     0.0000    24.0000 </r>
       <r>   -40.0474     0.0000    24.0000 </r>
       <r>   -39.7410     0.0000    24.0000 </r>
       <r>   -39.4346     0.0000    24.0000 </r>
       <r>   -39.1282     0.0000    24.0000 </r>
       <r>   -38.8218     0.0000    24.0000 </r>
       <r>   -38.5155     0.0000    24.0000 </r>
       <r>   -38.2091     0.0000    24.0000 </r>
       <r>   -37.9027     0.0000    24.0000 </r>
       <r>   -37.5963     0.0000    24.0000 </r>
       <r>   -37.2899     0.0000    24.0000 </r>
       <r>   -36.9836     0.0000    24.0000 </r>
       <r>   -36.6772     0.0000    24.0000 </r>
       <r>   -36.3708     0.0000    24.0000 </r>
       <r>   -36.0644     0.0000    24.0000 </r>
       <r>   -35.7580     0.0000    24.0000 </r>
       <r>   -35.4516     0.0000    24.0000 </r>
       <r>   -35.1453     0.0000    24.0000 </r>
       <r>   -34.8389     0.0000    24.0000 </r>
       <r>   -34.5325     0.0000    24.0000 </r>
       <r>   -34.2261     0.0000    24.0000 </r>
       <r>   -33.9197     0.0000    24.0000 </r>
       <r>   -33.6134     0.0000    24.0000 </r>
       <r>   -33.3070     0.0000    24.0000 </r>
       <r>   -33.0006     0.0000    24.0000 </r>
       <r>   -32.6942     0.0000    24.0000 </r>
       <r>   -32.3878     0.0000    24.0000 </r>
       <r>   -32.0815     0.0000    24.0000 </r>
       <r>   -31.7751     0.0000    24.0000 </r>
       <r>   -31.4687     0.0000    24.0000 </r>
       <r>   -31.1623     0.0000    24.0000 </r>
       <r>   -30.8559     0.0000    24.0000 </r>
       <r>   -30.5496     0.0000    24.0000 </r>
       <r>   -30.2432     0.0000    24.0000 </r>
       <r>   -29.9368     0.0000    24.0000 </r>
       <r>   -29.6304     0.0000    24.0000 </r>
       <r>   -29.3240     0.0000    24.0000 </r>
       <r>   -29.0176     0.0000    24.0000 </r>
       <r>   -28.7113     0.0000    24.0000 </r>
       <r>   -28.4049     0.0000    24.0000 </r>
       <r>   -28.0985     0.0000    24.0000 </r>
       <r>   -27.7921     0.0000    24.0000 </r>
       <r>   -27.4857     0.0000    24.0000 </r>
       <r>   -27.1794     0.0000    24.0000 </r>
       <r>   -26.8730     0.0000    24.0000 </r>
       <r>   -26.5666     0.0000    24.0000 </r>
       <r>   -26.2602     0.0000    24.0000 </r>
       <r>   -25.9538     0.0000    24.0000 </r>
       <r>   -25.6475     0.0000    24.0000 </r>
       <r>   -25.3411     0.0000    24.0000 </r>
       <r>   -25.0347     0.0000    24.0000 </r>
       <r>   -24.7283     0.0000    24.0000 </r>
       <r>   -24.4219     0.0000    24.0000 </r>
       <r>   -24.1155     0.0000    24.0000 </r>
       <r>   -23.8092     0.0000    24.0000 </r>
       <r>   -23.5028     0.0000    24.0000 </r>
       <r>   -23.1964     0.0000    24.0000 </r>
       <r>   -22.8900     0.0000    24.0000 </r>
       <r>   -22.5836     0.0000    24.0000 </r>
       <r>   -22.2773     0.0000    24.0000 </r>
       <r>   -21.9709     0.0000    24.0000 </r>
       <r>   -21.6645     0.0000    24.0000 </r>
       <r>   -21.3581     0.0000    24.0000 </r>
       <r>   -21.0517     0.0000    24.0000 </r>
       <r>   -20.7454     0.0000    24.0000 </r>
       <r>   -20.4390     0.0000    24.0000 </r>
       <r>   -20.1326     0.0000    24.0000 </r>
       <r>   -19.8262     0.0000    24.0000 </r>
       <r>   -19.5198     0.0000    24.0000 </r>
       <r>   -19.2135     0.0000    24.0000 </r>
       <r>   -18.9071     0.0000    24.0000 </r>
       <r>   -18.6007     0.0000    24.0000 </r>
       <r>   -18.2943     0.0000    24.0000 </r>
       <r>   -17.9879     0.0000    24.0000 </r>
       <r>   -17.6815     0.0000    24.0000 </r>
       <r>   -17.3752     0.0000    24.0000 </r>
       <r>   -17.0688     0.0000    24.0000 </r>
       <r>   -16.7624     0.0000    24.0000 </r>
       <r>   -16.4560     0.0000    24.0000 </r>
       <r>   -16.1496     0.0000    24.0000 </r>
       <r>   -15.8433     0.0000    24.0000 </r>
       <r>   -15.5369     0.0000    24.0000 </r>
       <r>   -15.2305     0.0000    24.0000 </r>
       <r>   -14.9241     0.0000    24.0000 </r>
       <r>   -14.6177     0.0000    24.0000 </r>
       <r>   -14.3114     0.0000    24.0000 </r>
       <r>   -14.0050     0.0000    24.0000 </r>
       <r>   -13.6986    -0.0000    24.0000 </r>
       <r>   -13.3922    -0.0000    24.0000 </r>
       <r>   -13.0858    -0.0000    24.0000 </r>
       <r>   -12.7795    -0.0039    23.9988 </r>
       <r>   -12.4731     1.5462    24.4725 </r>
       <r>   -12.1667     3.5687    25.5659 </r>
       <r>   -11.8603     1.9087    26.1507 </r>
       <r>   -11.5539     2.1504    26.8095 </r>
       <r>   -11.2475     3.1926    27.7877 </r>
       <r>   -10.9412     2.5128    28.5576 </r>
       <r>   -10.6348     9.3142    31.4112 </r>
       <r>   -10.3284     9.4225    34.2981 </r>
       <r>   -10.0220     5.5727    36.0055 </r>
       <r>    -9.7156    -0.0179    36.0000 </r>
       <r>    -9.4093    -0.0000    36.0000 </r>
       <r>    -9.1029     0.0000    36.0000 </r>
       <r>    -8.7965     0.0000    36.0000 </r>
       <r>    -8.4901     0.0000    36.0000 </r>
       <r>    -8.1837     0.0000    36.0000 </r>
       <r>    -7.8774     0.0000    36.0000 </r>
       <r>    -7.5710     0.0000    36.0000 </r>
       <r>    -7.2646     0.0000    36.0000 </r>
       <r>    -6.9582    -0.0000    36.0000 </r>
       <r>    -6.6518    -0.0000    36.0000 </r>
       <r>    -6.3454    -0.0000    36.0000 </r>
       <r>    -6.0391     0.0566    36.0173 </r>
       <r>    -5.7327     3.4964    37.0886 </r>
       <r>    -5.4263     2.0505    37.7168 </r>
       <r>    -5.1199     1.8730    38.2906 </r>
       <r>    -4.8135     3.3012    39.3021 </r>
       <r>    -4.5072     2.2132    39.9801 </r>
       <r>    -4.2008     0.0648    40.0000 </r>
       <r>    -3.8944    -0.0000    40.0000 </r>
       <r>    -3.5880    -0.0000    40.0000 </r>
       <r>    -3.2816    -0.0000    40.0000 </r>
       <r>    -2.9753    -0.0004    39.9999 </r>
       <r>    -2.6689     0.3729    40.1141 </r>
       <r>    -2.3625     6.1503    41.9985 </r>
       <r>    -2.0561     6.6963    44.0501 </r>
       <r>    -1.7497     7.3648    46.3065 </r>
       <r>    -1.4434     6.4072    48.2696 </r>
       <r>    -1.1370     8.7397    50.9472 </r>
       <r>    -0.8306     9.0665    53.7250 </r>
       <r>    -0.5242    11.3787    57.2112 </r>
       <r>    -0.2178    18.1829    62.7821 </r>
       <r>     0.0886    28.8797    71.6303 </r>
       <r>     0.3949     1.2072    72.0002 </r>
       <r>     0.7013    -0.0007    72.0000 </r>
       <r>     1.0077    -0.0199    71.9939 </r>
       <r>     1.3141     7.4840    74.2869 </r>
       <r>     1.6205    44.7489    87.9971 </r>
       <r>     1.9268    13.8228    92.2321 </r>
       <r>     2.2332    13.1728    96.2680 </r>
       <r>     2.5396    12.8552   100.2066 </r>
       <r>     2.8460    11.1576   103.6251 </r>
       <r>     3.1524     9.0697   106.4039 </r>
       <r>     3.4587     7.9190   108.8301 </r>
       <r>     3.7651     6.9538   110.9606 </r>
       <r>     4.0715     3.1512   111.9261 </r>
       <r>     4.3779     0.2418   112.0002 </r>
       <r>     4.6843    -0.0005   112.0000 </r>
       <r>     4.9907    -0.0000   112.0000 </r>
       <r>     5.2970    -0.0001   112.0000 </r>
       <r>     5.6034     0.0766   112.0234 </r>
       <r>     5.9098     0.1613   112.0728 </r>
       <r>     6.2162     2.6292   112.8784 </r>
       <r>     6.5226     4.3682   114.2167 </r>
       <r>     6.8289     3.4644   115.2781 </r>
       <r>     7.1353     2.4289   116.0223 </r>
       <r>     7.4417     1.4561   116.4684 </r>
       <r>     7.7481     3.1761   117.4415 </r>
       <r>     8.0545     5.5775   119.1503 </r>
       <r>     8.3608     5.5080   120.8379 </r>
       <r>     8.6672     4.5782   122.2406 </r>
       <r>     8.9736     4.4886   123.6158 </r>
       <r>     9.2800     5.6147   125.3360 </r>
       <r>     9.5864     5.6928   127.0802 </r>
       <r>     9.8927     4.7821   128.5454 </r>
       <r>    10.1991     4.4722   129.9156 </r>
       <r>    10.5055     6.5029   131.9079 </r>
       <r>    10.8119     8.2810   134.4451 </r>
       <r>    11.1183     8.2268   136.9656 </r>
       <r>    11.4247     7.9772   139.4097 </r>
       <r>    11.7310     7.9094   141.8330 </r>
       <r>    12.0374     6.5644   143.8442 </r>
       <r>    12.3438     5.8702   145.6427 </r>
       <r>    12.6502     6.6619   147.6838 </r>
       <r>    12.9566     5.7731   149.4526 </r>
       <r>    13.2629     6.1943   151.3504 </r>
       <r>    13.5693     5.3425   152.9872 </r>
       <r>    13.8757     4.0539   154.2293 </r>
       <r>    14.1821     3.1671   155.1996 </r>
       <r>    14.4885     4.7306   156.6490 </r>
       <r>    14.7948     3.3646   157.6798 </r>
       <r>    15.1012     1.4094   158.1116 </r>
       <r>    15.4076     1.6163   158.6068 </r>
       <r>    15.7140     1.2080   158.9769 </r>
       <r>    16.0204     1.6783   159.4911 </r>
       <r>    16.3267     0.3294   159.5920 </r>
       <r>    16.6331     0.6764   159.7993 </r>
       <r>    16.9395     0.5401   159.9648 </r>
       <r>    17.2459     0.1151   160.0000 </r>
       <r>    17.5523    -0.0000   160.0000 </r>
       <r>    17.8587     0.0000   160.0000 </r>
       <r>    18.1650     0.0000   160.0000 </r>
       <r>    18.4714     0.0000   160.0000 </r>
       <r>    18.7778     0.0000   160.0000 </r>
       <r>    19.0842     0.0000   160.0000 </r>
      </set>
     </set>
    </array>
   </total>
  </dos>
 </calculation>
 <structure name="finalpos" >
  <crystal>
   <varray name="basis" >
    <v>       3.22479600      -5.64383000       0.03157200 </v>
    <v>       3.22479600       5.64383000       0.03157200 </v>
    <v>      -2.10194600       0.00000000       6.07553700 </v>
   </varray>
   <i name="volume">    221.90106089 </i>
   <varray name="rec_basis" >
    <v>       0.15452516      -0.08859232       0.05346088 </v>
    <v>       0.15452516       0.08859232       0.05346088 </v>
    <v>      -0.00160600       0.00000000       0.16403888 </v>
   </varray>
  </crystal>
  <varray name="positions" >
   <v>       0.61844300       0.12117100       0.11953300 </v>
   <v>       0.12117100       0.61844300       0.61953300 </v>
   <v>       0.96295700       0.79032200       0.11881300 </v>
   <v>       0.79032200       0.96295700       0.61881300 </v>
   <v>       0.43973200       0.26728100       0.59904700 </v>
   <v>       0.26728100       0.43973200       0.09904700 </v>
   <v>       0.07949800       0.91167500       0.49891848 </v>
   <v>       0.57140300       0.41236400       0.98018400 </v>
   <v>       0.73711100       0.25006200       0.49504900 </v>
   <v>       0.41236400       0.57140300       0.48018400 </v>
   <v>       0.91167500       0.07949800       0.99736300 </v>
   <v>       0.25006200       0.73711100       0.99504900 </v>
  </varray>
 </structure>
</modeling>
