 vasp.5.3.3 18Dez12 (build Nov 13 2015 09:58:40) complex                        
  
 executed on             LinuxIFC date 2017.10.18  13:03:59
 running on   48 total cores
 distrk:  each k-point on   16 cores,    3 groups
 distr:  one band on NCORES_PER_BAND=   1 cores,   16 groups


--------------------------------------------------------------------------------------------------------


 INCAR:
 POTCAR:    PAW_PBE Cu_pv 06Sep2000               
 POTCAR:    PAW_PBE Ge 05Jan2001                  
 POTCAR:    PAW_PBE S 17Jan2003                   

 ----------------------------------------------------------------------------- 
|                                                                             |
|           W    W    AA    RRRRR   N    N  II  N    N   GGGG   !!!           |
|           W    W   A  A   R    R  NN   N  II  NN   N  G    G  !!!           |
|           W    W  A    A  R    R  N N  N  II  N N  N  G       !!!           |
|           W WW W  AAAAAA  RRRRR   N  N N  II  N  N N  G  GGG   !            |
|           WW  WW  A    A  R   R   N   NN  II  N   NN  G    G                |
|           W    W  A    A  R    R  N    N  II  N    N   GGGG   !!!           |
|                                                                             |
|      For optimal performance we recommend that you set                      |
|        NPAR = 4 - approx SQRT( number of cores)                             |
|      (number of cores/NPAR must be integer)                                 |
|      This setting will greatly improve the performance of VASP for DFT.     |
|      The default NPAR=number of cores might be grossly inefficient          |
|      on modern multi-core architectures or massively parallel machines.     |
|      Do your own testing.                                                   |
|      Unfortunately you need to use the default for hybrid, GW and RPA       |
|      calculations.                                                          |
|                                                                             |
 ----------------------------------------------------------------------------- 


 ----------------------------------------------------------------------------- 
|                                                                             |
|           W    W    AA    RRRRR   N    N  II  N    N   GGGG   !!!           |
|           W    W   A  A   R    R  NN   N  II  NN   N  G    G  !!!           |
|           W    W  A    A  R    R  N N  N  II  N N  N  G       !!!           |
|           W WW W  AAAAAA  RRRRR   N  N N  II  N  N N  G  GGG   !            |
|           WW  WW  A    A  R   R   N   NN  II  N   NN  G    G                |
|           W    W  A    A  R    R  N    N  II  N    N   GGGG   !!!           |
|                                                                             |
|      You have enabled k-point parallelism (KPAR>1).                         |
|      This developmental code was originally  written by Paul Kent at ORNL,  |
|      and carefully double checked in Vienna.                                |
|      GW as well as linear response parallelism added by Martijn Marsman     |
|      and Georg Kresse.                                                      |
|      Carefully verify results versus KPAR=1.                                |
|      Report problems to Paul Kent and Vienna.                               |
|                                                                             |
 ----------------------------------------------------------------------------- 

 POTCAR:    PAW_PBE Cu_pv 06Sep2000               
   VRHFIN =Cu: d10 p1                                                           
   LEXCH  = PE                                                                  
   EATOM  =  4120.1201 eV,  302.8203 Ry                                         
                                                                                
   TITEL  = PAW_PBE Cu_pv 06Sep2000                                             
   LULTRA =        F    use ultrasoft PP ?                                      
   IUNSCR =        1    unscreen: 0-lin 1-nonlin 2-no                           
   RPACOR =    1.500    partial core radius                                     
   POMASS =   63.546; ZVAL   =   17.000    mass and valenz                      
   RCORE  =    2.000    outmost cutoff radius                                   
   RWIGS  =    2.000; RWIGS  =    1.058    wigner-seitz radius (au A)           
   ENMAX  =  368.648; ENMIN  =  276.486 eV                                      
   RCLOC  =    1.304    cutoff for local pot                                    
   LCOR   =        T    correct aug charges                                     
   LPAW   =        T    paw PP                                                  
   EAUG   =  758.233                                                            
   DEXC   =    0.000                                                            
   RMAX   =    2.046    core radius for proj-oper                               
   RAUG   =    1.300    factor for augmentation sphere                          
   RDEP   =    2.025    radius for radial grids                                 
   RDEPT  =    1.558    core radius for aug-charge                              
                                                                                
   Atomic configuration                                                         
    8 entries                                                                   
     n  l   j            E        occ.                                          
     1  0  0.50     -8850.2467   2.0000                                         
     2  0  0.50     -1062.3498   2.0000                                         
     2  1  1.50      -916.8226   6.0000                                         
     3  0  0.50      -114.6929   2.0000                                         
     3  1  1.50       -72.1325   6.0000                                         
     3  2  2.50        -5.0394  10.0000                                         
     4  0  0.50        -4.6097   1.0000                                         
     4  3  2.50        -1.3606   0.0000                                         
   Description                                                                  
     l       E           TYP  RCUT    TYP  RCUT                                 
     1    -72.1324777     23  1.700                                             
     1     -1.3605826     23  1.700                                             
     2     -5.0393776     23  2.000                                             
     2     -6.3999602     23  2.000                                             
     0     -4.6097062     23  1.800                                             
     0     14.1620818     23  1.800                                             
  local pseudopotential read in
  partial core-charges read in
  partial kinetic energy density read in
  atomic valenz-charges read in
  non local Contribution for L=           1  read in
    real space projection operators read in
  non local Contribution for L=           1  read in
    real space projection operators read in
  non local Contribution for L=           2  read in
    real space projection operators read in
  non local Contribution for L=           2  read in
    real space projection operators read in
  non local Contribution for L=           0  read in
    real space projection operators read in
  non local Contribution for L=           0  read in
    real space projection operators read in
    PAW grid and wavefunctions read in
 
   number of l-projection  operators is LMAX  =           6
   number of lm-projection operators is LMMAX =          18
 
 POTCAR:    PAW_PBE Ge 05Jan2001                  
   VRHFIN =Ge: s2p2                                                             
   LEXCH  = PE                                                                  
   EATOM  =   104.9960 eV,    7.7170 Ry                                         
                                                                                
   TITEL  = PAW_PBE Ge 05Jan2001                                                
   LULTRA =        F    use ultrasoft PP ?                                      
   IUNSCR =        1    unscreen: 0-lin 1-nonlin 2-no                           
   RPACOR =    2.170    partial core radius                                     
   POMASS =   72.610; ZVAL   =    4.000    mass and valenz                      
   RCORE  =    2.300    outmost cutoff radius                                   
   RWIGS  =    2.300; RWIGS  =    1.217    wigner-seitz radius (au A)           
   ENMAX  =  173.807; ENMIN  =  130.355 eV                                      
   ICORE  =        3    local potential                                         
   LCOR   =        T    correct aug charges                                     
   LPAW   =        T    paw PP                                                  
   EAUG   =  385.843                                                            
   DEXC   =    0.000                                                            
   RMAX   =    2.342    core radius for proj-oper                               
   RAUG   =    1.300    factor for augmentation sphere                          
   RDEP   =    2.318    radius for radial grids                                 
   RDEPT  =    2.103    core radius for aug-charge                              
                                                                                
   Atomic configuration                                                         
   10 entries                                                                   
     n  l   j            E        occ.                                          
     1  0  0.50    -10959.8463   2.0000                                         
     2  0  0.50     -1371.6056   2.0000                                         
     2  1  1.50     -1198.4791   6.0000                                         
     3  0  0.50      -168.4733   2.0000                                         
     3  1  1.50      -115.6019   6.0000                                         
     3  2  2.50       -29.3106  10.0000                                         
     4  0  0.50       -11.7309   2.0000                                         
     4  1  0.50        -3.8952   2.0000                                         
     4  2  1.50        -4.0817   0.0000                                         
     4  3  2.50        -4.0817   0.0000                                         
   Description                                                                  
     l       E           TYP  RCUT    TYP  RCUT                                 
     0    -11.7309493     23  2.300                                             
     0     -7.4578696     23  2.300                                             
     1     -3.8952261     23  2.300                                             
     1      6.1178114     23  2.300                                             
     2     -4.0817478     23  2.300                                             
     3     -1.3605826      7  2.300                                             
  local pseudopotential read in
  partial core-charges read in
  partial kinetic energy density read in
  atomic valenz-charges read in
  non local Contribution for L=           0  read in
    real space projection operators read in
  non local Contribution for L=           0  read in
    real space projection operators read in
  non local Contribution for L=           1  read in
    real space projection operators read in
  non local Contribution for L=           1  read in
    real space projection operators read in
  non local Contribution for L=           2  read in
    real space projection operators read in
    PAW grid and wavefunctions read in
 
   number of l-projection  operators is LMAX  =           5
   number of lm-projection operators is LMMAX =          13
 
 POTCAR:    PAW_PBE S 17Jan2003                   
   VRHFIN =S : s2p4                                                             
   LEXCH  = PE                                                                  
   EATOM  =   276.8230 eV,   20.3459 Ry                                         
                                                                                
   TITEL  = PAW_PBE S 17Jan2003                                                 
   LULTRA =        F    use ultrasoft PP ?                                      
   IUNSCR =        1    unscreen: 0-lin 1-nonlin 2-no                           
   RPACOR =    1.500    partial core radius                                     
   POMASS =   32.066; ZVAL   =    6.000    mass and valenz                      
   RCORE  =    1.900    outmost cutoff radius                                   
   RWIGS  =    2.200; RWIGS  =    1.164    wigner-seitz radius (au A)           
   ENMAX  =  280.000; ENMIN  =  194.016 eV                                      
   ICORE  =        2    local potential                                         
   LCOR   =        T    correct aug charges                                     
   LPAW   =        T    paw PP                                                  
   EAUG   =  335.092                                                            
   DEXC   =     .000                                                            
   RMAX   =    2.867    core radius for proj-oper                               
   RAUG   =    1.300    factor for augmentation sphere                          
   RDEP   =    1.954    radius for radial grids                                 
   QCUT   =   -4.360; QGAM   =    8.721    optimization parameters              
                                                                                
   Description                                                                  
     l     E      TYP  RCUT    TYP  RCUT                                        
     0   .000     23  1.900                                                     
     0   .000     23  1.900                                                     
     1   .000     23  1.900                                                     
     1   .000     23  1.900                                                     
     2   .000     23  1.900                                                     
  local pseudopotential read in
  partial core-charges read in
  atomic valenz-charges read in
  non local Contribution for L=           0  read in
    real space projection operators read in
  non local Contribution for L=           0  read in
    real space projection operators read in
  non local Contribution for L=           1  read in
    real space projection operators read in
  non local Contribution for L=           1  read in
    real space projection operators read in
    PAW grid and wavefunctions read in
 
   number of l-projection  operators is LMAX  =           4
   number of lm-projection operators is LMMAX =           8
 
  PAW_PBE Cu_pv 06Sep2000               :
 energy of atom  1       EATOM=-4120.1201
 kinetic energy error for atom=    0.0996 (will be added to EATOM!!)
  PAW_PBE Ge 05Jan2001                  :
 energy of atom  2       EATOM= -104.9960
 kinetic energy error for atom=    0.0003 (will be added to EATOM!!)
  PAW_PBE S 17Jan2003                   :
 energy of atom  3       EATOM= -276.8230
 kinetic energy error for atom=    0.0046 (will be added to EATOM!!)
 
 
 POSCAR: Cu Ge S                                 
  positions in direct lattice
  No initial velocities read in
 exchange correlation table for  LEXCH =        8
   RHO(1)=    0.500       N(1)  =     2000
   RHO(2)=  100.500       N(2)  =     4000
 


--------------------------------------------------------------------------------------------------------


 ion  position               nearest neighbor table
   1  0.618  0.121  0.120-   9 2.29  11 2.29  12 2.30   8 2.35
   2  0.121  0.618  0.620-  12 2.29   7 2.29   9 2.30  10 2.35
   3  0.963  0.790  0.119-  11 2.30  12 2.30   7 2.31   8 2.36
   4  0.790  0.963  0.619-   7 2.30   9 2.30  11 2.31  10 2.36
   5  0.441  0.267  0.599-   9 2.18   7 2.20  10 2.31   8 2.33
   6  0.267  0.440  0.099-  11 2.19  12 2.19   8 2.31  10 2.33
   7  0.079  0.912  0.497-   5 2.20   2 2.29   4 2.30   3 2.31
   8  0.571  0.412  0.980-   6 2.31   5 2.33   1 2.35   3 2.36
   9  0.737  0.250  0.495-   5 2.18   1 2.29   4 2.30   2 2.30
  10  0.412  0.571  0.480-   5 2.31   6 2.33   2 2.35   4 2.36
  11  0.912  0.079  0.997-   6 2.19   1 2.29   3 2.30   4 2.31
  12  0.250  0.737  0.995-   6 2.19   2 2.29   3 2.30   1 2.30
 
  Warning from LATTYP: Got some problem with cell dimensions!
  Tried to take original basis but could not verify dimensions!
  LATTYP: Found a base centered monoclinic cell.
 ALAT       =     6.4499010947
 B/A-ratio  =     1.7500516418
 C/A-ratio  =     1.9305142024
 COS(beta)  =    -0.4326083233
  
  Lattice vectors:
  
 A1 = (   3.2247960000,   5.6438300000,   0.0315720000)
 A2 = (   3.2247960000,  -5.6438300000,   0.0315720000)
 A3 = ( -10.7972380000,   0.0000000000,  -6.2018250000)


Analysis of symmetry for initial positions (statically):
=====================================================================
 Subroutine PRICEL returns:
 Original cell was already a primitive cell.
 

 Routine SETGRP: Setting up the symmetry group for a 
 base centered monoclinic supercell.


 Subroutine GETGRP returns: Found  1 space group operations
 (whereof  1 operations were pure point group operations)
 out of a pool of  4 trial point group operations.


The static configuration has the point symmetry C_1 .


Analysis of symmetry for dynamics (positions and initial velocities):
=====================================================================
 Subroutine PRICEL returns:
 Original cell was already a primitive cell.
 

 Routine SETGRP: Setting up the symmetry group for a 
 base centered monoclinic supercell.


 Subroutine GETGRP returns: Found  1 space group operations
 (whereof  1 operations were pure point group operations)
 out of a pool of  4 trial point group operations.


The dynamic configuration has the point symmetry C_1 .


 irot  :   1
 --------------------------------------------------------------------
 isymop:   1   0   0
           0   1   0
           0   0   1

 gtrans:     0.0000000     0.0000000     0.0000000

 ptrans:     0.0000000     0.0000000     0.0000000
 rotmap:
 (   1->   1)  (   2->   2)  (   3->   3)  (   4->   4)  (   5->   5) 
 (   6->   6)  (   7->   7)  (   8->   8)  (   9->   9)  (  10->  10) 
 (  11->  11)  (  12->  12) 
 
 
 KPOINTS: pymatgen 4.7.6+ generated KPOINTS with g

Automatic generation of k-mesh.
Space group operators:
 irot       det(A)        alpha          n_x          n_y          n_z        tau_x        tau_y        tau_z
    1     1.000000     0.000000     1.000000     0.000000     0.000000     0.000000     0.000000     0.000000
 
 Subroutine IBZKPT returns following result:
 ===========================================
 
 Found     42 irreducible k-points:
 
 Following reciprocal coordinates:
            Coordinates               Weight
  0.000000  0.000000  0.000000      1.000000
  0.250000  0.000000  0.000000      2.000000
  0.500000  0.000000  0.000000      1.000000
  0.000000  0.250000  0.000000      2.000000
  0.250000  0.250000  0.000000      2.000000
  0.500000  0.250000 -0.000000      2.000000
 -0.250000  0.250000  0.000000      2.000000
  0.000000  0.500000  0.000000      1.000000
  0.250000  0.500000 -0.000000      2.000000
  0.500000  0.500000  0.000000      1.000000
 -0.000000 -0.000000  0.200000      2.000000
  0.250000  0.000000  0.200000      2.000000
  0.500000  0.000000  0.200000      2.000000
 -0.250000 -0.000000  0.200000      2.000000
  0.000000  0.250000  0.200000      2.000000
  0.250000  0.250000  0.200000      2.000000
  0.500000  0.250000  0.200000      2.000000
 -0.250000  0.250000  0.200000      2.000000
  0.000000  0.500000  0.200000      2.000000
  0.250000  0.500000  0.200000      2.000000
  0.500000  0.500000  0.200000      2.000000
 -0.250000  0.500000  0.200000      2.000000
 -0.000000 -0.250000  0.200000      2.000000
  0.250000 -0.250000  0.200000      2.000000
  0.500000 -0.250000  0.200000      2.000000
 -0.250000 -0.250000  0.200000      2.000000
 -0.000000 -0.000000  0.400000      2.000000
  0.250000  0.000000  0.400000      2.000000
  0.500000  0.000000  0.400000      2.000000
 -0.250000  0.000000  0.400000      2.000000
  0.000000  0.250000  0.400000      2.000000
  0.250000  0.250000  0.400000      2.000000
  0.500000  0.250000  0.400000      2.000000
 -0.250000  0.250000  0.400000      2.000000
  0.000000  0.500000  0.400000      2.000000
  0.250000  0.500000  0.400000      2.000000
  0.500000  0.500000  0.400000      2.000000
 -0.250000  0.500000  0.400000      2.000000
  0.000000 -0.250000  0.400000      2.000000
  0.250000 -0.250000  0.400000      2.000000
  0.500000 -0.250000  0.400000      2.000000
 -0.250000 -0.250000  0.400000      2.000000
 
 Following cartesian coordinates:
            Coordinates               Weight
  0.000000  0.000000  0.000000      1.000000
  0.038631 -0.022148  0.013365      2.000000
  0.077263 -0.044296  0.026730      1.000000
  0.038631  0.022148  0.013365      2.000000
  0.077263  0.000000  0.026730      2.000000
  0.115894 -0.022148  0.040096      2.000000
  0.000000  0.044296  0.000000      2.000000
  0.077263  0.044296  0.026730      1.000000
  0.115894  0.022148  0.040096      2.000000
  0.154525  0.000000  0.053461      1.000000
 -0.000321  0.000000  0.032808      2.000000
  0.038310 -0.022148  0.046173      2.000000
  0.076941 -0.044296  0.059538      2.000000
 -0.038952  0.022148  0.019443      2.000000
  0.038310  0.022148  0.046173      2.000000
  0.076941  0.000000  0.059538      2.000000
  0.115573 -0.022148  0.072903      2.000000
 -0.000321  0.044296  0.032808      2.000000
  0.076941  0.044296  0.059538      2.000000
  0.115573  0.022148  0.072903      2.000000
  0.154204  0.000000  0.086269      2.000000
  0.038310  0.066444  0.046173      2.000000
 -0.038952 -0.022148  0.019443      2.000000
 -0.000321 -0.044296  0.032808      2.000000
  0.038310 -0.066444  0.046173      2.000000
 -0.077584  0.000000  0.006077      2.000000
 -0.000642  0.000000  0.065616      2.000000
  0.037989 -0.022148  0.078981      2.000000
  0.076620 -0.044296  0.092346      2.000000
 -0.039274  0.022148  0.052250      2.000000
  0.037989  0.022148  0.078981      2.000000
  0.076620  0.000000  0.092346      2.000000
  0.115251 -0.022148  0.105711      2.000000
 -0.000642  0.044296  0.065616      2.000000
  0.076620  0.044296  0.092346      2.000000
  0.115251  0.022148  0.105711      2.000000
  0.153883  0.000000  0.119076      2.000000
  0.037989  0.066444  0.078981      2.000000
 -0.039274 -0.022148  0.052250      2.000000
 -0.000642 -0.044296  0.065616      2.000000
  0.037989 -0.066444  0.078981      2.000000
 -0.077905  0.000000  0.038885      2.000000
 
 
 Subroutine IBZKPT_HF returns following result:
 ==============================================
 
 Found     80 k-points in 1st BZ
 the following     80 k-points will be used (e.g. in the exchange kernel)
 Following reciprocal coordinates:   # in IRBZ
  0.000000  0.000000  0.000000       1 t-inv F
  0.250000  0.000000  0.000000       2 t-inv F
  0.500000  0.000000  0.000000       3 t-inv F
  0.000000  0.250000  0.000000       4 t-inv F
  0.250000  0.250000  0.000000       5 t-inv F
  0.500000  0.250000 -0.000000       6 t-inv F
 -0.250000  0.250000  0.000000       7 t-inv F
  0.000000  0.500000  0.000000       8 t-inv F
  0.250000  0.500000 -0.000000       9 t-inv F
  0.500000  0.500000  0.000000      10 t-inv F
 -0.000000 -0.000000  0.200000      11 t-inv F
  0.250000  0.000000  0.200000      12 t-inv F
  0.500000  0.000000  0.200000      13 t-inv F
 -0.250000 -0.000000  0.200000      14 t-inv F
  0.000000  0.250000  0.200000      15 t-inv F
  0.250000  0.250000  0.200000      16 t-inv F
  0.500000  0.250000  0.200000      17 t-inv F
 -0.250000  0.250000  0.200000      18 t-inv F
  0.000000  0.500000  0.200000      19 t-inv F
  0.250000  0.500000  0.200000      20 t-inv F
  0.500000  0.500000  0.200000      21 t-inv F
 -0.250000  0.500000  0.200000      22 t-inv F
 -0.000000 -0.250000  0.200000      23 t-inv F
  0.250000 -0.250000  0.200000      24 t-inv F
  0.500000 -0.250000  0.200000      25 t-inv F
 -0.250000 -0.250000  0.200000      26 t-inv F
 -0.000000 -0.000000  0.400000      27 t-inv F
  0.250000  0.000000  0.400000      28 t-inv F
  0.500000  0.000000  0.400000      29 t-inv F
 -0.250000  0.000000  0.400000      30 t-inv F
  0.000000  0.250000  0.400000      31 t-inv F
  0.250000  0.250000  0.400000      32 t-inv F
  0.500000  0.250000  0.400000      33 t-inv F
 -0.250000  0.250000  0.400000      34 t-inv F
  0.000000  0.500000  0.400000      35 t-inv F
  0.250000  0.500000  0.400000      36 t-inv F
  0.500000  0.500000  0.400000      37 t-inv F
 -0.250000  0.500000  0.400000      38 t-inv F
  0.000000 -0.250000  0.400000      39 t-inv F
  0.250000 -0.250000  0.400000      40 t-inv F
  0.500000 -0.250000  0.400000      41 t-inv F
 -0.250000 -0.250000  0.400000      42 t-inv F
 -0.250000 -0.000000 -0.000000       2 t-inv T
 -0.000000 -0.250000 -0.000000       4 t-inv T
 -0.250000 -0.250000  0.000000       5 t-inv T
 -0.500000 -0.250000  0.000000       6 t-inv T
  0.250000 -0.250000  0.000000       7 t-inv T
 -0.250000 -0.500000  0.000000       9 t-inv T
  0.000000  0.000000 -0.200000      11 t-inv T
 -0.250000 -0.000000 -0.200000      12 t-inv T
 -0.500000 -0.000000 -0.200000      13 t-inv T
  0.250000  0.000000 -0.200000      14 t-inv T
 -0.000000 -0.250000 -0.200000      15 t-inv T
 -0.250000 -0.250000 -0.200000      16 t-inv T
 -0.500000 -0.250000 -0.200000      17 t-inv T
  0.250000 -0.250000 -0.200000      18 t-inv T
 -0.000000 -0.500000 -0.200000      19 t-inv T
 -0.250000 -0.500000 -0.200000      20 t-inv T
 -0.500000 -0.500000 -0.200000      21 t-inv T
  0.250000 -0.500000 -0.200000      22 t-inv T
  0.000000  0.250000 -0.200000      23 t-inv T
 -0.250000  0.250000 -0.200000      24 t-inv T
 -0.500000  0.250000 -0.200000      25 t-inv T
  0.250000  0.250000 -0.200000      26 t-inv T
  0.000000  0.000000 -0.400000      27 t-inv T
 -0.250000 -0.000000 -0.400000      28 t-inv T
 -0.500000 -0.000000 -0.400000      29 t-inv T
  0.250000 -0.000000 -0.400000      30 t-inv T
 -0.000000 -0.250000 -0.400000      31 t-inv T
 -0.250000 -0.250000 -0.400000      32 t-inv T
 -0.500000 -0.250000 -0.400000      33 t-inv T
  0.250000 -0.250000 -0.400000      34 t-inv T
 -0.000000 -0.500000 -0.400000      35 t-inv T
 -0.250000 -0.500000 -0.400000      36 t-inv T
 -0.500000 -0.500000 -0.400000      37 t-inv T
  0.250000 -0.500000 -0.400000      38 t-inv T
 -0.000000  0.250000 -0.400000      39 t-inv T
 -0.250000  0.250000 -0.400000      40 t-inv T
 -0.500000  0.250000 -0.400000      41 t-inv T
  0.250000  0.250000 -0.400000      42 t-inv T


--------------------------------------------------------------------------------------------------------




 Dimension of arrays:
   k-points           NKPTS =     42   k-points in BZ     NKDIM =     80   number of bands    NBANDS=     80
   number of dos      NEDOS =    301   number of ions     NIONS =     12
   non local maximal  LDIM  =      6   non local SUM 2l+1 LMDIM =     18
   total plane-waves  NPLWV =  32768
   max r-space proj   IRMAX =      1   max aug-charges    IRDMAX=   8224
   dimension x,y,z NGX =    32 NGY =   32 NGZ =   32
   dimension x,y,z NGXF=    64 NGYF=   64 NGZF=   64
   support grid    NGXF=    64 NGYF=   64 NGZF=   64
   ions per type =               4   2   6
 NGX,Y,Z   is equivalent  to a cutoff of   8.18,  8.18,  8.27 a.u.
 NGXF,Y,Z  is equivalent  to a cutoff of  16.37, 16.37, 16.55 a.u.


 I would recommend the setting:
   dimension x,y,z NGX =    32 NGY =   32 NGZ =   31
 SYSTEM =  CGS                                     
 POSCAR =  Cu Ge S                                 

 Startparameter for this run:
   NWRITE =      2    write-flag & timer
   PREC   = normal    normal or accurate (medium, high low for compatibility)
   ISTART =      1    job   : 0-new  1-cont  2-samecut
   ICHARG =      0    charge: 1-file 2-atom 10-const
   ISPIN  =      1    spin polarized calculation?
   LNONCOLLINEAR =      F non collinear calculations
   LSORBIT =      F    spin-orbit coupling
   INIWAV =      1    electr: 0-lowe 1-rand  2-diag
   LASPH  =      F    aspherical Exc in radial PAW
   METAGGA=      F    non-selfconsistent MetaGGA calc.

 Electronic Relaxation 1
   ENCUT  =  400.0 eV  29.40 Ry    5.42 a.u.  10.60 10.60 10.48*2*pi/ulx,y,z
   ENINI  =  400.0     initial cutoff
   ENAUG  =  758.2 eV  augmentation charge cutoff
   NELM   =     60;   NELMIN=  2; NELMDL=  0     # of ELM steps 
   EDIFF  = 0.1E-04   stopping-criterion for ELM
   LREAL  =      F    real-space projection
   NLSPLINE    = F    spline interpolate recip. space projectors
   LCOMPAT=      F    compatible to vasp.4.4
   GGA_COMPAT  = T    GGA compatible to vasp.4.4-vasp.4.6
   LMAXPAW     = -100 max onsite density
   LMAXMIX     =    2 max onsite mixed and CHGCAR
   VOSKOWN=      0    Vosko Wilk Nusair interpolation
   ROPT   =    0.00000   0.00000   0.00000
 Ionic relaxation
   EDIFFG = 0.1E-03   stopping-criterion for IOM
   NSW    =      0    number of steps for IOM
   NBLOCK =      1;   KBLOCK =      1    inner block; outer block 
   IBRION =     -1    ionic relax: 0-MD 1-quasi-New 2-CG
   NFREE  =      0    steps in history (QN), initial steepest desc. (CG)
   ISIF   =      0    stress and relaxation
   IWAVPR =     10    prediction:  0-non 1-charg 2-wave 3-comb
   ISYM   =      3    0-nonsym 1-usesym 2-fastsym
   LCORR  =      T    Harris-Foulkes like correction to forces

   POTIM  = 0.5000    time-step for ionic-motion
   TEIN   =    0.0    initial temperature
   TEBEG  =    0.0;   TEEND  =   0.0 temperature during run
   SMASS  =  -3.00    Nose mass-parameter (am)
   estimated Nose-frequenzy (Omega)   =  0.10E-29 period in steps =****** mass=  -0.966E-27a.u.
   SCALEE = 1.0000    scale energy and forces
   NPACO  =    256;   APACO  = 16.0  distance and # of slots for P.C.
   PSTRESS=    0.0 pullay stress

  Mass of Ions in am
   POMASS =  63.55 72.61 32.07
  Ionic Valenz
   ZVAL   =  17.00  4.00  6.00
  Atomic Wigner-Seitz radii
   RWIGS  =  -1.00 -1.00 -1.00
  virtual crystal weights 
   VCA    =   1.00  1.00  1.00
   NELECT =     112.0000    total number of electrons
   NUPDOWN=      -1.0000    fix difference up-down

 DOS related values:
   EMIN   =  10.00;   EMAX   =-10.00  energy-range for DOS
   EFERMI =   0.00
   ISMEAR =     1;   SIGMA  =   0.10  broadening in eV -4-tet -1-fermi 0-gaus

 Electronic relaxation 2 (details)
   IALGO  =     53    algorithm
   LDIAG  =      T    sub-space diagonalisation (order eigenvalues)
   LSUBROT=      T    optimize rotation matrix (better conditioning)
   TURBO    =      0    0=normal 1=particle mesh
   IRESTART =      0    0=no restart 2=restart with 2 vectors
   NREBOOT  =      0    no. of reboots
   NMIN     =      0    reboot dimension
   EREF     =   0.00    reference energy to select bands
   IMIX   =      4    mixing-type and parameters
     AMIX     =   0.40;   BMIX     =  1.00
     AMIX_MAG =   1.60;   BMIX_MAG =  1.00
     AMIN     =   0.10
     WC   =   100.;   INIMIX=   1;  MIXPRE=   1;  MAXMIX= -45

 Intra band minimization:
   WEIMIN = 0.0000     energy-eigenvalue tresh-hold
   EBREAK =  0.31E-07  absolut break condition
   DEPER  =   0.30     relativ break condition  

   TIME   =   0.40     timestep for ELM

  volume/ion in A,a.u.               =      18.49       124.79
  Fermi-wavevector in a.u.,A,eV,Ry     =   1.303450  2.463163 23.116052  1.698982
  Thomas-Fermi vector in A             =   2.434451
 
 Write flags
   LWAVE  =      T    write WAVECAR
   LCHARG =      T    write CHGCAR
   LVTOT  =      F    write LOCPOT, total local potential
   LVHAR  =      F    write LOCPOT, Hartree potential only
   LELF   =      F    write electronic localiz. function (ELF)
   LORBIT =      0    0 simple, 1 ext, 2 COOP (PROOUT)


 Dipole corrections
   LMONO  =      F    monopole corrections only (constant potential shift)
   LDIPOL =      F    correct potential (dipole corrections)
   IDIPOL =      0    1-x, 2-y, 3-z, 4-all directions 
   EPSILON=  1.0000000 bulk dielectric constant

 Exchange correlation treatment:
   GGA     =    PE    GGA type
   LEXCH   =     8    internal setting for exchange type
   VOSKOWN=      0    Vosko Wilk Nusair interpolation
   EXXOEP  =     0    0=HF, 1=EXX-LHF (local Hartree Fock) 2=EXX OEP
   LHFCALC =     T    Hartree Fock is set to
   LSYMGRAD=     F    symmetrize gradient (conserves proper symmetry)
   PRECFOCK=fast      Normal, Fast or Accurate (Low or Medium for compatibility)
   LRHFCALC=     F    long range Hartree Fock
   LRSCOR  =     F    long range correlation only (use DFT for short range part)
   LTHOMAS =     F    Thomas Fermi screening in HF
   LMODELHF=     F    short range full HF, long range fraction AEXX
   ENCUT4O =  -1.0   cutoff for four orbital integrals eV
   LMAXFOCK=     4    L truncation for augmentation on plane wave grid
   LMAXFOCKAE=  -1    L truncation for all-electron charge restoration on plane wave grid
   NMAXFOCKAE=   1    number of basis functions for all-electron charge restoration
   LFOCKAEDFT=     F  apply the AE augmentation even for DFT
   NKREDX  =     1    reduce k-point grid by
   NKREDY  =     1    reduce k-point grid by
   NKREDZ  =     1    reduce k-point grid by
   SHIFTRED=     F    shift reduced grid of Gamma
   HFKIDENT=     F    idential grid for each k-point
   ODDONLY =     F    use only odd q-grid points
   EVENONLY=     F    use only even q-grid points
   HFALPHA =   -1.0000 decay constant for conv. correction
   MCALPHA =    0.0000 extent of test-charge in conv. correction in multipole expansion
   AEXX    =    0.2500 exact exchange contribution
   HFSCREEN=    0.2000 screening length (either q_TF or 0.3 A-1)
   HFSCREENC=   0.2000 screening length for correlation (either q_TF or 0.3 A-1)
   HFRCUT  =    0.0000 spherical cutoff for potential kernel
   ALDAX   =    0.7500 LDA exchange part
   AGGAX   =    0.7500 GGA exchange part
   ALDAC   =    1.0000 LDA correlation
   AGGAC   =    1.0000 GGA correlation
   NBANDSGWLOW=     1    first orbital included in HF term
 Linear response parameters
   LEPSILON=     F    determine dielectric tensor
   LRPA    =     F    only Hartree local field effects (RPA)
   LNABLA  =     F    use nabla operator in PAW spheres
   LVEL    =     F    velocity operator in full k-point grid
   LINTERFAST=   F  fast interpolation
   KINTER  =     0    interpolate to denser k-point grid
   CSHIFT  =0.1000    complex shift for real part using Kramers Kronig
   OMEGAMAX=  -1.0    maximum frequency
   DEG_THRESHOLD= 0.2000000E-02 threshold for treating states as degnerate
   RTIME   =    0.100 relaxation time in fs

 Orbital magnetization related:
   ORBITALMAG=     F  switch on orbital magnetization
   LCHIMAG   =     F  perturbation theory with respect to B field
   DQ        =  0.001000  dq finite difference perturbation B field



--------------------------------------------------------------------------------------------------------


 Static calculation
 charge density and potential will be updated during run
 non-spin polarized calculation
 Conjugate gradient for all bands, subspace preconditioning
 perform sub-space diagonalisation
    before iterative eigenvector-optimisation
 modified Broyden-mixing scheme, WC =      100.0
 initial mixing is a Kerker type mixing with AMIX =  0.4000 and BMIX =      1.0000
 Hartree-type preconditioning will be used
 using additional bands           24
 reciprocal scheme for non local part
 use partial core corrections
 no Harris-corrections to forces 
 use gradient corrections 
 use of overlap-Matrix (Vanderbilt PP)
 Methfessel and Paxton  Order N= 1 SIGMA  =   0.10


--------------------------------------------------------------------------------------------------------


  energy-cutoff  :      400.00
  volume of cell :      221.90
      direct lattice vectors                 reciprocal lattice vectors
     3.224796000 -5.643830000  0.031572000     0.154525165 -0.088592321  0.053460880
     3.224796000  5.643830000  0.031572000     0.154525165  0.088592321  0.053460880
    -2.101946000  0.000000000  6.075537000    -0.001606004  0.000000000  0.164038877

  length of vectors
     6.500240234  6.500240234  6.428866683     0.185969598  0.185969598  0.164046738


 
 old parameters found on file WAVECAR:
  energy-cutoff  :      400.00
  volume of cell :      222.35
      direct lattice vectors                 reciprocal lattice vectors
     3.227235519 -5.642745207  0.030241751     0.154430495 -0.088609353  0.053450002
     3.227235519  5.642745207  0.030241751     0.154430495  0.088609353  0.053450002
    -2.106135241  0.000000000  6.085154262    -0.001534965  0.000000000  0.163803104

  length of vectors

 
 k-points in units of 2pi/SCALE and weight: pymatgen 4.7.6+ generated KPOINTS with g
   0.00000000  0.00000000  0.00000000       0.013
   0.03863129 -0.02214808  0.01336522       0.025
   0.07726258 -0.04429616  0.02673044       0.013
   0.03863129  0.02214808  0.01336522       0.025
   0.07726258  0.00000000  0.02673044       0.025
   0.11589387 -0.02214808  0.04009566       0.025
   0.00000000  0.04429616  0.00000000       0.025
   0.07726258  0.04429616  0.02673044       0.013
   0.11589387  0.02214808  0.04009566       0.025
   0.15452516  0.00000000  0.05346088       0.013
  -0.00032120  0.00000000  0.03280778       0.025
   0.03831009 -0.02214808  0.04617300       0.025
   0.07694138 -0.04429616  0.05953822       0.025
  -0.03895249  0.02214808  0.01944256       0.025
   0.03831009  0.02214808  0.04617300       0.025
   0.07694138  0.00000000  0.05953822       0.025
   0.11557267 -0.02214808  0.07290344       0.025
  -0.00032120  0.04429616  0.03280778       0.025
   0.07694138  0.04429616  0.05953822       0.025
   0.11557267  0.02214808  0.07290344       0.025
   0.15420396  0.00000000  0.08626865       0.025
   0.03831009  0.06644424  0.04617300       0.025
  -0.03895249 -0.02214808  0.01944256       0.025
  -0.00032120 -0.04429616  0.03280778       0.025
   0.03831009 -0.06644424  0.04617300       0.025
  -0.07758378  0.00000000  0.00607734       0.025
  -0.00064240  0.00000000  0.06561555       0.025
   0.03798889 -0.02214808  0.07898077       0.025
   0.07662018 -0.04429616  0.09234599       0.025
  -0.03927369  0.02214808  0.05225033       0.025
   0.03798889  0.02214808  0.07898077       0.025
   0.07662018  0.00000000  0.09234599       0.025
   0.11525147 -0.02214808  0.10571121       0.025
  -0.00064240  0.04429616  0.06561555       0.025
   0.07662018  0.04429616  0.09234599       0.025
   0.11525147  0.02214808  0.10571121       0.025
   0.15388276  0.00000000  0.11907643       0.025
   0.03798889  0.06644424  0.07898077       0.025
  -0.03927369 -0.02214808  0.05225033       0.025
  -0.00064240 -0.04429616  0.06561555       0.025
   0.03798889 -0.06644424  0.07898077       0.025
  -0.07790498  0.00000000  0.03888511       0.025
 
 k-points in reciprocal lattice and weights: pymatgen 4.7.6+ generated KPOINTS with g
   0.00000000  0.00000000  0.00000000       0.013
   0.25000000  0.00000000  0.00000000       0.025
   0.50000000  0.00000000  0.00000000       0.013
   0.00000000  0.25000000  0.00000000       0.025
   0.25000000  0.25000000  0.00000000       0.025
   0.50000000  0.25000000 -0.00000000       0.025
  -0.25000000  0.25000000  0.00000000       0.025
   0.00000000  0.50000000  0.00000000       0.013
   0.25000000  0.50000000 -0.00000000       0.025
   0.50000000  0.50000000  0.00000000       0.013
  -0.00000000 -0.00000000  0.20000000       0.025
   0.25000000  0.00000000  0.20000000       0.025
   0.50000000  0.00000000  0.20000000       0.025
  -0.25000000 -0.00000000  0.20000000       0.025
   0.00000000  0.25000000  0.20000000       0.025
   0.25000000  0.25000000  0.20000000       0.025
   0.50000000  0.25000000  0.20000000       0.025
  -0.25000000  0.25000000  0.20000000       0.025
   0.00000000  0.50000000  0.20000000       0.025
   0.25000000  0.50000000  0.20000000       0.025
   0.50000000  0.50000000  0.20000000       0.025
  -0.25000000  0.50000000  0.20000000       0.025
  -0.00000000 -0.25000000  0.20000000       0.025
   0.25000000 -0.25000000  0.20000000       0.025
   0.50000000 -0.25000000  0.20000000       0.025
  -0.25000000 -0.25000000  0.20000000       0.025
  -0.00000000 -0.00000000  0.40000000       0.025
   0.25000000  0.00000000  0.40000000       0.025
   0.50000000  0.00000000  0.40000000       0.025
  -0.25000000  0.00000000  0.40000000       0.025
   0.00000000  0.25000000  0.40000000       0.025
   0.25000000  0.25000000  0.40000000       0.025
   0.50000000  0.25000000  0.40000000       0.025
  -0.25000000  0.25000000  0.40000000       0.025
   0.00000000  0.50000000  0.40000000       0.025
   0.25000000  0.50000000  0.40000000       0.025
   0.50000000  0.50000000  0.40000000       0.025
  -0.25000000  0.50000000  0.40000000       0.025
   0.00000000 -0.25000000  0.40000000       0.025
   0.25000000 -0.25000000  0.40000000       0.025
   0.50000000 -0.25000000  0.40000000       0.025
  -0.25000000 -0.25000000  0.40000000       0.025
 
 position of ions in fractional coordinates (direct lattice) 
   0.61844300  0.12117100  0.11953300
   0.12117100  0.61844300  0.61953300
   0.96295700  0.79032200  0.11881300
   0.79032200  0.96295700  0.61881300
   0.44127040  0.26728100  0.59904700
   0.26728100  0.43973200  0.09904700
   0.07949800  0.91167500  0.49736300
   0.57140300  0.41236400  0.98018400
   0.73711100  0.25006200  0.49504900
   0.41236400  0.57140300  0.48018400
   0.91167500  0.07949800  0.99736300
   0.25006200  0.73711100  0.99504900
 
 position of ions in cartesian coordinates  (Angst):
   2.13385236 -2.80651863  0.74957826
   1.08287936  2.80651863  3.78734676
   5.40422860 -0.97432259  0.77720730
   4.35325560  0.97432259  3.81497580
   1.02576929 -0.98196662  3.66190260
   2.07178125  0.97328413  0.62408553
   2.15090056  4.69666552  3.05304062
   1.11215405 -0.89758908  5.98620365
   2.14286528 -2.74882176  3.03885554
   2.16312705  0.89758908  2.94843515
   1.09992756 -4.69666552  6.09080912
   1.09189228  2.74882176  6.07662404
 


--------------------------------------------------------------------------------------------------------


 k-point  1 :   0.0000 0.0000 0.0000  plane waves:    4051
 k-point  2 :   0.2500 0.0000 0.0000  plane waves:    4032
 k-point  3 :   0.5000 0.0000 0.0000  plane waves:    4030
 k-point  4 :   0.0000 0.2500 0.0000  plane waves:    4032
 k-point  5 :   0.2500 0.2500 0.0000  plane waves:    4038
 k-point  6 :   0.5000 0.2500-0.0000  plane waves:    4037
 k-point  7 :  -0.2500 0.2500 0.0000  plane waves:    4042
 k-point  8 :   0.0000 0.5000 0.0000  plane waves:    4030
 k-point  9 :   0.2500 0.5000-0.0000  plane waves:    4037
 k-point 10 :   0.5000 0.5000 0.0000  plane waves:    4026
 k-point 11 :  -0.0000-0.0000 0.2000  plane waves:    4046
 k-point 12 :   0.2500 0.0000 0.2000  plane waves:    4034
 k-point 13 :   0.5000 0.0000 0.2000  plane waves:    4025
 k-point 14 :  -0.2500-0.0000 0.2000  plane waves:    4044
 k-point 15 :   0.0000 0.2500 0.2000  plane waves:    4034
 k-point 16 :   0.2500 0.2500 0.2000  plane waves:    4017
 k-point 17 :   0.5000 0.2500 0.2000  plane waves:    4039
 k-point 18 :  -0.2500 0.2500 0.2000  plane waves:    4042
 k-point 19 :   0.0000 0.5000 0.2000  plane waves:    4025
 k-point 20 :   0.2500 0.5000 0.2000  plane waves:    4039
 k-point 21 :   0.5000 0.5000 0.2000  plane waves:    4030
 k-point 22 :  -0.2500 0.5000 0.2000  plane waves:    4030
 k-point 23 :  -0.0000-0.2500 0.2000  plane waves:    4044
 k-point 24 :   0.2500-0.2500 0.2000  plane waves:    4042
 k-point 25 :   0.5000-0.2500 0.2000  plane waves:    4030
 k-point 26 :  -0.2500-0.2500 0.2000  plane waves:    4020
 k-point 27 :  -0.0000-0.0000 0.4000  plane waves:    4027
 k-point 28 :   0.2500 0.0000 0.4000  plane waves:    4034
 k-point 29 :   0.5000 0.0000 0.4000  plane waves:    4013
 k-point 30 :  -0.2500 0.0000 0.4000  plane waves:    4042
 k-point 31 :   0.0000 0.2500 0.4000  plane waves:    4034
 k-point 32 :   0.2500 0.2500 0.4000  plane waves:    4009
 k-point 33 :   0.5000 0.2500 0.4000  plane waves:    4026
 k-point 34 :  -0.2500 0.2500 0.4000  plane waves:    4027
 k-point 35 :   0.0000 0.5000 0.4000  plane waves:    4013
 k-point 36 :   0.2500 0.5000 0.4000  plane waves:    4026
 k-point 37 :   0.5000 0.5000 0.4000  plane waves:    4037
 k-point 38 :  -0.2500 0.5000 0.4000  plane waves:    4022
 k-point 39 :   0.0000-0.2500 0.4000  plane waves:    4042
 k-point 40 :   0.2500-0.2500 0.4000  plane waves:    4027
 k-point 41 :   0.5000-0.2500 0.4000  plane waves:    4022
 k-point 42 :  -0.2500-0.2500 0.4000  plane waves:    4015

 maximum and minimum number of plane-waves per node :      4051     4009

 maximum number of plane-waves:      4051
 maximum index in each direction: 
   IXMAX=   10   IYMAX=   10   IZMAX=   10
   IXMIN=  -11   IYMIN=  -11   IZMIN=  -10

 WARNING: aliasing errors must be expected set NGX to  44 to avoid them
 WARNING: aliasing errors must be expected set NGY to  44 to avoid them
 WARNING: aliasing errors must be expected set NGZ to  42 to avoid them
 aliasing errors are usually negligible using standard VASP settings
 and one can safely disregard these warnings

 serial   3D FFT for wavefunctions
 parallel 3D FFT for charge:
    minimum data exchange during FFTs selected (reduces bandwidth)


 FFT grid for exact exchange (Hartree Fock) 
  NGX = 24; NGY = 24; NGZ = 24

 
 Radii for the augmentation spheres in the non-local exchange
 for species   1 augmentation radius   1.120 (default was   0.830)
       energy cutoff for augmentation   1600.0
 for species   2 augmentation radius   1.570 (default was   1.163)
       energy cutoff for augmentation   1600.0
 for species   3 augmentation radius   1.034 (default was   0.970)
       energy cutoff for augmentation   1600.0

 total amount of memory used by VASP on root node   151697. kBytes
========================================================================

   base      :      30000. kBytes
   nonl-proj :      74517. kBytes
   fftplans  :        702. kBytes
   grid      :       2400. kBytes
   one-center:        186. kBytes
   HF        :        194. kBytes
   nonlr-proj:       1122. kBytes
   wavefun   :      42576. kBytes
 
 Broyden mixing: mesh for mixing (old mesh)
   NGX = 21   NGY = 21   NGZ = 21
  (NGX  = 64   NGY  = 64   NGZ  = 64)
  gives a total of   9261 points

 charge density for first step will be calculated from the start-wavefunctions


--------------------------------------------------------------------------------------------------------


 Maximum index for augmentation-charges          480 (set IRDMAX)


--------------------------------------------------------------------------------------------------------


 initial charge from wavefunction
 First call to EWALD:  gamma=   0.293
 Maximum number of real-space cells 3x 3x 3
 Maximum number of reciprocal cells 3x 3x 3

 FEWALD executed in parallel
    FEWALD:  cpu time    0.00: real time    0.00


----------------------------------------- Iteration    1(   1)  ---------------------------------------


    POTLOK:  cpu time    0.10: real time    0.10
    SETDIJ:  cpu time    1.99: real time    1.99
 
    SUBROT:  cpu time    1.34: real time    1.34
    SUBROT:  cpu time    0.59: real time    0.59
    SUBROT:  cpu time    0.61: real time    0.61
    --------------------------------------------
    SUBRT+:  cpu time    2.53: real time    2.54

 Broyden mixing:
  rms(total) = 0.27533E-01    rms(broyden)= 0.27516E-01
  rms(prec ) = 0.43305E-01
  weight for this iteration     100.00

 eigenvalues of (default mixing * dielectric matrix)
  average eigenvalue GAMMA=   1.7347
  1.0206  2.4488
 
    TRIAL :  cpu time  249.57: real time  249.43
    CORREC:  cpu time    0.00: real time    0.00
    CHARGE:  cpu time    0.10: real time    0.10
    --------------------------------------------
      LOOP:  cpu time  251.77: real time  251.64

 eigenvalue-minimisations  :     0
 total energy-change (2. order) : 0.7552401E+02  (-0.2131930E+03)
 number of electron     112.0001480 magnetization 
 augmentation part       38.9112407 magnetization 

 Free energy of the ion-electron system (eV)
  ---------------------------------------------------
  alpha Z        PSCENC =       339.31929130
  Ewald energy   TEWEN  =     -9064.43045464
  -1/2 Hartree   DENC   =     -8067.44492583
  -exchange  EXHF       =       327.44954347
  -V(xc)+E(xc)   XCENC  =       369.90380890
  PAW double counting   =     16900.03207244   -17392.84742677
  entropy T*S    EENTRO =        -0.00145611
  eigenvalues    EBANDS =     -1657.44158078
  atomic energy  EATOM  =     18320.98302006
  ---------------------------------------------------
  free energy    TOTEN  =        75.52401144 eV

  energy without entropy =       75.52546756  energy(sigma->0) =       75.52449681


--------------------------------------------------------------------------------------------------------




----------------------------------------- Iteration    1(   2)  ---------------------------------------


    POTLOK:  cpu time    0.10: real time    0.10
    SETDIJ:  cpu time    1.96: real time    1.96
 
    SUBROT:  cpu time    1.25: real time    1.25
    SUBROT:  cpu time    0.61: real time    0.61
    SUBROT:  cpu time    0.64: real time    0.64
    SUBROT:  cpu time    0.55: real time    0.55
    --------------------------------------------
    SUBRT+:  cpu time    3.06: real time    3.06

 Broyden mixing:
  rms(total) = 0.27705E-01    rms(broyden)= 0.27695E-01
  rms(prec ) = 0.50643E-01
  weight for this iteration     100.00

 eigenvalues of (default mixing * dielectric matrix)
  average eigenvalue GAMMA=   1.5733
  2.5502  1.3046  0.8653
 
    TRIAL :  cpu time  254.04: real time  253.84
    CORREC:  cpu time    0.00: real time    0.00
    CHARGE:  cpu time    0.06: real time    0.06
    --------------------------------------------
      LOOP:  cpu time  256.16: real time  255.97

 eigenvalue-minimisations  :     0
 total energy-change (2. order) :-0.8390614E+02  (-0.1468862E+03)
 number of electron     112.0001385 magnetization 
 augmentation part       35.4552189 magnetization 

 Free energy of the ion-electron system (eV)
  ---------------------------------------------------
  alpha Z        PSCENC =       339.31929130
  Ewald energy   TEWEN  =     -9064.43045464
  -1/2 Hartree   DENC   =     -8370.63746787
  -exchange  EXHF       =       338.96104790
  -V(xc)+E(xc)   XCENC  =       377.32205816
  PAW double counting   =     17401.17886745   -17940.29993708
  entropy T*S    EENTRO =        -0.00080650
  eigenvalues    EBANDS =     -1410.77710205
  atomic energy  EATOM  =     18320.98302006
  ---------------------------------------------------
  free energy    TOTEN  =        -8.38213287 eV

  energy without entropy =       -8.38132637  energy(sigma->0) =       -8.38186404


--------------------------------------------------------------------------------------------------------




----------------------------------------- Iteration    1(   3)  ---------------------------------------


    POTLOK:  cpu time    0.12: real time    0.12
    SETDIJ:  cpu time    1.96: real time    1.96
 
    SUBROT:  cpu time    0.94: real time    0.94
    SUBROT:  cpu time    0.43: real time    0.43
    SUBROT:  cpu time    0.41: real time    0.41
    SUBROT:  cpu time    0.42: real time    0.42
    --------------------------------------------
    SUBRT+:  cpu time    2.21: real time    2.22

 Broyden mixing:
  rms(total) = 0.28050E-01    rms(broyden)= 0.28039E-01
  rms(prec ) = 0.52308E-01
  weight for this iteration     100.00

 eigenvalues of (default mixing * dielectric matrix)
  average eigenvalue GAMMA=   1.7755
  1.0118  2.4994  1.8154
 
    TRIAL :  cpu time  251.47: real time  251.28
    CORREC:  cpu time    0.00: real time    0.00
    CHARGE:  cpu time    0.06: real time    0.07
    --------------------------------------------
      LOOP:  cpu time  253.62: real time  253.43

 eigenvalue-minimisations  :     0
 total energy-change (2. order) :-0.6809154E+01  (-0.2036765E+03)
 number of electron     112.0001510 magnetization 
 augmentation part       39.6838143 magnetization 

 Free energy of the ion-electron system (eV)
  ---------------------------------------------------
  alpha Z        PSCENC =       339.31929130
  Ewald energy   TEWEN  =     -9064.43045464
  -1/2 Hartree   DENC   =     -7478.31009247
  -exchange  EXHF       =       324.99697841
  -V(xc)+E(xc)   XCENC  =       357.40105517
  PAW double counting   =     15150.60673221   -15580.08417819
  entropy T*S    EENTRO =         0.00022843
  eigenvalues    EBANDS =     -2385.67283256
  atomic energy  EATOM  =     18320.98302006
  ---------------------------------------------------
  free energy    TOTEN  =       -15.19128721 eV

  energy without entropy =      -15.19151564  energy(sigma->0) =      -15.19136335


--------------------------------------------------------------------------------------------------------




----------------------------------------- Iteration    1(   4)  ---------------------------------------


    POTLOK:  cpu time    0.10: real time    0.10
    SETDIJ:  cpu time    1.94: real time    1.96
 
    SUBROT:  cpu time    1.37: real time    1.37
    SUBROT:  cpu time    0.74: real time    0.74
    SUBROT:  cpu time    0.65: real time    0.65
    SUBROT:  cpu time    0.66: real time    0.66
    SUBROT:  cpu time    0.76: real time    0.76
    --------------------------------------------
    SUBRT+:  cpu time    4.19: real time    4.18

 Broyden mixing:
  rms(total) = 0.11558E+00    rms(broyden)= 0.11539E+00
  rms(prec ) = 0.20380E+00
  weight for this iteration     100.00

 eigenvalues of (default mixing * dielectric matrix)
  average eigenvalue GAMMA=   1.2366
  2.5781  1.3261  0.6575  0.3846
 
    TRIAL :  cpu time  253.35: real time  253.13
    CORREC:  cpu time    0.00: real time    0.00
    CHARGE:  cpu time    0.06: real time    0.06
    --------------------------------------------
      LOOP:  cpu time  255.46: real time  255.26

 eigenvalue-minimisations  :     0
 total energy-change (2. order) :-0.7478708E+01  (-0.1073489E+03)
 number of electron     112.0001430 magnetization 
 augmentation part       37.2429798 magnetization 

 Free energy of the ion-electron system (eV)
  ---------------------------------------------------
  alpha Z        PSCENC =       339.31929130
  Ewald energy   TEWEN  =     -9064.43045464
  -1/2 Hartree   DENC   =     -8543.29355061
  -exchange  EXHF       =       342.99636792
  -V(xc)+E(xc)   XCENC  =       381.65230361
  PAW double counting   =     17632.01188452   -18212.68851846
  entropy T*S    EENTRO =         0.00035044
  eigenvalues    EBANDS =     -1219.22056741
  atomic energy  EATOM  =     18320.98302006
  ---------------------------------------------------
  free energy    TOTEN  =       -22.66999528 eV

  energy without entropy =      -22.67034572  energy(sigma->0) =      -22.67011209


--------------------------------------------------------------------------------------------------------




----------------------------------------- Iteration    1(   5)  ---------------------------------------


    POTLOK:  cpu time    0.07: real time    0.07
    SETDIJ:  cpu time    1.95: real time    1.95
 
    SUBROT:  cpu time    0.89: real time    0.89
    SUBROT:  cpu time    0.42: real time    0.42
    SUBROT:  cpu time    0.42: real time    0.42
    SUBROT:  cpu time    0.42: real time    0.42
    --------------------------------------------
    SUBRT+:  cpu time    2.16: real time    2.16

 Broyden mixing:
  rms(total) = 0.44312E-01    rms(broyden)= 0.44302E-01
  rms(prec ) = 0.90484E-01
  weight for this iteration     100.00

 eigenvalues of (default mixing * dielectric matrix)
  average eigenvalue GAMMA=   1.6861
  2.4605  0.9357  1.6620
 
    TRIAL :  cpu time  262.49: real time  262.27
    CORREC:  cpu time    0.00: real time    0.00
    CHARGE:  cpu time    0.06: real time    0.06
    --------------------------------------------
      LOOP:  cpu time  264.58: real time  264.36

 eigenvalue-minimisations  :     0
 total energy-change (2. order) :-0.3814604E+02  (-0.1506185E+02)
 number of electron     112.0001430 magnetization 
 augmentation part       37.2477193 magnetization 

 Free energy of the ion-electron system (eV)
  ---------------------------------------------------
  alpha Z        PSCENC =       339.31929130
  Ewald energy   TEWEN  =     -9064.43045464
  -1/2 Hartree   DENC   =     -8008.23208025
  -exchange  EXHF       =       336.38250824
  -V(xc)+E(xc)   XCENC  =       368.39390002
  PAW double counting   =     15869.81244895   -16339.22561031
  entropy T*S    EENTRO =         0.00061380
  eigenvalues    EBANDS =     -1883.81940635
  atomic energy  EATOM  =     18320.98302006
  ---------------------------------------------------
  free energy    TOTEN  =       -60.81603254 eV

  energy without entropy =      -60.81664634  energy(sigma->0) =      -60.81623714


--------------------------------------------------------------------------------------------------------




----------------------------------------- Iteration    1(   6)  ---------------------------------------


    POTLOK:  cpu time    0.08: real time    0.08
    SETDIJ:  cpu time    1.97: real time    1.96
 
    SUBROT:  cpu time    1.14: real time    1.14
    SUBROT:  cpu time    0.43: real time    0.43
    SUBROT:  cpu time    0.43: real time    0.43
    SUBROT:  cpu time    0.42: real time    0.42
    --------------------------------------------
    SUBRT+:  cpu time    2.43: real time    2.43

 Broyden mixing:
  rms(total) = 0.27438E-02    rms(broyden)= 0.27432E-02
  rms(prec ) = 0.45459E-02
  weight for this iteration     100.00

 eigenvalues of (default mixing * dielectric matrix)
  average eigenvalue GAMMA=   1.8196
  1.0122  1.9205  2.5262
 
    TRIAL :  cpu time  257.62: real time  257.39
    CORREC:  cpu time    0.00: real time    0.00
    CHARGE:  cpu time    0.07: real time    0.08
    --------------------------------------------
      LOOP:  cpu time  259.74: real time  259.52

 eigenvalue-minimisations  :     0
 total energy-change (2. order) :-0.5124909E+01  (-0.8147911E+01)
 number of electron     112.0001460 magnetization 
 augmentation part       38.2270434 magnetization 

 Free energy of the ion-electron system (eV)
  ---------------------------------------------------
  alpha Z        PSCENC =       339.31929130
  Ewald energy   TEWEN  =     -9064.43045464
  -1/2 Hartree   DENC   =     -8002.09958231
  -exchange  EXHF       =       337.15633270
  -V(xc)+E(xc)   XCENC  =       368.79471311
  PAW double counting   =     15772.39005150   -16241.47668234
  entropy T*S    EENTRO =         0.00064380
  eigenvalues    EBANDS =     -1896.57824497
  atomic energy  EATOM  =     18320.98302006
  ---------------------------------------------------
  free energy    TOTEN  =       -65.94094179 eV

  energy without entropy =      -65.94158560  energy(sigma->0) =      -65.94115640


--------------------------------------------------------------------------------------------------------




----------------------------------------- Iteration    1(   7)  ---------------------------------------


    POTLOK:  cpu time    0.16: real time    0.17
    SETDIJ:  cpu time    2.68: real time    2.68
 
    SUBROT:  cpu time    1.55: real time    1.54
    SUBROT:  cpu time    0.73: real time    0.73
    SUBROT:  cpu time    0.71: real time    0.71
    SUBROT:  cpu time    0.73: real time    0.73
    --------------------------------------------
    SUBRT+:  cpu time    3.73: real time    3.74

 Broyden mixing:
  rms(total) = 0.13147E-01    rms(broyden)= 0.13143E-01
  rms(prec ) = 0.23298E-01
  weight for this iteration     100.00

 eigenvalues of (default mixing * dielectric matrix)
  average eigenvalue GAMMA=   1.6172
  2.5025  0.8926  1.4566
 
    TRIAL :  cpu time  251.68: real time  251.48
    CORREC:  cpu time    0.00: real time    0.00
    CHARGE:  cpu time    0.06: real time    0.06
    --------------------------------------------
      LOOP:  cpu time  254.58: real time  254.38

 eigenvalue-minimisations  :     0
 total energy-change (2. order) :-0.1536208E+01  (-0.4127176E+01)
 number of electron     112.0001443 magnetization 
 augmentation part       37.7055583 magnetization 

 Free energy of the ion-electron system (eV)
  ---------------------------------------------------
  alpha Z        PSCENC =       339.31929130
  Ewald energy   TEWEN  =     -9064.43045464
  -1/2 Hartree   DENC   =     -8243.54014508
  -exchange  EXHF       =       341.62017002
  -V(xc)+E(xc)   XCENC  =       374.55627609
  PAW double counting   =     16207.20117677   -16710.52024124
  entropy T*S    EENTRO =         0.00042318
  eigenvalues    EBANDS =     -1632.66688663
  atomic energy  EATOM  =     18320.98302006
  ---------------------------------------------------
  free energy    TOTEN  =       -67.47714954 eV

  energy without entropy =      -67.47757273  energy(sigma->0) =      -67.47729060


--------------------------------------------------------------------------------------------------------




----------------------------------------- Iteration    1(   8)  ---------------------------------------


    POTLOK:  cpu time    0.09: real time    0.09
    SETDIJ:  cpu time    1.96: real time    1.96
 
    SUBROT:  cpu time    1.55: real time    1.55
    SUBROT:  cpu time    0.70: real time    0.70
    SUBROT:  cpu time    0.75: real time    0.75
    SUBROT:  cpu time    0.60: real time    0.60
    --------------------------------------------
    SUBRT+:  cpu time    3.61: real time    3.61

 Broyden mixing:
  rms(total) = 0.83554E-02    rms(broyden)= 0.83529E-02
  rms(prec ) = 0.14012E-01
  weight for this iteration     100.00

 eigenvalues of (default mixing * dielectric matrix)
  average eigenvalue GAMMA=   1.6746
  2.4568  0.9473  1.6198
 
    TRIAL :  cpu time  251.91: real time  251.69
    CORREC:  cpu time    0.00: real time    0.00
    CHARGE:  cpu time    0.08: real time    0.08
    --------------------------------------------
      LOOP:  cpu time  254.04: real time  253.82

 eigenvalue-minimisations  :     0
 total energy-change (2. order) :-0.1607415E+01  (-0.7709884E+00)
 number of electron     112.0001444 magnetization 
 augmentation part       37.7250114 magnetization 

 Free energy of the ion-electron system (eV)
  ---------------------------------------------------
  alpha Z        PSCENC =       339.31929130
  Ewald energy   TEWEN  =     -9064.43045464
  -1/2 Hartree   DENC   =     -8116.99781939
  -exchange  EXHF       =       339.52354813
  -V(xc)+E(xc)   XCENC  =       371.38263633
  PAW double counting   =     15916.33033715   -16397.67492291
  entropy T*S    EENTRO =         0.00072575
  eigenvalues    EBANDS =     -1777.52062398
  atomic energy  EATOM  =     18320.98302006
  ---------------------------------------------------
  free energy    TOTEN  =       -69.08456477 eV

  energy without entropy =      -69.08529052  energy(sigma->0) =      -69.08480669


--------------------------------------------------------------------------------------------------------




----------------------------------------- Iteration    1(   9)  ---------------------------------------


    POTLOK:  cpu time    0.11: real time    0.11
    SETDIJ:  cpu time    1.96: real time    1.96
 
    SUBROT:  cpu time    0.94: real time    0.94
    SUBROT:  cpu time    0.43: real time    0.43
    SUBROT:  cpu time    0.43: real time    0.43
    SUBROT:  cpu time    0.43: real time    0.43
    --------------------------------------------
    SUBRT+:  cpu time    2.23: real time    2.25

 Broyden mixing:
  rms(total) = 0.51336E-03    rms(broyden)= 0.51276E-03
  rms(prec ) = 0.81233E-03
  weight for this iteration     100.00

 eigenvalues of (default mixing * dielectric matrix)
  average eigenvalue GAMMA=   1.6896
  2.5231  1.0009  1.5447
 
    TRIAL :  cpu time  254.24: real time  254.03
    CORREC:  cpu time    0.00: real time    0.00
    CHARGE:  cpu time    0.06: real time    0.06
    --------------------------------------------
      LOOP:  cpu time  256.37: real time  256.16

 eigenvalue-minimisations  :     0
 total energy-change (2. order) :-0.3104029E+00  (-0.3850960E+00)
 number of electron     112.0001449 magnetization 
 augmentation part       37.9055882 magnetization 

 Free energy of the ion-electron system (eV)
  ---------------------------------------------------
  alpha Z        PSCENC =       339.31929130
  Ewald energy   TEWEN  =     -9064.43045464
  -1/2 Hartree   DENC   =     -8124.72719324
  -exchange  EXHF       =       339.59907425
  -V(xc)+E(xc)   XCENC  =       371.44841909
  PAW double counting   =     15912.82287538   -16394.08777834
  entropy T*S    EENTRO =         0.00085829
  eigenvalues    EBANDS =     -1770.32294727
  atomic energy  EATOM  =     18320.98302006
  ---------------------------------------------------
  free energy    TOTEN  =       -69.39496767 eV

  energy without entropy =      -69.39582595  energy(sigma->0) =      -69.39525376


--------------------------------------------------------------------------------------------------------




----------------------------------------- Iteration    1(  10)  ---------------------------------------


    POTLOK:  cpu time    0.10: real time    0.10
    SETDIJ:  cpu time    1.96: real time    1.96
 
    SUBROT:  cpu time    0.96: real time    0.96
    SUBROT:  cpu time    0.45: real time    0.45
    SUBROT:  cpu time    0.45: real time    0.45
    SUBROT:  cpu time    0.45: real time    0.45
    --------------------------------------------
    SUBRT+:  cpu time    2.31: real time    2.33

 Broyden mixing:
  rms(total) = 0.22894E-02    rms(broyden)= 0.22889E-02
  rms(prec ) = 0.38507E-02
  weight for this iteration     100.00

 eigenvalues of (default mixing * dielectric matrix)
  average eigenvalue GAMMA=   1.6864
  2.4751  0.9890  1.5950
 
    TRIAL :  cpu time  257.15: real time  256.94
    CORREC:  cpu time    0.00: real time    0.00
    CHARGE:  cpu time    0.07: real time    0.07
    --------------------------------------------
      LOOP:  cpu time  259.29: real time  259.08

 eigenvalue-minimisations  :     0
 total energy-change (2. order) :-0.1034408E+00  (-0.1521086E+00)
 number of electron     112.0001447 magnetization 
 augmentation part       37.8185223 magnetization 

 Free energy of the ion-electron system (eV)
  ---------------------------------------------------
  alpha Z        PSCENC =       339.31929130
  Ewald energy   TEWEN  =     -9064.43045464
  -1/2 Hartree   DENC   =     -8171.92193028
  -exchange  EXHF       =       340.39932551
  -V(xc)+E(xc)   XCENC  =       372.54137137
  PAW double counting   =     15994.26349112   -16482.23764475
  entropy T*S    EENTRO =         0.00068529
  eigenvalues    EBANDS =     -1718.41573645
  atomic energy  EATOM  =     18320.98302006
  ---------------------------------------------------
  free energy    TOTEN  =       -69.49840846 eV

  energy without entropy =      -69.49909375  energy(sigma->0) =      -69.49863689


--------------------------------------------------------------------------------------------------------




----------------------------------------- Iteration    1(  11)  ---------------------------------------


    POTLOK:  cpu time    0.06: real time    0.06
    SETDIJ:  cpu time    1.96: real time    1.96
 
    SUBROT:  cpu time    0.93: real time    0.93
    SUBROT:  cpu time    0.45: real time    0.45
    SUBROT:  cpu time    0.44: real time    0.44
    SUBROT:  cpu time    0.45: real time    0.44
    --------------------------------------------
    SUBRT+:  cpu time    2.27: real time    2.29

 Broyden mixing:
  rms(total) = 0.77977E-03    rms(broyden)= 0.77952E-03
  rms(prec ) = 0.15622E-02
  weight for this iteration     100.00

 eigenvalues of (default mixing * dielectric matrix)
  average eigenvalue GAMMA=   1.6744
  2.4943  0.9846  1.5444
 
    TRIAL :  cpu time  258.10: real time  257.90
    CORREC:  cpu time    0.00: real time    0.00
    CHARGE:  cpu time    0.11: real time    0.11
    --------------------------------------------
      LOOP:  cpu time  260.24: real time  260.04

 eigenvalue-minimisations  :     0
 total energy-change (2. order) :-0.6950561E-01  (-0.3684118E-01)
 number of electron     112.0001446 magnetization 
 augmentation part       37.7859033 magnetization 

 Free energy of the ion-electron system (eV)
  ---------------------------------------------------
  alpha Z        PSCENC =       339.31929130
  Ewald energy   TEWEN  =     -9064.43045464
  -1/2 Hartree   DENC   =     -8150.57442822
  -exchange  EXHF       =       340.07116013
  -V(xc)+E(xc)   XCENC  =       372.06854285
  PAW double counting   =     15942.28267205   -16427.22108319
  entropy T*S    EENTRO =         0.00058287
  eigenvalues    EBANDS =     -1742.06731971
  atomic energy  EATOM  =     18320.98302006
  ---------------------------------------------------
  free energy    TOTEN  =       -69.56791407 eV

  energy without entropy =      -69.56849693  energy(sigma->0) =      -69.56810835


--------------------------------------------------------------------------------------------------------




----------------------------------------- Iteration    1(  12)  ---------------------------------------


    POTLOK:  cpu time    0.11: real time    0.11
    SETDIJ:  cpu time    1.96: real time    1.96
 
    SUBROT:  cpu time    0.93: real time    0.93
    SUBROT:  cpu time    0.44: real time    0.44
    SUBROT:  cpu time    0.45: real time    0.45
    SUBROT:  cpu time    0.44: real time    0.44
    --------------------------------------------
    SUBRT+:  cpu time    2.26: real time    2.29

 Broyden mixing:
  rms(total) = 0.20731E-03    rms(broyden)= 0.20722E-03
  rms(prec ) = 0.45270E-03
  weight for this iteration     100.00

 eigenvalues of (default mixing * dielectric matrix)
  average eigenvalue GAMMA=   1.6474
  2.5062  0.9994  1.4365
 
    TRIAL :  cpu time  254.20: real time  254.00
    CORREC:  cpu time    0.00: real time    0.00
    CHARGE:  cpu time    0.08: real time    0.08
    --------------------------------------------
      LOOP:  cpu time  256.35: real time  256.15

 eigenvalue-minimisations  :     0
 total energy-change (2. order) :-0.1235309E-01  (-0.2279440E-01)
 number of electron     112.0001447 magnetization 
 augmentation part       37.8261148 magnetization 

 Free energy of the ion-electron system (eV)
  ---------------------------------------------------
  alpha Z        PSCENC =       339.31929130
  Ewald energy   TEWEN  =     -9064.43045464
  -1/2 Hartree   DENC   =     -8142.24833387
  -exchange  EXHF       =       339.95593087
  -V(xc)+E(xc)   XCENC  =       371.89472733
  PAW double counting   =     15920.54891872   -16404.40877075
  entropy T*S    EENTRO =         0.00053426
  eigenvalues    EBANDS =     -1751.19517906
  atomic energy  EATOM  =     18320.98302006
  ---------------------------------------------------
  free energy    TOTEN  =       -69.58026716 eV

  energy without entropy =      -69.58080142  energy(sigma->0) =      -69.58044525


--------------------------------------------------------------------------------------------------------




----------------------------------------- Iteration    1(  13)  ---------------------------------------


    POTLOK:  cpu time    0.07: real time    0.07
    SETDIJ:  cpu time    1.97: real time    1.96
 
    SUBROT:  cpu time    1.46: real time    1.46
    SUBROT:  cpu time    0.76: real time    0.76
    SUBROT:  cpu time    0.77: real time    0.77
    SUBROT:  cpu time    0.94: real time    0.94
    --------------------------------------------
    SUBRT+:  cpu time    3.94: real time    3.94

 Broyden mixing:
  rms(total) = 0.55378E-03    rms(broyden)= 0.55367E-03
  rms(prec ) = 0.94155E-03
  weight for this iteration     100.00

 eigenvalues of (default mixing * dielectric matrix)
  average eigenvalue GAMMA=   1.6958
  2.4801  0.9964  1.6110
 
    TRIAL :  cpu time  257.03: real time  256.81
    CORREC:  cpu time    0.00: real time    0.00
    CHARGE:  cpu time    0.09: real time    0.09
    --------------------------------------------
      LOOP:  cpu time  259.16: real time  258.94

 eigenvalue-minimisations  :     0
 total energy-change (2. order) :-0.9636994E-02  (-0.5116195E-02)
 number of electron     112.0001447 magnetization 
 augmentation part       37.8299827 magnetization 

 Free energy of the ion-electron system (eV)
  ---------------------------------------------------
  alpha Z        PSCENC =       339.31929130
  Ewald energy   TEWEN  =     -9064.43045464
  -1/2 Hartree   DENC   =     -8152.11807922
  -exchange  EXHF       =       340.12799428
  -V(xc)+E(xc)   XCENC  =       372.12815006
  PAW double counting   =     15936.70744968   -16422.05614152
  entropy T*S    EENTRO =         0.00052179
  eigenvalues    EBANDS =     -1740.25166843
  atomic energy  EATOM  =     18320.98302006
  ---------------------------------------------------
  free energy    TOTEN  =       -69.58990415 eV

  energy without entropy =      -69.59042595  energy(sigma->0) =      -69.59007808


--------------------------------------------------------------------------------------------------------




----------------------------------------- Iteration    1(  14)  ---------------------------------------


    POTLOK:  cpu time    0.21: real time    0.21
    SETDIJ:  cpu time    1.97: real time    1.96
 
    SUBROT:  cpu time    1.46: real time    1.45
    SUBROT:  cpu time    0.71: real time    0.71
    SUBROT:  cpu time    0.74: real time    0.74
    SUBROT:  cpu time    0.65: real time    0.65
    --------------------------------------------
    SUBRT+:  cpu time    3.56: real time    3.57

 Broyden mixing:
  rms(total) = 0.68287E-04    rms(broyden)= 0.68273E-04
  rms(prec ) = 0.13997E-03
  weight for this iteration     100.00

 eigenvalues of (default mixing * dielectric matrix)
  average eigenvalue GAMMA=   1.6676
  2.5165  0.9906  1.4957
 
    TRIAL :  cpu time  258.12: real time  257.91
    CORREC:  cpu time    0.00: real time    0.00
    CHARGE:  cpu time    0.09: real time    0.09
    --------------------------------------------
      LOOP:  cpu time  260.39: real time  260.18

 eigenvalue-minimisations  :     0
 total energy-change (2. order) :-0.2454586E-02  (-0.3771018E-02)
 number of electron     112.0001447 magnetization 
 augmentation part       37.8124852 magnetization 

 Free energy of the ion-electron system (eV)
  ---------------------------------------------------
  alpha Z        PSCENC =       339.31929130
  Ewald energy   TEWEN  =     -9064.43045464
  -1/2 Hartree   DENC   =     -8152.64351864
  -exchange  EXHF       =       340.12603567
  -V(xc)+E(xc)   XCENC  =       372.13741573
  PAW double counting   =     15934.64830781   -16420.15906005
  entropy T*S    EENTRO =         0.00053739
  eigenvalues    EBANDS =     -1739.57391778
  atomic energy  EATOM  =     18320.98302006
  ---------------------------------------------------
  free energy    TOTEN  =       -69.59235874 eV

  energy without entropy =      -69.59289613  energy(sigma->0) =      -69.59253787


--------------------------------------------------------------------------------------------------------




----------------------------------------- Iteration    1(  15)  ---------------------------------------


    POTLOK:  cpu time    0.09: real time    0.09
    SETDIJ:  cpu time    2.04: real time    2.04
 
    SUBROT:  cpu time    0.95: real time    0.95
    SUBROT:  cpu time    0.45: real time    0.45
    SUBROT:  cpu time    0.44: real time    0.44
    SUBROT:  cpu time    0.45: real time    0.45
    --------------------------------------------
    SUBRT+:  cpu time    2.30: real time    2.32

 Broyden mixing:
  rms(total) = 0.19300E-03    rms(broyden)= 0.19294E-03
  rms(prec ) = 0.32978E-03
  weight for this iteration     100.00

 eigenvalues of (default mixing * dielectric matrix)
  average eigenvalue GAMMA=   1.6871
  2.4718  0.9895  1.6001
 
    TRIAL :  cpu time  249.45: real time  249.26
    CORREC:  cpu time    0.00: real time    0.00
    CHARGE:  cpu time    0.08: real time    0.08
    --------------------------------------------
      LOOP:  cpu time  251.66: real time  251.47

 eigenvalue-minimisations  :     0
 total energy-change (2. order) :-0.1503523E-02  (-0.1036238E-02)
 number of electron     112.0001447 magnetization 
 augmentation part       37.8168019 magnetization 

 Free energy of the ion-electron system (eV)
  ---------------------------------------------------
  alpha Z        PSCENC =       339.31929130
  Ewald energy   TEWEN  =     -9064.43045464
  -1/2 Hartree   DENC   =     -8147.94543986
  -exchange  EXHF       =       340.03715919
  -V(xc)+E(xc)   XCENC  =       372.02647736
  PAW double counting   =     15922.62693077   -16407.52817905
  entropy T*S    EENTRO =         0.00054935
  eigenvalues    EBANDS =     -1744.68320479
  atomic energy  EATOM  =     18320.98302006
  ---------------------------------------------------
  free energy    TOTEN  =       -69.59386226 eV

  energy without entropy =      -69.59441161  energy(sigma->0) =      -69.59404538


--------------------------------------------------------------------------------------------------------




----------------------------------------- Iteration    1(  16)  ---------------------------------------


    POTLOK:  cpu time    0.10: real time    0.10
    SETDIJ:  cpu time    2.04: real time    2.04
 
    SUBROT:  cpu time    0.95: real time    0.95
    SUBROT:  cpu time    0.45: real time    0.45
    SUBROT:  cpu time    0.46: real time    0.46
    SUBROT:  cpu time    0.45: real time    0.45
    --------------------------------------------
    SUBRT+:  cpu time    2.30: real time    2.31

 Broyden mixing:
  rms(total) = 0.83806E-04    rms(broyden)= 0.83788E-04
  rms(prec ) = 0.13998E-03
  weight for this iteration     100.00

 eigenvalues of (default mixing * dielectric matrix)
  average eigenvalue GAMMA=   1.6879
  2.4861  0.9898  1.5879
 
    TRIAL :  cpu time  250.94: real time  250.73
    CORREC:  cpu time    0.00: real time    0.00
    CHARGE:  cpu time    0.09: real time    0.09
    --------------------------------------------
      LOOP:  cpu time  253.17: real time  252.97

 eigenvalue-minimisations  :     0
 total energy-change (2. order) :-0.5701435E-03  (-0.4086793E-03)
 number of electron     112.0001447 magnetization 
 augmentation part       37.8216006 magnetization 

 Free energy of the ion-electron system (eV)
  ---------------------------------------------------
  alpha Z        PSCENC =       339.31929130
  Ewald energy   TEWEN  =     -9064.43045464
  -1/2 Hartree   DENC   =     -8149.06318892
  -exchange  EXHF       =       340.05572296
  -V(xc)+E(xc)   XCENC  =       372.05362919
  PAW double counting   =     15923.48145576   -16408.57073500
  entropy T*S    EENTRO =         0.00055055
  eigenvalues    EBANDS =     -1743.42372247
  atomic energy  EATOM  =     18320.98302006
  ---------------------------------------------------
  free energy    TOTEN  =       -69.59443240 eV

[...]
     22      -2.2854      2.00000
     23      -1.9544      2.00000
     24      -1.6182      2.00000
     25      -1.2156      2.00000
     26      -1.0082      2.00000
     27      -0.9742      2.00000
     28      -0.7185      2.00000
     29      -0.5510      2.00000
     30      -0.3867      2.00000
     31      -0.2859      2.00000
     32      -0.1997      2.00000
     33      -0.1814      2.00000
     34      -0.1427      2.00000
     35      -0.0183      2.00000
     36       0.0195      2.00000
     37       1.2958      2.00000
     38       1.3082      2.00000
     39       1.3690      2.00000
     40       1.4109      2.00000
     41       1.4499      2.00000
     42       1.4653      2.00000
     43       1.5072      2.00000
     44       1.5491      2.00000
     45       1.7634      2.00000
     46       1.8932      2.00000
     47       1.9817      2.00000
     48       2.1522      2.00000
     49       2.3730      2.00000
     50       2.5761      2.00000
     51       2.7026      2.00000
     52       2.9105      2.00000
     53       3.0128      2.00000
     54       3.2185      2.00000
     55       3.3974      2.00000
     56       3.6540      2.00000
     57       6.3827     -0.00000
     58       6.5150     -0.00000
     59       7.7169      0.00000
     60       7.9025      0.00000
     61       8.3111      0.00000
     62       8.5720      0.00000
     63       9.3238      0.00000
     64       9.8435      0.00000
     65      10.0158      0.00000
     66      10.3583      0.00000
     67      10.5879      0.00000
     68      10.7891      0.00000
     69      10.9746      0.00000
     70      11.2565      0.00000
     71      11.3051      0.00000
     72      11.7017      0.00000
     73      12.2533      0.00000
     74      12.4629      0.00000
     75      13.0995      0.00000
     76      13.4854      0.00000
     77      13.8188      0.00000
     78      14.6931      0.00000
     79      14.9994      0.00000
     80      15.7200      0.00000

 k-point  40 :       0.2500   -0.2500    0.4000
  band No.  band energies     occupation 
      1     -68.6488      2.00000
      2     -68.6448      2.00000
      3     -68.6336      2.00000
      4     -68.6303      2.00000
      5     -68.6176      2.00000
      6     -68.6135      2.00000
      7     -68.5996      2.00000
      8     -68.5965      2.00000
      9     -68.5779      2.00000
     10     -68.5742      2.00000
     11     -68.5614      2.00000
     12     -68.5578      2.00000
     13     -12.2171      2.00000
     14     -11.8156      2.00000
     15     -10.8274      2.00000
     16     -10.6683      2.00000
     17     -10.3543      2.00000
     18     -10.2789      2.00000
     19      -5.4429      2.00000
     20      -5.1163      2.00000
     21      -2.4269      2.00000
     22      -2.1527      2.00000
     23      -2.0138      2.00000
     24      -1.5277      2.00000
     25      -1.3616      2.00000
     26      -1.1665      2.00000
     27      -0.9368      2.00000
     28      -0.8133      2.00000
     29      -0.5842      2.00000
     30      -0.5313      2.00000
     31      -0.2806      2.00000
     32      -0.2386      2.00000
     33      -0.1361      2.00000
     34      -0.0913      2.00000
     35      -0.0242      2.00000
     36       0.0338      2.00000
     37       1.3122      2.00000
     38       1.3446      2.00000
     39       1.3623      2.00000
     40       1.3960      2.00000
     41       1.4518      2.00000
     42       1.4824      2.00000
     43       1.4998      2.00000
     44       1.5656      2.00000
     45       1.8022      2.00000
     46       1.8468      2.00000
     47       1.9612      2.00000
     48       2.1092      2.00000
     49       2.2953      2.00000
     50       2.5288      2.00000
     51       2.6409      2.00000
     52       2.7707      2.00000
     53       2.9235      2.00000
     54       3.1592      2.00000
     55       3.3041      2.00000
     56       3.5737      2.00000
     57       6.5627     -0.00000
     58       6.7182     -0.00000
     59       7.9637      0.00000
     60       8.0028      0.00000
     61       8.7338      0.00000
     62       9.0867      0.00000
     63       9.4594      0.00000
     64       9.8300      0.00000
     65      10.2974      0.00000
     66      10.3720      0.00000
     67      10.7768      0.00000
     68      10.8531      0.00000
     69      11.1117      0.00000
     70      11.2707      0.00000
     71      11.3719      0.00000
     72      11.6180      0.00000
     73      12.0486      0.00000
     74      12.2956      0.00000
     75      12.6488      0.00000
     76      13.1237      0.00000
     77      13.2833      0.00000
     78      14.2482      0.00000
     79      15.6290      0.00000
     80      15.8277      0.00000

 k-point  41 :       0.5000   -0.2500    0.4000
  band No.  band energies     occupation 
      1     -68.6487      2.00000
      2     -68.6447      2.00000
      3     -68.6333      2.00000
      4     -68.6301      2.00000
      5     -68.6176      2.00000
      6     -68.6135      2.00000
      7     -68.5994      2.00000
      8     -68.5964      2.00000
      9     -68.5779      2.00000
     10     -68.5742      2.00000
     11     -68.5613      2.00000
     12     -68.5577      2.00000
     13     -12.0755      2.00000
     14     -11.7730      2.00000
     15     -10.8474      2.00000
     16     -10.7656      2.00000
     17     -10.5341      2.00000
     18     -10.3172      2.00000
     19      -5.4156      2.00000
     20      -4.9394      2.00000
     21      -2.4001      2.00000
     22      -2.1281      2.00000
     23      -1.8608      2.00000
     24      -1.7224      2.00000
     25      -1.4492      2.00000
     26      -1.1310      2.00000
     27      -0.8872      2.00000
     28      -0.6437      2.00000
     29      -0.5998      2.00000
     30      -0.4454      2.00000
     31      -0.2615      2.00000
     32      -0.1840      2.00000
     33      -0.1199      2.00000
     34      -0.0557      2.00000
     35      -0.0211      2.00000
     36       0.0211      2.00000
     37       1.2617      2.00000
     38       1.3154      2.00000
     39       1.4092      2.00000
     40       1.4374      2.00000
     41       1.4849      2.00000
     42       1.4906      2.00000
     43       1.5161      2.00000
     44       1.5746      2.00000
     45       1.7620      2.00000
     46       1.8416      2.00000
     47       2.1183      2.00000
     48       2.1879      2.00000
     49       2.3641      2.00000
     50       2.4604      2.00000
     51       2.4908      2.00000
     52       2.6925      2.00000
     53       2.8250      2.00000
     54       3.0860      2.00000
     55       3.2912      2.00000
     56       3.5225      2.00000
     57       6.4942     -0.00000
     58       6.5884     -0.00000
     59       7.4547      0.00000
     60       7.7168      0.00000
     61       8.5829      0.00000
     62       8.7475      0.00000
     63       9.3120      0.00000
     64       9.5286      0.00000
     65       9.9493      0.00000
     66      10.1894      0.00000
     67      10.6823      0.00000
     68      11.1146      0.00000
     69      11.2518      0.00000
     70      11.5688      0.00000
     71      11.7069      0.00000
     72      11.8925      0.00000
     73      12.2944      0.00000
     74      12.6552      0.00000
     75      13.0072      0.00000
     76      13.2335      0.00000
     77      13.6689      0.00000
     78      14.0677      0.00000
     79      14.3933      0.00000
     80      16.5173      0.00000

 k-point  42 :      -0.2500   -0.2500    0.4000
  band No.  band energies     occupation 
      1     -68.6489      2.00000
      2     -68.6449      2.00000
      3     -68.6333      2.00000
      4     -68.6301      2.00000
      5     -68.6175      2.00000
      6     -68.6136      2.00000
      7     -68.5994      2.00000
      8     -68.5964      2.00000
      9     -68.5779      2.00000
     10     -68.5742      2.00000
     11     -68.5615      2.00000
     12     -68.5579      2.00000
     13     -12.1758      2.00000
     14     -11.7024      2.00000
     15     -10.7193      2.00000
     16     -10.6977      2.00000
     17     -10.5836      2.00000
     18     -10.3978      2.00000
     19      -5.4439      2.00000
     20      -5.0709      2.00000
     21      -2.5063      2.00000
     22      -2.3778      2.00000
     23      -1.9660      2.00000
     24      -1.3618      2.00000
     25      -1.3311      2.00000
     26      -1.0551      2.00000
     27      -0.8326      2.00000
     28      -0.7749      2.00000
     29      -0.4196      2.00000
     30      -0.3372      2.00000
     31      -0.2698      2.00000
     32      -0.2083      2.00000
     33      -0.1437      2.00000
     34      -0.1409      2.00000
     35      -0.0139      2.00000
     36       0.0271      2.00000
     37       1.1729      2.00000
     38       1.3712      2.00000
     39       1.3968      2.00000
     40       1.4520      2.00000
     41       1.4539      2.00000
     42       1.4993      2.00000
     43       1.5172      2.00000
     44       1.5482      2.00000
     45       1.7434      2.00000
     46       1.8208      2.00000
     47       1.9725      2.00000
     48       2.2250      2.00000
     49       2.3992      2.00000
     50       2.6146      2.00000
     51       2.6531      2.00000
     52       2.9153      2.00000
     53       3.0699      2.00000
     54       3.1188      2.00000
     55       3.2836      2.00000
     56       3.5786      2.00000
     57       6.2904     -0.00000
     58       6.3818     -0.00000
     59       7.3569      0.00000
     60       7.5245      0.00000
     61       8.3103      0.00000
     62       8.3392      0.00000
     63       9.1060      0.00000
     64       9.3593      0.00000
     65       9.7171      0.00000
     66       9.9492      0.00000
     67      10.5235      0.00000
     68      10.9888      0.00000
     69      11.4235      0.00000
     70      11.5656      0.00000
     71      12.0189      0.00000
     72      12.2858      0.00000
     73      12.4268      0.00000
     74      12.4755      0.00000
     75      13.0337      0.00000
     76      13.1489      0.00000
     77      14.1405      0.00000
     78      14.4365      0.00000
     79      15.1633      0.00000
     80      15.8697      0.00000


--------------------------------------------------------------------------------------------------------


 soft charge-density along one line, spin component           1
         0         1         2         3         4         5         6         7         8         9
 total charge-density along one line
 
 pseudopotential strength for first ion, spin component:           1
-65.426   0.002   0.006   7.364   0.000  -0.003   0.001   0.006
  0.002 -65.396  -0.005   0.000   7.354   0.001  -0.001  -0.024
  0.006  -0.005 -65.386  -0.003   0.001   7.350  -0.037  -0.001
  7.364   0.000  -0.003   6.110   0.000   0.001   0.002  -0.003
  0.000   7.354   0.001   0.000   6.113  -0.000   0.000   0.007
 -0.003   0.001   7.350   0.001  -0.000   6.114   0.008   0.000
  0.001  -0.001  -0.037   0.002   0.000   0.008  -2.982  -0.003
  0.006  -0.024  -0.001  -0.003   0.007   0.000  -0.003  -2.987
  0.022   0.041   0.009  -0.005  -0.008  -0.003  -0.003   0.008
 -0.001  -0.017   0.006   0.000   0.004  -0.003   0.004   0.007
  0.025   0.000  -0.034  -0.007  -0.000   0.007  -0.000   0.007
  0.001  -0.001  -0.036   0.002   0.000   0.008  -3.628  -0.003
  0.006  -0.023  -0.001  -0.003   0.007   0.000  -0.003  -3.633
  0.022   0.041   0.009  -0.005  -0.008  -0.002  -0.003   0.008
 -0.001  -0.017   0.006   0.000   0.004  -0.003   0.004   0.007
  0.025   0.000  -0.034  -0.007  -0.000   0.006  -0.000   0.007
  0.007  -0.004   0.004  -0.001   0.001  -0.001  -0.002   0.000
  0.015  -0.009   0.009  -0.002   0.001  -0.002  -0.003   0.001
 total augmentation occupancy for first ion, spin component:           1
  2.000  -0.000   0.000  -0.003  -0.000   0.000   0.007  -0.005   0.001  -0.001  -0.005  -0.007   0.005  -0.001   0.001   0.004
 -0.000   2.000  -0.000  -0.000  -0.003   0.000  -0.001   0.005   0.004   0.001   0.000   0.001  -0.005  -0.005  -0.001  -0.000
  0.000  -0.000   2.000   0.000   0.000  -0.003  -0.000  -0.000  -0.001  -0.005  -0.004   0.001   0.000   0.001   0.005   0.005
 -0.003  -0.000   0.000   0.095   0.006  -0.005  -0.334   0.233  -0.074   0.011   0.017   0.281  -0.197   0.058  -0.007  -0.011
 -0.000  -0.003   0.000   0.006   0.102   0.001   0.020  -0.048  -0.444   0.015   0.011  -0.013   0.037   0.376  -0.011  -0.009
  0.000   0.000  -0.003  -0.005   0.001   0.099   0.097  -0.002  -0.013   0.236   0.354  -0.077   0.001   0.011  -0.202  -0.297
  0.007  -0.001  -0.000  -0.334   0.020   0.097   4.010  -0.792   0.095   0.216   0.147  -1.738   0.743  -0.088  -0.182  -0.141
 -0.005   0.005  -0.000   0.233  -0.048  -0.002  -0.792   3.509   0.293   0.158   0.297   0.743  -1.269  -0.216  -0.114  -0.206
  0.001   0.004  -0.001  -0.074  -0.444  -0.013   0.095   0.293   4.691  -0.042  -0.117  -0.088  -0.216  -2.399   0.035   0.086
 -0.001   0.001  -0.005   0.011   0.015   0.236   0.216   0.158  -0.042   3.632   0.797  -0.182  -0.114   0.035  -1.352  -0.759
 -0.005   0.000  -0.004   0.017   0.011   0.354   0.147   0.297  -0.117   0.797   3.995  -0.141  -0.206   0.086  -0.759  -1.742
 -0.007   0.001   0.001   0.281  -0.013  -0.077  -1.738   0.743  -0.088  -0.182  -0.141   1.443  -0.695   0.081   0.154   0.136
  0.005  -0.005   0.000  -0.197   0.037   0.001   0.743  -1.269  -0.216  -0.114  -0.206  -0.695   1.005   0.154   0.078   0.132
 -0.001  -0.005   0.001   0.058   0.376   0.011  -0.088  -0.216  -2.399   0.035   0.086   0.081   0.154   2.083  -0.030  -0.063
  0.001  -0.001   0.005  -0.007  -0.011  -0.202  -0.182  -0.114   0.035  -1.352  -0.759   0.154   0.078  -0.030   1.058   0.721
  0.004  -0.000   0.005  -0.011  -0.009  -0.297  -0.141  -0.206   0.086  -0.759  -1.742   0.136   0.132  -0.063   0.721   1.461
 -0.024   0.015  -0.013  -0.020   0.011  -0.006   0.080  -0.100  -0.022  -0.005   0.025  -0.063   0.088   0.034   0.005   0.005
  0.012  -0.007   0.006   0.001  -0.000  -0.000  -0.009   0.003  -0.003   0.004  -0.019   0.004  -0.005  -0.002  -0.001   0.003


------------------------ aborting loop because EDIFF is reached ----------------------------------------


    FORLOC:  cpu time    0.01: real time    0.01
    FORHF :  cpu time  515.98: real time  515.83
    FORNL :  cpu time    0.39: real time    0.39
    FORCOR:  cpu time    2.07: real time    2.07

 VOLUME and BASIS-vectors are now :
 -----------------------------------------------------------------------------
  energy-cutoff  :      400.00
  volume of cell :      221.90
      direct lattice vectors                 reciprocal lattice vectors
     3.224796000 -5.643830000  0.031572000     0.154525165 -0.088592321  0.053460880
     3.224796000  5.643830000  0.031572000     0.154525165  0.088592321  0.053460880
    -2.101946000  0.000000000  6.075537000    -0.001606004  0.000000000  0.164038877

  length of vectors
     6.500240234  6.500240234  6.428866683     0.185969598  0.185969598  0.164046738


 FORCES acting on ions:
    Electron-Ion                     Ewald-Force                    Non-Local-Force
 -----------------------------------------------------------------------------------------------
   -.144E+02 -.971E+02 0.115E+02   0.132E+02 0.947E+02 -.999E+01   0.102E+01 0.211E+01 -.133E+01
   -.145E+02 0.976E+02 0.115E+02   0.134E+02 -.952E+02 -.987E+01   0.936E+00 -.213E+01 -.142E+01
   0.253E+02 -.171E+02 0.430E+01   -.221E+02 0.169E+02 -.298E+01   -.283E+01 0.162E+00 -.115E+01
   0.251E+02 0.172E+02 0.443E+01   -.219E+02 -.171E+02 -.314E+01   -.280E+01 -.857E-01 -.112E+01
   -.102E+02 -.326E+02 -.111E+02   0.946E+01 0.313E+02 0.100E+02   0.590E+00 0.145E+01 0.114E+01
   -.110E+02 0.316E+02 -.111E+02   0.103E+02 -.302E+02 0.100E+02   0.684E+00 -.135E+01 0.112E+01
   -.136E+03 -.101E+02 -.493E+02   0.133E+03 0.102E+02 0.485E+02   0.284E+01 -.522E-01 0.747E+00
   0.704E+02 -.126E+03 0.962E+02   -.686E+02 0.124E+03 -.941E+02   -.156E+01 0.228E+01 -.188E+01
   0.662E+02 -.132E+03 -.495E+02   -.647E+02 0.130E+03 0.485E+02   -.130E+01 0.209E+01 0.852E+00
   0.705E+02 0.126E+03 0.961E+02   -.689E+02 -.124E+03 -.940E+02   -.154E+01 -.232E+01 -.188E+01
   -.135E+03 0.995E+01 -.492E+02   0.132E+03 -.999E+01 0.484E+02   0.278E+01 0.360E-01 0.732E+00
   0.666E+02 0.133E+03 -.497E+02   -.651E+02 -.130E+03 0.488E+02   -.135E+01 -.218E+01 0.873E+00
 -----------------------------------------------------------------------------------------------
   0.280E+01 -.330E-01 0.376E+01   -.142E-13 -.114E-12 -.284E-13   -.254E+01 0.191E-01 -.332E+01
 
 
 POSITION                                       TOTAL-FORCE (eV/Angst)
 -----------------------------------------------------------------------------------
      2.13385     -2.80652      0.74958        -0.002398     -0.001491     -0.006255
      1.08288      2.80652      3.78735         0.004694      0.001658      0.000369
      5.40423     -0.97432      0.77721         0.000678     -0.001425      0.004652
      4.35326      0.97432      3.81498         0.000487     -0.007874      0.001655
      1.02577     -0.98197      3.66190        -0.112851      0.150284      0.007865
      2.07178      0.97328      0.62409         0.001424     -0.005360      0.007448
      2.15090      4.69667      3.05304         0.056844     -0.006010      0.011912
      1.11215     -0.89759      5.98620         0.007853     -0.017179      0.003551
      2.14287     -2.74882      3.03886         0.055205     -0.088458     -0.028454
      2.16313      0.89759      2.94844        -0.011179     -0.023118      0.003230
      1.09993     -4.69667      6.09081         0.000949      0.000587     -0.002400
      1.09189      2.74882      6.07662        -0.001706     -0.001613     -0.003573
 -----------------------------------------------------------------------------------
    total drift:                               -0.058851     -0.001178     -0.054046


--------------------------------------------------------------------------------------------------------



  FREE ENERGIE OF THE ION-ELECTRON SYSTEM (eV)
  ---------------------------------------------------
  free  energy   TOTEN  =       -69.59477833 eV

  energy  without entropy=      -69.59532307  energy(sigma->0) =      -69.59495991
 


--------------------------------------------------------------------------------------------------------


    POTLOK:  cpu time    2.07: real time    2.08


--------------------------------------------------------------------------------------------------------


 writing wavefunctions
     LOOP+:  cpu time 5897.40: real time 5894.68
    4ORBIT:  cpu time    0.00: real time    0.00

 total amount of memory used by VASP on root node   155705. kBytes
========================================================================

   base      :      30000. kBytes
   nonl-proj :      74517. kBytes
   fftplans  :        702. kBytes
   grid      :       2400. kBytes
   one-center:        186. kBytes
   HF        :        194. kBytes
   nonlr-proj:       5130. kBytes
   wavefun   :      42576. kBytes
 
  
  
 General timing and accounting informations for this job:
 ========================================================
  
                  Total CPU time used (sec):     5936.247
                            User time (sec):     5932.298
                          System time (sec):        3.948
                         Elapsed time (sec):     5940.084
  
                   Maximum memory used (kb):      296112.
                   Average memory used (kb):           0.
  
                          Minor page faults:        78265
                          Major page faults:            0
                 Voluntary context switches:         4245
