   12   12    1    1
  0.1849176E+02  0.6500240E-09  0.6500240E-09  0.6428867E-09  0.5000000E-15
  1.000000000000000E-004
  CAR 
 CGS                                     
  112   42   80
 
  0.0000000E+00  0.0000000E+00  0.0000000E+00  0.1250000E-01
   1      -68.646137
   2      -68.645606
   3      -68.632870
   4      -68.631983
   5      -68.614247
   6      -68.613708
   7      -68.596696
   8      -68.596357
   9      -68.577002
  10      -68.575663
  11      -68.560340
  12      -68.560421
  13      -12.720420
  14      -11.130451
  15      -10.915457
  16      -10.602898
  17      -10.252494
  18      -10.236423
  19       -5.984746
  20       -4.982627
  21       -2.761639
  22       -2.208751
  23       -2.069342
  24       -1.922737
  25       -1.575945
  26       -0.988424
  27       -0.947978
  28       -0.680967
  29       -0.402268
  30       -0.276651
  31       -0.260263
  32       -0.233002
  33       -0.189025
  34       -0.155476
  35       -0.045737
  36        0.034939
  37        1.349523
  38        1.363156
  39        1.415009
  40        1.457765
  41        1.472418
  42        1.473319
  43        1.520751
  44        1.532157
  45        1.574460
  46        1.710572
  47        1.891569
  48        1.927997
  49        2.058174
  50        2.652698
  51        2.725528
  52        3.089869
  53        3.219665
  54        4.007011
  55        4.036890
  56        4.172521
  57        5.538478
  58        6.358098
  59        7.631321
  60        7.987055
  61        8.616723
  62        8.792907
  63        9.571541
  64        9.739069
  65        9.814576
  66       10.421150
  67       10.578079
  68       10.694260
  69       10.718153
  70       11.284451
  71       11.712139
  72       12.390958
  73       12.451881
  74       12.725552
  75       13.322851
  76       13.382355
  77       13.832717
  78       13.883280
  79       14.146765
  80       14.179554
 
  0.2500000E+00  0.7372575E-17  0.1387779E-16  0.2500000E-01
   1      -68.646093
   2      -68.645580
   3      -68.632829
   4      -68.631964
   5      -68.614120
   6      -68.613622
   7      -68.596730
   8      -68.596351
   9      -68.576946
  10      -68.575596
  11      -68.560247
  12      -68.560441
  13      -12.595470
  14      -11.128667
  15      -10.980030
  16      -10.675949
  17      -10.370037
  18      -10.277318
  19       -5.933215
  20       -4.772395
  21       -2.646957
  22       -2.252341
  23       -2.086003
  24       -1.687748
  25       -1.344347
  26       -0.999377
  27       -0.766135
  28       -0.624242
  29       -0.553184
  30       -0.439669
  31       -0.358273
  32       -0.240771
  33       -0.195126
  34       -0.165955
  35       -0.050280
  36        0.040202
  37        1.279713
  38        1.335660
  39        1.355662
  40        1.391907
  41        1.427574
  42        1.471803
  43        1.498373
  44        1.530506
  45        1.724231
  46        1.858085
  47        2.057248
  48        2.093847
  49        2.230925
  50        2.411795
  51        2.555828
  52        2.827331
  53        2.948304
  54        3.243201
  55        3.662205
  56        4.039878
  57        6.170570
  58        6.905745
  59        8.138132
  60        8.268014
  61        8.594556
  62        9.014506
  63        9.242590
  64        9.531987
  65        9.864963
  66       10.376676
  67       10.634464
  68       10.813772
  69       10.938000
  70       11.190163
  71       11.653985
  72       11.767325
  73       12.118045
  74       12.443894
  75       12.618649
  76       13.009225
  77       13.507418
  78       13.875810
  79       14.211940
  80       14.709932
 
  0.5000000E+00  0.1474515E-16  0.2775558E-16  0.1250000E-01
   1      -68.645975
   2      -68.645414
   3      -68.632778
   4      -68.631854
   5      -68.614067
   6      -68.613608
   7      -68.596636
   8      -68.596292
   9      -68.576940
  10      -68.575542
  11      -68.560195
  12      -68.560204
  13      -12.436165
  14      -11.249554
  15      -10.954638
  16      -10.763592
  17      -10.432933
  18      -10.356588
  19       -5.871060
  20       -4.547681
  21       -2.495538
  22       -2.245201
  23       -1.942257
  24       -1.464574
  25       -1.224183
  26       -1.100850
  27       -0.902634
  28       -0.864542
  29       -0.598785
  30       -0.536986
  31       -0.271383
  32       -0.204488
  33       -0.202349
  34       -0.145933
  35       -0.030163
  36        0.079074
  37        1.254947
  38        1.328686
  39        1.347204
  40        1.396090
  41        1.470897
  42        1.479424
  43        1.500494
  44        1.553525
  45        1.752286
  46        1.789890
  47        1.967196
  48        2.146448
  49        2.319912
  50        2.363181
  51        2.553031
  52        2.669629
  53        2.940042
  54        3.081475
  55        3.249796
  56        3.861842
  57        6.385346
  58        7.097030
  59        7.980720
  60        8.203692
  61        8.517233
  62        8.821419
  63        9.328571
  64        9.888298
  65       10.010882
  66       10.518340
  67       10.690637
  68       10.793373
  69       11.142573
  70       11.408517
  71       11.609793
  72       11.775553
  73       11.943202
  74       12.502332
  75       12.779568
  76       12.999223
  77       13.398649
  78       13.542141
  79       13.939798
  80       14.269851
 
  0.7372575E-17  0.2500000E+00  0.1387779E-16  0.2500000E-01
   1      -68.646115
   2      -68.645558
   3      -68.632844
   4      -68.631946
   5      -68.614123
   6      -68.613618
   7      -68.596704
   8      -68.596377
   9      -68.576931
  10      -68.575607
  11      -68.560254
  12      -68.560441
  13      -12.595343
  14      -11.129175
  15      -10.981358
  16      -10.673688
  17      -10.368376
  18      -10.279542
  19       -5.933218
  20       -4.772232
  21       -2.646555
  22       -2.252109
  23       -2.086387
  24       -1.687431
  25       -1.346937
  26       -0.999580
  27       -0.766450
  28       -0.622607
  29       -0.548772
  30       -0.437745
  31       -0.360852
  32       -0.242204
  33       -0.194744
  34       -0.168504
  35       -0.050731
  36        0.040980
  37        1.278567
  38        1.337224
  39        1.354395
  40        1.392386
  41        1.427513
  42        1.472148
  43        1.498304
  44        1.530981
  45        1.724788
  46        1.858430
  47        2.056332
  48        2.092915
  49        2.231537
  50        2.412010
  51        2.556548
  52        2.824438
  53        2.948638
  54        3.242418
  55        3.664029
  56        4.041164
  57        6.170302
  58        6.907011
  59        8.138467
  60        8.268077
  61        8.594527
  62        9.013035
  63        9.242529
  64        9.531870
  65        9.864320
  66       10.375884
  67       10.632069
  68       10.814173
  69       10.939120
  70       11.190842
  71       11.654404
  72       11.771303
  73       12.116524
  74       12.442504
  75       12.618644
  76       13.008173
  77       13.517888
  78       13.903133
  79       14.271887
  80       14.839704
 
  0.2500000E+00  0.2500000E+00  0.0000000E+00  0.2500000E-01
   1      -68.646112
   2      -68.645584
   3      -68.632745
   4      -68.631832
   5      -68.614261
   6      -68.613749
   7      -68.596615
   8      -68.596244
   9      -68.577063
  10      -68.575728
  11      -68.560323
  12      -68.560402
  13      -12.439811
  14      -11.192648
  15      -10.941496
  16      -10.875782
  17      -10.391019
  18      -10.353720
  19       -5.876119
  20       -4.520840
  21       -2.418832
  22       -2.246200
  23       -1.790868
  24       -1.680569
  25       -1.356046
  26       -1.297877
  27       -1.080319
  28       -0.680377
  29       -0.525117
  30       -0.296993
  31       -0.280410
  32       -0.226543
  33       -0.185920
  34       -0.130243
  35       -0.093030
  36        0.080652
  37        1.293839
  38        1.311363
  39        1.414872
  40        1.426463
  41        1.463984
  42        1.482856
  43        1.496222
  44        1.570546
  45        1.671275
  46        1.880468
  47        1.939265
  48        2.133984
  49        2.278208
  50        2.319831
  51        2.559078
  52        2.651652
  53        2.904283
  54        2.945233
  55        3.698758
  56        3.833238
  57        6.171300
  58        6.990681
  59        8.004267
  60        8.327795
  61        8.434714
  62        8.571407
  63        9.147099
  64        9.248102
  65       10.360810
  66       10.494724
  67       10.919280
  68       11.184611
  69       11.329677
  70       11.556760
  71       11.814390
  72       11.962930
  73       12.314005
  74       12.503134
  75       12.709737
  76       12.915611
  77       13.337526
  78       13.447886
  79       14.254286
  80       14.366137
 
  0.5000000E+00  0.2500000E+00 -0.2775558E-16  0.2500000E-01
   1      -68.645736
   2      -68.645523
   3      -68.632800
   4      -68.631916
   5      -68.614008
   6      -68.613555
   7      -68.596634
   8      -68.596332
   9      -68.576844
  10      -68.575542
  11      -68.560064
  12      -68.560365
  13      -12.439916
  14      -11.355694
  15      -10.935878
  16      -10.736477
  17      -10.393284
  18      -10.271330
  19       -5.947833
  20       -4.641232
  21       -2.392751
  22       -2.225973
  23       -2.057592
  24       -1.639171
  25       -1.361916
  26       -1.281113
  27       -1.023016
  28       -0.512599
  29       -0.484766
  30       -0.328829
  31       -0.283995
  32       -0.208833
  33       -0.149367
  34       -0.136853
  35       -0.010181
  36        0.110372
  37        1.246718
  38        1.315496
  39        1.382297
  40        1.436571
  41        1.461627
  42        1.492463
  43        1.497518
  44        1.549862
  45        1.749052
  46        1.826776
  47        1.922467
  48        2.132604
  49        2.220305
  50        2.385523
  51        2.558617
  52        2.791486
  53        2.979479
  54        3.313164
  55        3.604006
  56        3.748839
  57        6.086979
  58        6.939786
  59        7.611644
  60        8.069603
  61        8.410211
  62        8.616835
  63        8.983986
  64        9.152627
  65       10.087008
  66       10.335522
  67       10.733158
  68       11.107723
  69       11.459021
  70       11.596203
  71       11.797153
  72       12.086137
  73       12.474962
  74       12.917725
  75       13.036464
  76       13.819869
  77       14.194175
  78       14.652338
  79       15.429759
  80       15.643808
 
 -0.2500000E+00  0.2500000E+00  0.0000000E+00  0.2500000E-01
   1      -68.646105
   2      -68.645571
   3      -68.632812
   4      -68.631925
   5      -68.614056
   6      -68.613552
   7      -68.596697
   8      -68.596351
   9      -68.576890
  10      -68.575545
  11      -68.560211
  12      -68.560484
  13      -12.598100
  14      -11.253332
  15      -10.989483
  16      -10.567718
  17      -10.370993
  18      -10.180350
  19       -6.010087
  20       -4.893405
  21       -2.647176
  22       -2.313988
  23       -1.973569
  24       -1.646484
  25       -1.492721
  26       -1.184025
  27       -0.791438
  28       -0.582601
  29       -0.445090
  30       -0.334313
  31       -0.293697
  32       -0.232670
  33       -0.172855
  34       -0.131059
  35       -0.007483
  36        0.067919
  37        1.259608
  38        1.320341
  39        1.364484
  40        1.423752
  41        1.431475
  42        1.476013
  43        1.503773
  44        1.542741
  45        1.724163
  46        1.812526
  47        1.994736
  48        2.071649
  49        2.416355
  50        2.462150
  51        2.527216
  52        2.872135
  53        3.143076
  54        3.229768
  55        3.784361
  56        4.069966
  57        5.979377
  58        6.690364
  59        7.533565
  60        8.223409
  61        8.617584
  62        8.914877
  63        9.306165
  64        9.432260
  65        9.804571
  66       10.270680
  67       10.543693
  68       10.830175
  69       10.971991
  70       11.380136
  71       11.474528
  72       11.732480
  73       12.102175
  74       12.662842
  75       12.943286
  76       13.101742
  77       13.349280
  78       13.518747
  79       14.476559
  80       14.754771
 
  0.1474515E-16  0.5000000E+00  0.2775558E-16  0.1250000E-01
   1      -68.645931
   2      -68.645448
   3      -68.632786
   4      -68.631847
   5      -68.614104
   6      -68.613573
   7      -68.596622
   8      -68.596309
   9      -68.576881
  10      -68.575586
  11      -68.560122
  12      -68.560295
  13      -12.435757
  14      -11.252233
  15      -10.955220
  16      -10.759726
  17      -10.429351
  18      -10.361199
  19       -5.871055
  20       -4.547341
  21       -2.494448
  22       -2.245231
  23       -1.945138
  24       -1.461342
  25       -1.228042
  26       -1.100131
  27       -0.900699
  28       -0.864519
  29       -0.599014
  30       -0.533977
  31       -0.276808
  32       -0.207540
  33       -0.199037
  34       -0.145518
  35       -0.032033
  36        0.081379
  37        1.253726
  38        1.327804
  39        1.347264
  40        1.396992
  41        1.471530
  42        1.480209
  43        1.500756
  44        1.553489
  45        1.753075
  46        1.791284
  47        1.968501
  48        2.146320
  49        2.321815
  50        2.358789
  51        2.554741
  52        2.669752
  53        2.936951
  54        3.078391
  55        3.250898
  56        3.864052
  57        6.384892
  58        7.099109
  59        7.983026
  60        8.204148
  61        8.518870
  62        8.820363
  63        9.327655
  64        9.886976
  65       10.009973
  66       10.516839
  67       10.690936
  68       10.792025
  69       11.141762
  70       11.410827
  71       11.607799
  72       11.777460
  73       11.939698
  74       12.503512
  75       12.826175
  76       13.031704
  77       13.553484
  78       13.685021
  79       14.552623
  80       15.244024
 
  0.2500000E+00  0.5000000E+00 -0.2775558E-16  0.2500000E-01
   1      -68.645732
   2      -68.645532
   3      -68.632751
   4      -68.631928
   5      -68.613993
   6      -68.613589
   7      -68.596626
   8      -68.596361
   9      -68.576810
  10      -68.575563
  11      -68.560178
  12      -68.560257
  13      -12.439713
  14      -11.356645
  15      -10.936197
  16      -10.734897
  17      -10.392953
  18      -10.272185
  19       -5.947829
  20       -4.641089
  21       -2.391421
  22       -2.226430
  23       -2.058571
  24       -1.638203
  25       -1.363040
  26       -1.283022
  27       -1.022350
  28       -0.512936
  29       -0.480822
  30       -0.327754
  31       -0.280644
  32       -0.214083
  33       -0.151734
  34       -0.135120
  35       -0.011843
  36        0.111078
  37        1.246332
  38        1.315191
  39        1.382241
  40        1.438062
  41        1.461573
  42        1.491974
  43        1.497471
  44        1.549534
  45        1.748333
  46        1.828802
  47        1.920734
  48        2.133839
  49        2.220392
  50        2.382877
  51        2.559970
  52        2.789617
  53        2.980688
  54        3.312139
  55        3.605415
  56        3.750509
  57        6.086597
  58        6.940371
  59        7.611669
  60        8.068867
  61        8.411460
  62        8.615912
  63        8.983542
  64        9.153307
  65       10.086601
  66       10.336357
  67       10.732095
  68       11.107718
  69       11.455108
  70       11.576805
  71       11.784842
  72       12.032742
  73       12.513431
  74       12.675206
  75       12.918161
  76       13.211150
  77       14.227219
  78       14.775415
  79       15.248443
  80       15.902186
 
  0.5000000E+00  0.5000000E+00  0.0000000E+00  0.1250000E-01
   1      -68.645770
   2      -68.645151
   3      -68.632612
   4      -68.631719
   5      -68.613785
   6      -68.613572
   7      -68.596435
   8      -68.596147
   9      -68.576772
  10      -68.575427
  11      -68.559815
  12      -68.560213
  13      -12.431311
  14      -11.503705
  15      -10.911100
  16      -10.615296
  17      -10.402566
  18      -10.199384
  19       -6.026317
  20       -4.808880
  21       -2.309733
  22       -2.265550
  23       -2.094637
  24       -1.704282
  25       -1.249757
  26       -1.107018
  27       -0.842263
  28       -0.779845
  29       -0.725636
  30       -0.241845
  31       -0.200324
  32       -0.183712
  33       -0.148720
  34       -0.038746
  35        0.000072
  36        0.181590
  37        1.266923
  38        1.317444
  39        1.374990
  40        1.413945
  41        1.433332
  42        1.491816
  43        1.508034
  44        1.549014
  45        1.786546
  46        1.847035
  47        1.994432
  48        2.151242
  49        2.251576
  50        2.336304
  51        2.560224
  52        2.762395
  53        2.773566
  54        3.370123
  55        3.765051
  56        4.008390
  57        5.853281
  58        6.768405
  59        7.081648
  60        8.413017
  61        8.561007
  62        8.769730
  63        9.141830
  64        9.243044
  65        9.958744
  66       10.286524
  67       10.726483
  68       10.827187
  69       10.876571
  70       11.273122
  71       11.757010
  72       11.914322
  73       11.972391
  74       12.366140
  75       12.540107
  76       13.454062
  77       14.287892
  78       14.674394
  79       16.742150
  80       16.756797
 
 -0.2168404E-18 -0.2168404E-18  0.2000000E+00  0.2500000E-01
   1      -68.646147
   2      -68.645599
   3      -68.632838
   4      -68.631956
   5      -68.614156
   6      -68.613641
   7      -68.596726
   8      -68.596370
   9      -68.576974
  10      -68.575633
  11      -68.560355
  12      -68.560410
  13      -12.617229
  14      -11.425198
  15      -10.777869
  16      -10.607997
  17      -10.251294
  18      -10.238377
  19       -5.831147
  20       -5.046321
  21       -2.601148
  22       -2.370462
  23       -1.961510
  24       -1.775735
  25       -1.444634
  26       -1.123329
  27       -1.065993
  28       -0.771212
  29       -0.469096
  30       -0.291852
  31       -0.238556
  32       -0.233899
  33       -0.191752
  34       -0.147932
  35       -0.022404
  36        0.027176
  37        1.332698
  38        1.382046
  39        1.416538
  40        1.439406
  41        1.464803
  42        1.467549
  43        1.514866
  44        1.545523
  45        1.632111
  46        1.758812
  47        1.786231
  48        1.950887
  49        2.087704
  50        2.657538
  51        2.720783
  52        3.194159
  53        3.254399
  54        3.520755
  55        3.895200
  56        3.976222
  57        6.046011
  58        6.416445
  59        7.824936
  60        7.908045
  61        8.366305
  62        8.819669
  63        9.776376
  64        9.794086
  65       10.061640
  66       10.584277
  67       10.645508
  68       10.816823
  69       10.854832
  70       11.494329
  71       11.557362
  72       12.025490
  73       12.578874
  74       12.774359
  75       12.912930
  76       13.205341
  77       13.535103
  78       13.820615
  79       14.199572
  80       14.702539
 
  0.2500000E+00  0.1517883E-17  0.2000000E+00  0.2500000E-01
   1      -68.646079
   2      -68.645541
   3      -68.632824
   4      -68.631939
   5      -68.614192
   6      -68.613691
   7      -68.596699
   8      -68.596311
   9      -68.576977
  10      -68.575652
  11      -68.560192
  12      -68.560448
  13      -12.458193
  14      -11.466679
  15      -10.862487
  16      -10.689528
  17      -10.375098
  18      -10.246663
  19       -5.766800
  20       -4.803696
  21       -2.445730
  22       -2.231945
  23       -1.850764
  24       -1.711965
  25       -1.432914
  26       -1.186730
  27       -0.889178
  28       -0.748900
  29       -0.603706
  30       -0.522121
  31       -0.311574
  32       -0.245864
  33       -0.173783
  34       -0.121906
  35       -0.055607
  36        0.062368
  37        1.302748
  38        1.336317
  39        1.368960
  40        1.432152
  41        1.446643
  42        1.479311
  43        1.521610
  44        1.547523
  45        1.643737
  46        1.870682
  47        1.978727
  48        2.047250
  49        2.194648
  50        2.474579
  51        2.593876
  52        2.839572
  53        2.964822
  54        3.133379
  55        3.568072
  56        3.724343
  57        6.441908
  58        6.957371
  59        8.170880
  60        8.246235
  61        8.834218
  62        9.127937
  63        9.465071
  64        9.797322
  65       10.084267
  66       10.301031
  67       10.736878
  68       11.077707
  69       11.290978
  70       11.424733
  71       11.632096
  72       11.725698
  73       12.085722
  74       12.266182
  75       12.541303
  76       12.658566
  77       12.956776
  78       13.058246
  79       13.639554
  80       14.693420
 
  0.5000000E+00  0.9107298E-17  0.2000000E+00  0.2500000E-01
   1      -68.645822
   2      -68.645465
   3      -68.632718
   4      -68.631869
   5      -68.614032
   6      -68.613572
   7      -68.596565
   8      -68.596275
   9      -68.576864
  10      -68.575565
  11      -68.560109
  12      -68.560389
  13      -12.355874
  14      -11.413038
  15      -10.951865
  16      -10.684406
  17      -10.480044
  18      -10.335752
  19       -5.752123
  20       -4.721793
  21       -2.522030
  22       -2.185376
  23       -1.951386
  24       -1.534683
  25       -1.300773
  26       -1.097434
  27       -0.872577
  28       -0.752164
  29       -0.550210
  30       -0.445987
  31       -0.288648
  32       -0.179938
  33       -0.145026
  34       -0.108013
  35       -0.044949
  36        0.022797
  37        1.272817
  38        1.298753
  39        1.351552
  40        1.430181
  41        1.452748
  42        1.480045
  43        1.501407
  44        1.588016
  45        1.719971
  46        1.928824
  47        2.075515
  48        2.145382
  49        2.267553
  50        2.403281
  51        2.567503
  52        2.597240
  53        2.900493
  54        3.011227
  55        3.359822
  56        3.898871
  57        6.365505
  58        6.896934
  59        7.574120
  60        8.084128
  61        8.547954
  62        8.797951
  63        9.280504
  64        9.628895
  65        9.930203
  66       10.273977
  67       10.657543
  68       10.929468
  69       10.972037
  70       11.282007
  71       11.520089
  72       11.786464
  73       12.247605
  74       12.543527
  75       13.103194
  76       13.518480
  77       14.298569
  78       14.617576
  79       15.125519
  80       16.273154
 
 -0.2500000E+00 -0.4098284E-16  0.2000000E+00  0.2500000E-01
   1      -68.646136
   2      -68.645598
   3      -68.632813
   4      -68.631933
   5      -68.614157
   6      -68.613654
   7      -68.596723
   8      -68.596345
   9      -68.576995
  10      -68.575648
  11      -68.560309
  12      -68.560442
  13      -12.540883
  14      -11.336789
  15      -10.873356
  16      -10.605538
  17      -10.400543
  18      -10.283847
  19       -5.824825
  20       -4.974249
  21       -2.665643
  22       -2.452121
  23       -2.038950
  24       -1.576676
  25       -1.169168
  26       -0.982271
  27       -0.792655
  28       -0.661089
  29       -0.514400
  30       -0.390497
  31       -0.266238
  32       -0.252856
  33       -0.190044
  34       -0.146616
  35       -0.049148
  36        0.015842
  37        1.290071
  38        1.311965
  39        1.388833
  40        1.408936
  41        1.434081
  42        1.455607
  43        1.491948
  44        1.563766
  45        1.688369
  46        1.915621
  47        1.986484
  48        2.145311
  49        2.333206
  50        2.563454
  51        2.616200
  52        2.832376
  53        2.971748
  54        3.250139
  55        3.682344
  56        3.943342
  57        6.179462
  58        6.637688
  59        7.766988
  60        7.973482
  61        8.215741
  62        8.564022
  63        9.380348
  64        9.577272
  65        9.907490
  66       10.250086
  67       10.543519
  68       10.786313
  69       10.842557
  70       11.068476
  71       11.565926
  72       12.018770
  73       12.529312
  74       12.752942
  75       12.952583
  76       13.309574
  77       13.412263
  78       13.741147
  79       13.846602
  80       14.725781
 
  0.1517883E-17  0.2500000E+00  0.2000000E+00  0.2500000E-01
   1      -68.646081
   2      -68.645540
   3      -68.632824
   4      -68.631940
   5      -68.614189
   6      -68.613694
   7      -68.596705
   8      -68.596305
   9      -68.576988
  10      -68.575645
  11      -68.560208
  12      -68.560428
  13      -12.458071
  14      -11.466514
  15      -10.865672
  16      -10.686647
  17      -10.374443
  18      -10.247273
  19       -5.766801
  20       -4.803627
  21       -2.445156
  22       -2.232167
  23       -1.850002
  24       -1.711297
  25       -1.436575
  26       -1.188466
  27       -0.887725
  28       -0.744507
  29       -0.606546
  30       -0.519695
  31       -0.311020
  32       -0.245620
  33       -0.175516
  34       -0.122591
  35       -0.056766
  36        0.063285
  37        1.301279
  38        1.336538
  39        1.369742
  40        1.432243
  41        1.446576
  42        1.478935
  43        1.520818
  44        1.547269
  45        1.644065
  46        1.871057
  47        1.977805
  48        2.047950
  49        2.195311
  50        2.474280
  51        2.595798
  52        2.839751
  53        2.963400
  54        3.131989
  55        3.568707
  56        3.725786
  57        6.441612
  58        6.958236
  59        8.171488
  60        8.246087
  61        8.833805
  62        9.127802
  63        9.464513
  64        9.796108
  65       10.085087
  66       10.298576
  67       10.740170
  68       11.077757
  69       11.290163
  70       11.424851
  71       11.629964
  72       11.724066
  73       12.085616
  74       12.266494
  75       12.540120
  76       12.659974
  77       12.956656
  78       13.059828
  79       13.656154
  80       14.696029
 
  0.2500000E+00  0.2500000E+00  0.2000000E+00  0.2500000E-01
   1      -68.645985
   2      -68.645454
   3      -68.632687
   4      -68.631776
   5      -68.614032
   6      -68.613529
   7      -68.596559
   8      -68.596207
   9      -68.576862
  10      -68.575506
  11      -68.560268
  12      -68.560191
  13      -12.326116
  14      -11.475372
  15      -10.862625
  16      -10.857092
  17      -10.405767
  18      -10.290192
  19       -5.748189
  20       -4.691089
  21       -2.241917
  22       -2.137478
  23       -1.927042
  24       -1.850757
  25       -1.454177
  26       -1.394956
  27       -1.040146
  28       -0.518566
  29       -0.460051
  30       -0.344521
  31       -0.250694
  32       -0.222244
  33       -0.162785
  34       -0.112808
  35       -0.090747
  36        0.081936
  37        1.262494
  38        1.347621
  39        1.397836
  40        1.435748
  41        1.453859
  42        1.510577
  43        1.535655
  44        1.542930
  45        1.753441
  46        1.818120
  47        2.039448
  48        2.133835
  49        2.285540
  50        2.309770
  51        2.520892
  52        2.769492
  53        2.898687
  54        3.263348
  55        3.496399
  56        3.800727
  57        6.183080
  58        6.842209
  59        7.826989
  60        8.045384
  61        8.189325
  62        8.727043
  63        9.153892
  64        9.307271
  65       10.219292
  66       10.441329
  67       10.590998
  68       11.004546
  69       11.240288
  70       11.486072
  71       11.813372
  72       12.173004
  73       12.206299
  74       12.573708
  75       12.691463
  76       13.113795
  77       13.417881
  78       13.878779
  79       14.007318
  80       14.524884
 
  0.5000000E+00  0.2500000E+00  0.2000000E+00  0.2500000E-01
   1      -68.645731
   2      -68.645450
   3      -68.632725
   4      -68.631952
   5      -68.613932
   6      -68.613678
   7      -68.596615
   8      -68.596291
   9      -68.576821
  10      -68.575599
  11      -68.560147
  12      -68.560247
  13      -12.372618
  14      -11.473960
  15      -10.936944
  16      -10.651806
  17      -10.421307
  18      -10.305768
  19       -5.800890
  20       -4.835518
  21       -2.526915
  22       -2.242331
  23       -1.874453
  24       -1.643183
  25       -1.503956
  26       -1.306075
  27       -0.902679
  28       -0.534277
  29       -0.376733
  30       -0.349189
  31       -0.221228
  32       -0.182121
  33       -0.159045
  34       -0.075420
  35       -0.024669
  36        0.078578
  37        1.190607
  38        1.364144
  39        1.397347
  40        1.442074
  41        1.463675
  42        1.506963
  43        1.518920
  44        1.585248
  45        1.739588
  46        1.818337
  47        2.034672
  48        2.235312
  49        2.269167
  50        2.362705
  51        2.484768
  52        2.671943
  53        3.053265
  54        3.413173
  55        3.727710
  56        3.863579
  57        5.931954
  58        6.614609
  59        7.352466
  60        7.943732
  61        8.066019
  62        8.725215
  63        8.907541
  64        9.139069
  65        9.844225
  66       10.325717
  67       10.554857
  68       10.926412
  69       11.222519
  70       11.417791
  71       11.750442
  72       12.003108
  73       12.498631
  74       12.830316
  75       13.205807
  76       14.184071
  77       14.713929
  78       15.157257
  79       15.906574
  80       16.564231
 
 -0.2500000E+00  0.2500000E+00  0.2000000E+00  0.2500000E-01
   1      -68.646041
   2      -68.645545
   3      -68.632868
   4      -68.631987
   5      -68.614128