       N       E                     dE             d eps       ncg     rms          ort
SDA:   1     0.757152079683E+02    0.75715E+02   -0.21365E+03  3360   0.534E+03 0.000E+00
DMP:   2    -0.822540944895E+01   -0.83941E+02   -0.14728E+03  3360   0.397E+03-0.744E+02
DMP:   3    -0.149671985110E+02   -0.67418E+01   -0.20576E+03  3360   0.702E+03-0.492E+03
DMP:   4    -0.224431620267E+02   -0.74760E+01   -0.10784E+03  3360   0.392E+03-0.321E+03
DMP:   5    -0.607945795283E+02   -0.38351E+02   -0.15080E+02  3360   0.707E+02-0.864E+02
DMP:   6    -0.659028921687E+02   -0.51083E+01   -0.82580E+01  3360   0.249E+02-0.111E+02
DMP:   7    -0.674557099474E+02   -0.15528E+01   -0.41693E+01  3360   0.148E+02-0.116E+02
DMP:   8    -0.690823497868E+02   -0.16266E+01   -0.77447E+00  3360   0.285E+01-0.239E+01
DMP:   9    -0.693934716491E+02   -0.31112E+00   -0.39021E+00  3360   0.112E+01-0.370E+00
DMP:  10    -0.694983531188E+02   -0.10488E+00   -0.15325E+00  3360   0.551E+00-0.441E+00
DMP:  11    -0.695684203022E+02   -0.70067E-01   -0.37112E-01  3360   0.106E+00-0.340E-01
DMP:  12    -0.695807992682E+02   -0.12379E-01   -0.23037E-01  3360   0.696E-01-0.314E-01
DMP:  13    -0.695905444181E+02   -0.97451E-02   -0.51458E-02  3360   0.162E-01-0.881E-02
DMP:  14    -0.695930105675E+02   -0.24661E-02   -0.38140E-02  3360   0.974E-02-0.525E-03
DMP:  15    -0.695945290994E+02   -0.15185E-02   -0.10446E-02  3360   0.336E-02-0.195E-02
DMP:  16    -0.695951043512E+02   -0.57525E-03   -0.41262E-03  3360   0.923E-03 0.284E-03
DMP:  17    -0.695952785840E+02   -0.17423E-03   -0.21018E-03  3360   0.584E-03-0.154E-03
DMP:  18    -0.695953964623E+02   -0.11788E-03   -0.56568E-04  3360   0.120E-03 0.558E-04
DMP:  19    -0.695954255224E+02   -0.29060E-04   -0.35570E-04  3360   0.890E-04-0.322E-06
DMP:  20    -0.695954454251E+02   -0.19903E-04   -0.11641E-04  3360   0.243E-04 0.126E-04
DMP:  21    -0.695954528607E+02   -0.74356E-05   -0.70659E-05  3360   0.141E-04 0.922E-05
   1 F= -.69595453E+02 E0= -.69595643E+02  d E =0.568941E-03
