<?xml version="1.0" encoding="ISO-8859-1"?>
<modeling>
 <generator>
  <i name="program" type="string">vasp </i>
  <i name="version" type="string">5.3.3  </i>
  <i name="subversion" type="string">18Dez12 (build Nov 13 2015 09:58:40) complex                          parallel </i>
  <i name="platform" type="string">LinuxIFC </i>
  <i name="date" type="string">2017 10 18 </i>
  <i name="time" type="string">13:03:59 </i>
 </generator>
 <incar>
  <i type="string" name="SYSTEM"> CGS</i>
  <i type="string" name="PREC">normal</i>
  <i type="string" name="ALGO"> D</i>
  <i type="logical" name="LDIAG"> T  </i>
  <i name="EDIFF">      0.00001000</i>
  <i name="ENCUT">    400.00000000</i>
  <i name="TIME">      0.40000000</i>
  <i type="int" name="ISMEAR">     1</i>
  <i name="SIGMA">      0.10000000</i>
  <i type="logical" name="LHFCALC"> T  </i>
  <i type="string" name="GGA"> PE</i>
  <i name="HFSCREEN">      0.20000000</i>
  <i name="AEXX">      0.25000000</i>
  <i type="string" name="PRECFOCK">fast</i>
 </incar>
 <kpoints>
  <generation param="Gamma">
   <v type="int" name="divisions">       4        4        5 </v>
   <v name="usershift">      0.00000000       0.00000000       0.00000000 </v>
   <v name="genvec1">      0.25000000       0.00000000       0.00000000 </v>
   <v name="genvec2">      0.00000000       0.25000000       0.00000000 </v>
   <v name="genvec3">      0.00000000       0.00000000       0.20000000 </v>
   <v name="shift">      0.00000000       0.00000000       0.00000000 </v>
  </generation>
  <varray name="kpointlist" >
   <v>       0.00000000       0.00000000       0.00000000 </v>
   <v>       0.25000000       0.00000000       0.00000000 </v>
   <v>       0.50000000       0.00000000       0.00000000 </v>
   <v>       0.00000000       0.25000000       0.00000000 </v>
   <v>       0.25000000       0.25000000       0.00000000 </v>
   <v>       0.50000000       0.25000000      -0.00000000 </v>
   <v>      -0.25000000       0.25000000       0.00000000 </v>
   <v>       0.00000000       0.50000000       0.00000000 </v>
   <v>       0.25000000       0.50000000      -0.00000000 </v>
   <v>       0.50000000       0.50000000       0.00000000 </v>
   <v>      -0.00000000      -0.00000000       0.20000000 </v>
   <v>       0.25000000       0.00000000       0.20000000 </v>
   <v>       0.50000000       0.00000000       0.20000000 </v>
   <v>      -0.25000000      -0.00000000       0.20000000 </v>
   <v>       0.00000000       0.25000000       0.20000000 </v>
   <v>       0.25000000       0.25000000       0.20000000 </v>
   <v>       0.50000000       0.25000000       0.20000000 </v>
   <v>      -0.25000000       0.25000000       0.20000000 </v>
   <v>       0.00000000       0.50000000       0.20000000 </v>
   <v>       0.25000000       0.50000000       0.20000000 </v>
   <v>       0.50000000       0.50000000       0.20000000 </v>
   <v>      -0.25000000       0.50000000       0.20000000 </v>
   <v>      -0.00000000      -0.25000000       0.20000000 </v>
   <v>       0.25000000      -0.25000000       0.20000000 </v>
   <v>       0.50000000      -0.25000000       0.20000000 </v>
   <v>      -0.25000000      -0.25000000       0.20000000 </v>
   <v>      -0.00000000      -0.00000000       0.40000000 </v>
   <v>       0.25000000       0.00000000       0.40000000 </v>
   <v>       0.50000000       0.00000000       0.40000000 </v>
   <v>      -0.25000000       0.00000000       0.40000000 </v>
   <v>       0.00000000       0.25000000       0.40000000 </v>
   <v>       0.25000000       0.25000000       0.40000000 </v>
   <v>       0.50000000       0.25000000       0.40000000 </v>
   <v>      -0.25000000       0.25000000       0.40000000 </v>
   <v>       0.00000000       0.50000000       0.40000000 </v>
   <v>       0.25000000       0.50000000       0.40000000 </v>
   <v>       0.50000000       0.50000000       0.40000000 </v>
   <v>      -0.25000000       0.50000000       0.40000000 </v>
   <v>       0.00000000      -0.25000000       0.40000000 </v>
   <v>       0.25000000      -0.25000000       0.40000000 </v>
   <v>       0.50000000      -0.25000000       0.40000000 </v>
   <v>      -0.25000000      -0.25000000       0.40000000 </v>
  </varray>
  <varray name="weights" >
   <v>       0.01250000 </v>
   <v>       0.02500000 </v>
   <v>       0.01250000 </v>
   <v>       0.02500000 </v>
   <v>       0.02500000 </v>
   <v>       0.02500000 </v>
   <v>       0.02500000 </v>
   <v>       0.01250000 </v>
   <v>       0.02500000 </v>
   <v>       0.01250000 </v>
   <v>       0.02500000 </v>
   <v>       0.02500000 </v>
   <v>       0.02500000 </v>
   <v>       0.02500000 </v>
   <v>       0.02500000 </v>
   <v>       0.02500000 </v>
   <v>       0.02500000 </v>
   <v>       0.02500000 </v>
   <v>       0.02500000 </v>
   <v>       0.02500000 </v>
   <v>       0.02500000 </v>
   <v>       0.02500000 </v>
   <v>       0.02500000 </v>
   <v>       0.02500000 </v>
   <v>       0.02500000 </v>
   <v>       0.02500000 </v>
   <v>       0.02500000 </v>
   <v>       0.02500000 </v>
   <v>       0.02500000 </v>
   <v>       0.02500000 </v>
   <v>       0.02500000 </v>
   <v>       0.02500000 </v>
   <v>       0.02500000 </v>
   <v>       0.02500000 </v>
   <v>       0.02500000 </v>
   <v>       0.02500000 </v>
   <v>       0.02500000 </v>
   <v>       0.02500000 </v>
   <v>       0.02500000 </v>
   <v>       0.02500000 </v>
   <v>       0.02500000 </v>
   <v>       0.02500000 </v>
  </varray>
 </kpoints>
 <parameters>
  <separator name="general" >
   <i type="string" name="SYSTEM">CGS</i>
   <i type="logical" name="LCOMPAT"> F  </i>
  </separator>
  <separator name="electronic" >
   <i type="string" name="PREC">normal</i>
   <i name="ENMAX">    400.00000000</i>
   <i name="ENAUG">    758.23300000</i>
   <i name="EDIFF">      0.00001000</i>
   <i type="int" name="IALGO">    53</i>
   <i type="int" name="IWAVPR">    10</i>
   <i type="int" name="NBANDS">    80</i>
   <i name="NELECT">    112.00000000</i>
   <i type="int" name="TURBO">     0</i>
   <i type="int" name="IRESTART">     0</i>
   <i type="int" name="NREBOOT">     0</i>
   <i type="int" name="NMIN">     0</i>
   <i name="EREF">      0.00000000</i>
   <separator name="electronic smearing" >
    <i type="int" name="ISMEAR">     1</i>
    <i name="SIGMA">      0.10000000</i>
    <i name="KSPACING">      0.50000000</i>
    <i type="logical" name="KGAMMA"> T  </i>
   </separator>
   <separator name="electronic projectors" >
    <i type="logical" name="LREAL"> F  </i>
    <v name="ROPT">      0.00000000      0.00000000      0.00000000</v>
    <i type="int" name="LMAXPAW">  -100</i>
    <i type="int" name="LMAXMIX">     2</i>
    <i type="logical" name="NLSPLINE"> F  </i>
   </separator>
   <separator name="electronic startup" >
    <i type="int" name="ISTART">     1</i>
    <i type="int" name="ICHARG">     0</i>
    <i type="int" name="INIWAV">     1</i>
   </separator>
   <separator name="electronic spin" >
    <i type="int" name="ISPIN">     1</i>
    <i type="logical" name="LNONCOLLINEAR"> F  </i>
    <v name="MAGMOM">      1.00000000      1.00000000      1.00000000      1.00000000      1.00000000      1.00000000      1.00000000      1.00000000      1.00000000      1.00000000      1.00000000      1.00000000</v>
    <i name="NUPDOWN">     -1.00000000</i>
    <i type="logical" name="LSORBIT"> F  </i>
    <v name="SAXIS">      0.00000000      0.00000000      1.00000000</v>
    <i type="logical" name="LSPIRAL"> F  </i>
    <v name="QSPIRAL">      0.00000000      0.00000000      0.00000000</v>
    <i type="logical" name="LZEROZ"> F  </i>
   </separator>
   <separator name="electronic exchange-correlation" >
    <i type="logical" name="LASPH"> F  </i>
    <i type="logical" name="LMETAGGA"> F  </i>
   </separator>
   <separator name="electronic convergence" >
    <i type="int" name="NELM">    60</i>
    <i type="int" name="NELMDL">     0</i>
    <i type="int" name="NELMIN">     2</i>
    <i name="ENINI">    400.00000000</i>
    <separator name="electronic convergence detail" >
     <i type="logical" name="LDIAG"> T  </i>
     <i type="logical" name="LSUBROT"> T  </i>
     <i name="WEIMIN">      0.00000000</i>
     <i name="EBREAK">      0.00000003</i>
     <i name="DEPER">      0.30000000</i>
     <i type="int" name="NRMM">     4</i>
     <i name="TIME">      0.40000000</i>
    </separator>
   </separator>
   <separator name="electronic mixer" >
    <i name="AMIX">      0.40000000</i>
    <i name="BMIX">      1.00000000</i>
    <i name="AMIN">      0.10000000</i>
    <i name="AMIX_MAG">      1.60000000</i>
    <i name="BMIX_MAG">      1.00000000</i>
    <separator name="electronic mixer details" >
     <i type="int" name="IMIX">     4</i>
     <i type="int" name="MAXMIX">   -45</i>
     <i name="WC">    100.00000000</i>
     <i type="int" name="INIMIX">     1</i>
     <i type="int" name="MIXPRE">     1</i>
     <i type="int" name="MREMOVE">     5</i>
    </separator>
   </separator>
   <separator name="electronic dipolcorrection" >
    <i type="logical" name="LDIPOL"> F  </i>
    <i type="logical" name="LMONO"> F  </i>
    <i type="int" name="IDIPOL">     0</i>
    <i name="EPSILON">      1.00000000</i>
    <v name="DIPOL">   -100.00000000   -100.00000000   -100.00000000</v>
    <i name="EFIELD">      0.00000000</i>
   </separator>
  </separator>
  <separator name="grids" >
   <i type="int" name="NGX">    32</i>
   <i type="int" name="NGY">    32</i>
   <i type="int" name="NGZ">    32</i>
   <i type="int" name="NGXF">    64</i>
   <i type="int" name="NGYF">    64</i>
   <i type="int" name="NGZF">    64</i>
   <i type="logical" name="ADDGRID"> F  </i>
  </separator>
  <separator name="ionic" >
   <i type="int" name="NSW">     0</i>
   <i type="int" name="IBRION">    -1</i>
   <i type="int" name="ISIF">     0</i>
   <i name="PSTRESS">      0.00000000</i>
   <i name="EDIFFG">      0.00010000</i>
   <i type="int" name="NFREE">     0</i>
   <i name="POTIM">      0.50000000</i>
   <i name="SMASS">     -3.00000000</i>
   <i name="SCALEE">      1.00000000</i>
  </separator>
  <separator name="ionic md" >
   <i name="TEBEG">      0.00010000</i>
   <i name="TEEND">      0.00010000</i>
   <i type="int" name="NBLOCK">     1</i>
   <i type="int" name="KBLOCK">     1</i>
   <i type="int" name="NPACO">   256</i>
   <i name="APACO">     16.00000000</i>
  </separator>
  <separator name="symmetry" >
   <i type="int" name="ISYM">     3</i>
   <i name="SYMPREC">      0.00001000</i>
  </separator>
  <separator name="dos" >
   <i type="logical" name="LORBIT"> F  </i>
   <v name="RWIGS">     -1.00000000     -1.00000000     -1.00000000</v>
   <i type="int" name="NEDOS">   301</i>
   <i name="EMIN">     10.00000000</i>
   <i name="EMAX">    -10.00000000</i>
   <i name="EFERMI">      0.00000000</i>
  </separator>
  <separator name="writing" >
   <i type="int" name="NWRITE">     2</i>
   <i type="logical" name="LWAVE"> T  </i>
   <i type="logical" name="LCHARG"> T  </i>
   <i type="logical" name="LPARD"> F  </i>
   <i type="logical" name="LVTOT"> F  </i>
   <i type="logical" name="LVHAR"> F  </i>
   <i type="logical" name="LELF"> F  </i>
   <i type="logical" name="LOPTICS"> F  </i>
   <v name="STM">      0.00000000      0.00000000      0.00000000      0.00000000      0.00000000      0.00000000      0.00000000</v>
  </separator>
  <separator name="performance" >
   <i type="int" name="NPAR">    16</i>
   <i type="int" name="NSIM">     4</i>
   <i type="int" name="NBLK">    -1</i>
   <i type="logical" name="LPLANE"> T  </i>
   <i type="logical" name="LSCALAPACK"> T  </i>
   <i type="logical" name="LSCAAWARE"> F  </i>
   <i type="logical" name="LSCALU"> F  </i>
   <i type="logical" name="LASYNC"> F  </i>
   <i type="logical" name="LORBITALREAL"> F  </i>
  </separator>
  <separator name="miscellaneous" >
   <i type="int" name="IDIOT">     3</i>
   <i type="logical" name="LMUSIC"> F  </i>
   <v name="POMASS">     63.54600000     72.61000000     32.06600000</v>
   <v name="DARWINR">      0.00000000      0.00000000      0.00000000</v>
   <v name="DARWINV">      1.00000000      1.00000000      1.00000000</v>
   <i type="logical" name="LCORR"> T  </i>
  </separator>
  <i type="logical" name="GGA_COMPAT"> T  </i>
  <i type="logical" name="LBERRY"> F  </i>
  <i type="int" name="ICORELEVEL">     0</i>
  <i type="logical" name="LDAU"> F  </i>
  <i type="int" name="I_CONSTRAINED_M">     0</i>
  <separator name="electronic exchange-correlation" >
   <i type="string" name="GGA">PE</i>
   <i type="int" name="VOSKOWN">     0</i>
   <i type="logical" name="LHFCALC"> T  </i>
   <i type="string" name="PRECFOCK">fast</i>
   <i type="logical" name="LSYMGRAD"> F  </i>
   <i type="logical" name="LHFONE"> F  </i>
   <i type="logical" name="LRHFCALC"> F  </i>
   <i type="logical" name="LTHOMAS"> F  </i>
   <i type="logical" name="LMODELHF"> F  </i>
   <i name="ENCUT4O">     -1.00000000</i>
   <i type="int" name="EXXOEP">     0</i>
   <i type="int" name="FOURORBIT">     0</i>
   <i name="AEXX">      0.25000000</i>
   <i name="HFALPHA">     -1.00000000</i>
   <i name="MCALPHA">      0.00000000</i>
   <i name="ALDAX">      0.75000000</i>
   <i name="AGGAX">      0.75000000</i>
   <i name="ALDAC">      1.00000000</i>
   <i name="AGGAC">      1.00000000</i>
   <i type="int" name="NKREDX">     1</i>
   <i type="int" name="NKREDY">     1</i>
   <i type="int" name="NKREDZ">     1</i>
   <i type="logical" name="SHIFTRED"> F  </i>
   <i type="logical" name="ODDONLY"> F  </i>
   <i type="logical" name="EVENONLY"> F  </i>
   <i type="int" name="LMAXFOCK">     4</i>
   <i type="int" name="NMAXFOCKAE">     1</i>
   <i type="logical" name="LFOCKAEDFT"> F  </i>
   <i name="HFSCREEN">      0.20000000</i>
   <i name="HFSCREENC">      0.20000000</i>
   <i type="int" name="NBANDSGWLOW">     1</i>
  </separator>
  <separator name="vdW DFT" >
   <i type="logical" name="LUSE_VDW"> F  </i>
   <i name="Zab_VDW">     -0.84910000</i>
   <i name="PARAM1">      0.12340000</i>
   <i name="PARAM2">      1.00000000</i>
   <i name="PARAM3">      0.00000000</i>
  </separator>
  <separator name="model GW" >
   <i type="int" name="MODEL_GW">     0</i>
   <i name="MODEL_EPS0">     11.09505304</i>
   <i name="MODEL_ALPHA">      1.00000000</i>
  </separator>
  <separator name="linear response parameters" >
   <i type="logical" name="LEPSILON"> F  </i>
   <i type="logical" name="LRPA"> F  </i>
   <i type="logical" name="LNABLA"> F  </i>
   <i type="logical" name="LVEL"> F  </i>
   <i type="int" name="KINTER">     0</i>
   <i name="CSHIFT">      0.10000000</i>
   <i name="OMEGAMAX">     -1.00000000</i>
   <i name="DEG_THRESHOLD">      0.00200000</i>
  </separator>
  <separator name="orbital magnetization" >
   <i type="logical" name="NUCIND"> F  </i>
   <v name="MAGPOS">      0.00000000      0.00000000      0.00000000</v>
   <i type="logical" name="LNICSALL"> T  </i>
   <i type="logical" name="ORBITALMAG"> F  </i>
   <i type="logical" name="LMAGBLOCH"> F  </i>
   <i type="logical" name="LCHIMAG"> F  </i>
   <i type="logical" name="LGAUGE"> T  </i>
   <i type="int" name="MAGATOM">     0</i>
   <v name="MAGDIPOL">      0.00000000      0.00000000      0.00000000</v>
   <v name="AVECCONST">      0.00000000      0.00000000      0.00000000</v>
  </separator>
  <separator name="response functions" >
   <i type="logical" name="LADDER"> F  </i>
   <i type="logical" name="LFXC"> F  </i>
   <i type="logical" name="LHARTREE"> T  </i>
   <i type="int" name="IBSE">     0</i>
   <i type="logical" name="LTCTE"> F  </i>
   <i type="logical" name="LTETE"> F  </i>
   <i type="logical" name="LTRIPLET"> F  </i>
   <i type="logical" name="LFXCEPS"> F  </i>
   <i type="logical" name="L2ORDER"> F  </i>
   <i type="logical" name="LUSEW"> F  </i>
   <i name="ENCUTGW">     -2.00000000</i>
   <i name="ENCUTGWSOFT">     -2.00000000</i>
   <i name="ENCUTLF">     -1.00000000</i>
   <i type="int" name="LMAXMP2">    -1</i>
   <i name="SCISSOR">      0.00000000</i>
   <i type="int" name="NOMEGA">     0</i>
   <i type="int" name="NOMEGAR">     0</i>
   <i type="int" name="NBANDSGW">    -1</i>
   <i type="int" name="NBANDSO">    -1</i>
   <i type="int" name="NBANDSV">    -1</i>
   <i type="int" name="NELM">     1</i>
   <i type="int" name="DIM">     3</i>
   <i type="int" name="ANTIRES">     0</i>
   <i name="OMEGAMAX">    -30.00000000</i>
   <i name="OMEGATL">   -200.00000000</i>
   <i type="int" name="OMEGAGRID">     0</i>
   <i name="CSHIFT">     -0.10000000</i>
   <i type="logical" name="SELFENERGY"> F  </i>
   <i type="logical" name="LSPECTRAL"> F  </i>
   <i type="logical" name="ODDONLYGW"> F  </i>
   <i type="logical" name="EVENONLYGW"> F  </i>
   <i type="int" name="NKREDLFX">     1</i>
   <i type="int" name="NKREDLFY">     1</i>
   <i type="int" name="NKREDLFZ">     1</i>
   <i type="int" name="MAXMEM">  1800</i>
   <i type="int" name="TELESCOPE">     0</i>
  </separator>
 </parameters>
 <atominfo>
  <atoms>      12 </atoms>
  <types>       3 </types>
  <array name="atoms" >
   <dimension dim="1">ion</dimension>
   <field type="string">element</field>
   <field type="int">atomtype</field>
   <set>
    <rc><c>Cu</c><c>   1</c></rc>
    <rc><c>Cu</c><c>   1</c></rc>
    <rc><c>Cu</c><c>   1</c></rc>
    <rc><c>Cu</c><c>   1</c></rc>
    <rc><c>Ge</c><c>   2</c></rc>
    <rc><c>Ge</c><c>   2</c></rc>
    <rc><c>S </c><c>   3</c></rc>
    <rc><c>S </c><c>   3</c></rc>
    <rc><c>S </c><c>   3</c></rc>
    <rc><c>S </c><c>   3</c></rc>
    <rc><c>S </c><c>   3</c></rc>
    <rc><c>S </c><c>   3</c></rc>
   </set>
  </array>
  <array name="atomtypes" >
   <dimension dim="1">type</dimension>
   <field type="int">atomspertype</field>
   <field type="string">element</field>
   <field>mass</field>
   <field>valence</field>
   <field type="string">pseudopotential</field>
   <set>
    <rc><c>   4</c><c>Cu</c><c>     63.54600000</c><c>     17.00000000</c><c>  PAW_PBE Cu_pv 06Sep2000               </c></rc>
    <rc><c>   2</c><c>Ge</c><c>     72.61000000</c><c>      4.00000000</c><c>  PAW_PBE Ge 05Jan2001                  </c></rc>
    <rc><c>   6</c><c>S </c><c>     32.06600000</c><c>      6.00000000</c><c>  PAW_PBE S 17Jan2003                   </c></rc>
   </set>
  </array>
 </atominfo>
 <structure name="initialpos" >
  <crystal>
   <varray name="basis" >
    <v>       3.22479600      -5.64383000       0.03157200 </v>
    <v>       3.22479600       5.64383000       0.03157200 </v>
    <v>      -2.10194600       0.00000000       6.07553700 </v>
   </varray>
   <i name="volume">    221.90106089 </i>
   <varray name="rec_basis" >
    <v>       0.15452516      -0.08859232       0.05346088 </v>
    <v>       0.15452516       0.08859232       0.05346088 </v>
    <v>      -0.00160600       0.00000000       0.16403888 </v>
   </varray>
  </crystal>
  <varray name="positions" >
   <v>       0.61844300       0.12117100       0.11953300 </v>
   <v>       0.12117100       0.61844300       0.61953300 </v>
   <v>       0.96449540       0.79032200       0.11881300 </v>
   <v>       0.79032200       0.96295700       0.61881300 </v>
   <v>       0.43973200       0.26728100       0.59904700 </v>
   <v>       0.26728100       0.43973200       0.09904700 </v>
   <v>       0.07949800       0.91167500       0.49736300 </v>
   <v>       0.57140300       0.41236400       0.98018400 </v>
   <v>       0.73711100       0.25006200       0.49504900 </v>
   <v>       0.41236400       0.57140300       0.48018400 </v>
   <v>       0.91167500       0.07949800       0.99736300 </v>
   <v>       0.25006200       0.73711100       0.99504900 </v>
  </varray>
 </structure>
 <calculation>
  <scstep>
   <time name="total">  266.44  266.26</time>
   <energy>
    <i name="alphaZ">    339.31929130 </i>
    <i name="ewald">  -9064.36911385 </i>
    <i name="hartreedc">  -8067.14404970 </i>
    <i name="XCdc">    369.89304134 </i>
    <i name="pawpsdc">  16956.67246735 </i>
    <i name="pawaedc"> -17449.41390074 </i>
    <i name="eentropy">     -0.00146895 </i>
    <i name="bandstr">  -1657.66488307 </i>
    <i name="atom">  18320.98302006 </i>
    <i name="e_fr_energy">     75.71520797 </i>
    <i name="e_wo_entrp">     75.71667692 </i>
    <i name="e_0_energy">     75.71569762 </i>
   </energy>
  </scstep>
  <scstep>
   <time name="total">  274.56  274.42</time>
   <energy>
    <i name="e_fr_energy">     -8.22540945 </i>
    <i name="e_wo_entrp">     -8.22408724 </i>
    <i name="e_0_energy">     -8.22496871 </i>
   </energy>
  </scstep>
  <scstep>
   <time name="total">  274.78  274.61</time>
   <energy>
    <i name="e_fr_energy">    -14.96719851 </i>
    <i name="e_wo_entrp">    -14.96747502 </i>
    <i name="e_0_energy">    -14.96729068 </i>
   </energy>
  </scstep>
  <scstep>
   <time name="total">  275.91  275.75</time>
   <energy>
    <i name="e_fr_energy">    -22.44316203 </i>
    <i name="e_wo_entrp">    -22.44353252 </i>
    <i name="e_0_energy">    -22.44328552 </i>
   </energy>
  </scstep>
  <scstep>
   <time name="total">  276.01  275.85</time>
   <energy>
    <i name="e_fr_energy">    -60.79457953 </i>
    <i name="e_wo_entrp">    -60.79521045 </i>
    <i name="e_0_energy">    -60.79478983 </i>
   </energy>
  </scstep>
  <scstep>
   <time name="total">  275.58  275.39</time>
   <energy>
    <i name="e_fr_energy">    -65.90289217 </i>
    <i name="e_wo_entrp">    -65.90357106 </i>
    <i name="e_0_energy">    -65.90311847 </i>
   </energy>
  </scstep>
  <scstep>
   <time name="total">  253.77  253.63</time>
   <energy>
    <i name="e_fr_energy">    -67.45570995 </i>
    <i name="e_wo_entrp">    -67.45615253 </i>
    <i name="e_0_energy">    -67.45585747 </i>
   </energy>
  </scstep>
  <scstep>
   <time name="total">  251.95  251.76</time>
   <energy>
    <i name="e_fr_energy">    -69.08234979 </i>
    <i name="e_wo_entrp">    -69.08307486 </i>
    <i name="e_0_energy">    -69.08259148 </i>
   </energy>
  </scstep>
  <scstep>
   <time name="total">  252.46  252.27</time>
   <energy>
    <i name="e_fr_energy">    -69.39347165 </i>
    <i name="e_wo_entrp">    -69.39432734 </i>
    <i name="e_0_energy">    -69.39375688 </i>
   </energy>
  </scstep>
  <scstep>
   <time name="total">  252.73  252.53</time>
   <energy>
    <i name="e_fr_energy">    -69.49835312 </i>
    <i name="e_wo_entrp">    -69.49907930 </i>
    <i name="e_0_energy">    -69.49859518 </i>
   </energy>
  </scstep>
  <scstep>
   <time name="total">  252.19  252.01</time>
   <energy>
    <i name="e_fr_energy">    -69.56842030 </i>
    <i name="e_wo_entrp">    -69.56902618 </i>
    <i name="e_0_energy">    -69.56862226 </i>
   </energy>
  </scstep>
  <scstep>
   <time name="total">  254.30  254.11</time>
   <energy>
    <i name="e_fr_energy">    -69.58079927 </i>
    <i name="e_wo_entrp">    -69.58135280 </i>
    <i name="e_0_energy">    -69.58098378 </i>
   </energy>
  </scstep>
  <scstep>
   <time name="total">  266.43  266.24</time>
   <energy>
    <i name="e_fr_energy">    -69.59054442 </i>
    <i name="e_wo_entrp">    -69.59108734 </i>
    <i name="e_0_energy">    -69.59072539 </i>
   </energy>
  </scstep>
  <scstep>
   <time name="total">  266.37  266.18</time>
   <energy>
    <i name="e_fr_energy">    -69.59301057 </i>
    <i name="e_wo_entrp">    -69.59357236 </i>
    <i name="e_0_energy">    -69.59319783 </i>
   </energy>
  </scstep>
  <scstep>
   <time name="total">  265.29  265.11</time>
   <energy>
    <i name="e_fr_energy">    -69.59452910 </i>
    <i name="e_wo_entrp">    -69.59510401 </i>
    <i name="e_0_energy">    -69.59472074 </i>
   </energy>
  </scstep>
  <scstep>
   <time name="total">  268.12  267.93</time>
   <energy>
    <i name="e_fr_energy">    -69.59510435 </i>
    <i name="e_wo_entrp">    -69.59567980 </i>
    <i name="e_0_energy">    -69.59529617 </i>
   </energy>
  </scstep>
  <scstep>
   <time name="total">  268.57  268.37</time>
   <energy>
    <i name="e_fr_energy">    -69.59527858 </i>
    <i name="e_wo_entrp">    -69.59585078 </i>
    <i name="e_0_energy">    -69.59546932 </i>
   </energy>
  </scstep>
  <scstep>
   <time name="total">  267.74  267.53</time>
   <energy>
    <i name="e_fr_energy">    -69.59539646 </i>
    <i name="e_wo_entrp">    -69.59596561 </i>
    <i name="e_0_energy">    -69.59558618 </i>
   </energy>
  </scstep>
  <scstep>
   <time name="total">  268.25  268.04</time>
   <energy>
    <i name="e_fr_energy">    -69.59542552 </i>
    <i name="e_wo_entrp">    -69.59599338 </i>
    <i name="e_0_energy">    -69.59561481 </i>
   </energy>
  </scstep>
  <scstep>
   <time name="total">  267.47  267.27</time>
   <energy>
    <i name="e_fr_energy">    -69.59544543 </i>
    <i name="e_wo_entrp">    -69.59601376 </i>
    <i name="e_0_energy">    -69.59563487 </i>
   </energy>
  </scstep>
  <scstep>
   <time name="total">  267.97  267.76</time>
   <energy>
    <i name="alphaZ">    339.31929130 </i>
    <i name="ewald">  -9064.36911385 </i>
    <i name="hartreedc">  -8149.74896297 </i>
    <i name="XCdc">    372.06834278 </i>
    <i name="pawpsdc">  15921.96184954 </i>
    <i name="pawaedc"> -16407.15391022 </i>
    <i name="eentropy">      0.00056894 </i>
    <i name="bandstr">  -1742.72238713 </i>
    <i name="atom">  18320.98302006 </i>
    <i name="e_fr_energy">    -69.59545286 </i>
    <i name="e_wo_entrp">    -69.59602180 </i>
    <i name="e_0_energy">    -69.59564251 </i>
   </energy>
  </scstep>
  <structure>
   <crystal>
    <varray name="basis" >
     <v>       3.22479600      -5.64383000       0.03157200 </v>
     <v>       3.22479600       5.64383000       0.03157200 </v>
     <v>      -2.10194600       0.00000000       6.07553700 </v>
    </varray>
    <i name="volume">    221.90106089 </i>
    <varray name="rec_basis" >
     <v>       0.15452516      -0.08859232       0.05346088 </v>
     <v>       0.15452516       0.08859232       0.05346088 </v>
     <v>      -0.00160600       0.00000000       0.16403888 </v>
    </varray>
   </crystal>
   <varray name="positions" >
    <v>       0.61844300       0.12117100       0.11953300 </v>
    <v>       0.12117100       0.61844300       0.61953300 </v>
    <v>       0.96449540       0.79032200       0.11881300 </v>
    <v>       0.79032200       0.96295700       0.61881300 </v>
    <v>       0.43973200       0.26728100       0.59904700 </v>
    <v>       0.26728100       0.43973200       0.09904700 </v>
    <v>       0.07949800       0.91167500       0.49736300 </v>
    <v>       0.57140300       0.41236400       0.98018400 </v>
    <v>       0.73711100       0.25006200       0.49504900 </v>
    <v>       0.41236400       0.57140300       0.48018400 </v>
    <v>       0.91167500       0.07949800       0.99736300 </v>
    <v>       0.25006200       0.73711100       0.99504900 </v>
   </varray>
  </structure>
  <varray name="forces" >
   <v>      -0.00008592      -0.00269745       0.00022559 </v>
   <v>      -0.00230769       0.00037664      -0.00136727 </v>
   <v>      -0.01724221       0.05157855       0.00583327 </v>
   <v>       0.00343010      -0.00118743       0.00091575 </v>
   <v>      -0.00038172       0.00519861       0.00495634 </v>
   <v>      -0.00338331      -0.01409410       0.00110707 </v>
   <v>       0.00309594       0.00184498      -0.00280310 </v>
   <v>       0.00663404      -0.00528945       0.00006302 </v>
   <v>      -0.00165615       0.00140207      -0.00153050 </v>
   <v>       0.00069415       0.00618705       0.00093465 </v>
   <v>      -0.00375727      -0.01756105       0.00518201 </v>
   <v>       0.01496005      -0.02575844      -0.01351684 </v>
  </varray>
  <energy>
   <i name="e_fr_energy">    -69.59545286 </i>
   <i name="e_wo_entrp">    -69.59564251 </i>
   <i name="e_0_energy">      0.00056894 </i>
  </energy>
  <time name="totalsc"> 6067.33 6066.97</time>
  <eigenvalues>
   <array>
    <dimension dim="1">band</dimension>
    <dimension dim="2">kpoint</dimension>
    <dimension dim="3">spin</dimension>
    <field>eigene</field>
    <field>occ</field>
    <set>
     <set comment="spin 1">
      <set comment="kpoint 1">
       <r>  -68.6461    1.0000 </r>
       <r>  -68.6456    1.0000 </r>
       <r>  -68.6329    1.0000 </r>
       <r>  -68.6320    1.0000 </r>
       <r>  -68.6142    1.0000 </r>
       <r>  -68.6137    1.0000 </r>
       <r>  -68.5967    1.0000 </r>
       <r>  -68.5964    1.0000 </r>
       <r>  -68.5770    1.0000 </r>
       <r>  -68.5757    1.0000 </r>
       <r>  -68.5603    1.0000 </r>
       <r>  -68.5604    1.0000 </r>
       <r>  -12.7204    1.0000 </r>
       <r>  -11.1305    1.0000 </r>
       <r>  -10.9155    1.0000 </r>
       <r>  -10.6029    1.0000 </r>
       <r>  -10.2525    1.0000 </r>
       <r>  -10.2364    1.0000 </r>
       <r>   -5.9847    1.0000 </r>
       <r>   -4.9826    1.0000 </r>
       <r>   -2.7616    1.0000 </r>
       <r>   -2.2088    1.0000 </r>
       <r>   -2.0693    1.0000 </r>
       <r>   -1.9227    1.0000 </r>
       <r>   -1.5759    1.0000 </r>
       <r>   -0.9884    1.0000 </r>
       <r>   -0.9480    1.0000 </r>
       <r>   -0.6810    1.0000 </r>
       <r>   -0.4023    1.0000 </r>
       <r>   -0.2767    1.0000 </r>
       <r>   -0.2603    1.0000 </r>
       <r>   -0.2330    1.0000 </r>
       <r>   -0.1890    1.0000 </r>
       <r>   -0.1555    1.0000 </r>
       <r>   -0.0457    1.0000 </r>
       <r>    0.0349    1.0000 </r>
       <r>    1.3495    1.0000 </r>
       <r>    1.3632    1.0000 </r>
       <r>    1.4150    1.0000 </r>
       <r>    1.4578    1.0000 </r>
       <r>    1.4724    1.0000 </r>
       <r>    1.4733    1.0000 </r>
       <r>    1.5208    1.0000 </r>
       <r>    1.5322    1.0000 </r>
       <r>    1.5745    1.0000 </r>
       <r>    1.7106    1.0000 </r>
       <r>    1.8916    1.0000 </r>
       <r>    1.9280    1.0000 </r>
       <r>    2.0582    1.0000 </r>
       <r>    2.6527    1.0000 </r>
       <r>    2.7255    1.0000 </r>
       <r>    3.0899    1.0000 </r>
       <r>    3.2197    1.0000 </r>
       <r>    4.0070    1.0050 </r>
       <r>    4.0369    1.0129 </r>
       <r>    4.1725    0.8607 </r>
       <r>    5.5385   -0.0000 </r>
       <r>    6.3581   -0.0000 </r>
       <r>    7.6313    0.0000 </r>
       <r>    7.9871    0.0000 </r>
       <r>    8.6167    0.0000 </r>
       <r>    8.7929    0.0000 </r>
       <r>    9.5715    0.0000 </r>
       <r>    9.7391    0.0000 </r>
       <r>    9.8146    0.0000 </r>
       <r>   10.4212    0.0000 </r>
       <r>   10.5781    0.0000 </r>
       <r>   10.6943    0.0000 </r>
       <r>   10.7182    0.0000 </r>
       <r>   11.2845    0.0000 </r>
       <r>   11.7121    0.0000 </r>
       <r>   12.3910    0.0000 </r>
       <r>   12.4519    0.0000 </r>
       <r>   12.7256    0.0000 </r>
       <r>   13.3229    0.0000 </r>
       <r>   13.3824    0.0000 </r>
       <r>   13.8327    0.0000 </r>
       <r>   13.8833    0.0000 </r>
       <r>   14.1468    0.0000 </r>
       <r>   14.1796    0.0000 </r>
      </set>
      <set comment="kpoint 2">
       <r>  -68.6461    1.0000 </r>
       <r>  -68.6456    1.0000 </r>
       <r>  -68.6328    1.0000 </r>
       <r>  -68.6320    1.0000 </r>
       <r>  -68.6141    1.0000 </r>
       <r>  -68.6136    1.0000 </r>
       <r>  -68.5967    1.0000 </r>
       <r>  -68.5964    1.0000 </r>
       <r>  -68.5769    1.0000 </r>
       <r>  -68.5756    1.0000 </r>
       <r>  -68.5602    1.0000 </r>
       <r>  -68.5604    1.0000 </r>
       <r>  -12.5955    1.0000 </r>
       <r>  -11.1287    1.0000 </r>
       <r>  -10.9800    1.0000 </r>
       <r>  -10.6759    1.0000 </r>
       <r>  -10.3700    1.0000 </r>
       <r>  -10.2773    1.0000 </r>
       <r>   -5.9332    1.0000 </r>
       <r>   -4.7724    1.0000 </r>
       <r>   -2.6470    1.0000 </r>
       <r>   -2.2523    1.0000 </r>
       <r>   -2.0860    1.0000 </r>
       <r>   -1.6877    1.0000 </r>
       <r>   -1.3443    1.0000 </r>
       <r>   -0.9994    1.0000 </r>
       <r>   -0.7661    1.0000 </r>
       <r>   -0.6242    1.0000 </r>
       <r>   -0.5532    1.0000 </r>
       <r>   -0.4397    1.0000 </r>
       <r>   -0.3583    1.0000 </r>
       <r>   -0.2408    1.0000 </r>
       <r>   -0.1951    1.0000 </r>
       <r>   -0.1660    1.0000 </r>
       <r>   -0.0503    1.0000 </r>
       <r>    0.0402    1.0000 </r>
       <r>    1.2797    1.0000 </r>
       <r>    1.3357    1.0000 </r>
       <r>    1.3557    1.0000 </r>
       <r>    1.3919    1.0000 </r>
       <r>    1.4276    1.0000 </r>
       <r>    1.4718    1.0000 </r>
       <r>    1.4984    1.0000 </r>
       <r>    1.5305    1.0000 </r>
       <r>    1.7242    1.0000 </r>
       <r>    1.8581    1.0000 </r>
       <r>    2.0572    1.0000 </r>
       <r>    2.0938    1.0000 </r>
       <r>    2.2309    1.0000 </r>
       <r>    2.4118    1.0000 </r>
       <r>    2.5558    1.0000 </r>
       <r>    2.8273    1.0000 </r>
       <r>    2.9483    1.0000 </r>
       <r>    3.2432    1.0000 </r>
       <r>    3.6622    1.0000 </r>
       <r>    4.0399    1.0141 </r>
       <r>    6.1706   -0.0000 </r>
       <r>    6.9057   -0.0000 </r>
       <r>    8.1381    0.0000 </r>
       <r>    8.2680    0.0000 </r>
       <r>    8.5946    0.0000 </r>
       <r>    9.0145    0.0000 </r>
       <r>    9.2426    0.0000 </r>
       <r>    9.5320    0.0000 </r>
       <r>    9.8650    0.0000 </r>
       <r>   10.3767    0.0000 </r>
       <r>   10.6345    0.0000 </r>
       <r>   10.8138    0.0000 </r>
       <r>   10.9380    0.0000 </r>
       <r>   11.1902    0.0000 </r>
       <r>   11.6540    0.0000 </r>
       <r>   11.7673    0.0000 </r>
       <r>   12.1180    0.0000 </r>
       <r>   12.4439    0.0000 </r>
       <r>   12.6186    0.0000 </r>
       <r>   13.0092    0.0000 </r>
       <r>   13.5074    0.0000 </r>
       <r>   13.8758    0.0000 </r>
       <r>   14.2119    0.0000 </r>
       <r>   14.7099    0.0000 </r>
      </set>
      <set comment="kpoint 3">
       <r>  -68.6460    1.0000 </r>
       <r>  -68.6454    1.0000 </r>
       <r>  -68.6328    1.0000 </r>
       <r>  -68.6319    1.0000 </r>
       <r>  -68.6141    1.0000 </r>
       <r>  -68.6136    1.0000 </r>
       <r>  -68.5966    1.0000 </r>
       <r>  -68.5963    1.0000 </r>
       <r>  -68.5769    1.0000 </r>
       <r>  -68.5755    1.0000 </r>
       <r>  -68.5602    1.0000 </r>
       <r>  -68.5602    1.0000 </r>
       <r>  -12.4362    1.0000 </r>
       <r>  -11.2496    1.0000 </r>
       <r>  -10.9546    1.0000 </r>
       <r>  -10.7636    1.0000 </r>
       <r>  -10.4329    1.0000 </r>
       <r>  -10.3566    1.0000 </r>
       <r>   -5.8711    1.0000 </r>
       <r>   -4.5477    1.0000 </r>
       <r>   -2.4955    1.0000 </r>
       <r>   -2.2452    1.0000 </r>
       <r>   -1.9423    1.0000 </r>
       <r>   -1.4646    1.0000 </r>
       <r>   -1.2242    1.0000 </r>
       <r>   -1.1009    1.0000 </r>
       <r>   -0.9026    1.0000 </r>
       <r>   -0.8645    1.0000 </r>
       <r>   -0.5988    1.0000 </r>
       <r>   -0.5370    1.0000 </r>
       <r>   -0.2714    1.0000 </r>
       <r>   -0.2045    1.0000 </r>
       <r>   -0.2023    1.0000 </r>
       <r>   -0.1459    1.0000 </r>
       <r>   -0.0302    1.0000 </r>
       <r>    0.0791    1.0000 </r>
       <r>    1.2549    1.0000 </r>
       <r>    1.3287    1.0000 </r>
       <r>    1.3472    1.0000 </r>
       <r>    1.3961    1.0000 </r>
       <r>    1.4709    1.0000 </r>
       <r>    1.4794    1.0000 </r>
       <r>    1.5005    1.0000 </r>
       <r>    1.5535    1.0000 </r>
       <r>    1.7523    1.0000 </r>
       <r>    1.7899    1.0000 </r>
       <r>    1.9672    1.0000 </r>
       <r>    2.1464    1.0000 </r>
       <r>    2.3199    1.0000 </r>
       <r>    2.3632    1.0000 </r>
       <r>    2.5530    1.0000 </r>
       <r>    2.6696    1.0000 </r>
       <r>    2.9400    1.0000 </r>
       <r>    3.0815    1.0000 </r>
       <r>    3.2498    1.0000 </r>
       <r>    3.8618    1.0000 </r>
       <r>    6.3853   -0.0000 </r>
       <r>    7.0970    0.0000 </r>
       <r>    7.9807    0.0000 </r>
       <r>    8.2037    0.0000 </r>
       <r>    8.5172    0.0000 </r>
       <r>    8.8214    0.0000 </r>
       <r>    9.3286    0.0000 </r>
       <r>    9.8883    0.0000 </r>
       <r>   10.0109    0.0000 </r>
       <r>   10.5183    0.0000 </r>
       <r>   10.6906    0.0000 </r>
       <r>   10.7934    0.0000 </r>
       <r>   11.1426    0.0000 </r>
       <r>   11.4085    0.0000 </r>
       <r>   11.6098    0.0000 </r>
       <r>   11.7756    0.0000 </r>
       <r>   11.9432    0.0000 </r>
       <r>   12.5023    0.0000 </r>
       <r>   12.7796    0.0000 </r>
       <r>   12.9992    0.0000 </r>
       <r>   13.3986    0.0000 </r>
       <r>   13.5421    0.0000 </r>
       <r>   13.9398    0.0000 </r>
       <r>   14.2699    0.0000 </r>
      </set>
      <set comment="kpoint 4">
       <r>  -68.6461    1.0000 </r>
       <r>  -68.6456    1.0000 </r>
       <r>  -68.6328    1.0000 </r>
       <r>  -68.6319    1.0000 </r>
       <r>  -68.6141    1.0000 </r>
       <r>  -68.6136    1.0000 </r>
       <r>  -68.5967    1.0000 </r>
       <r>  -68.5964    1.0000 </r>
       <r>  -68.5769    1.0000 </r>
       <r>  -68.5756    1.0000 </r>
       <r>  -68.5603    1.0000 </r>
       <r>  -68.5604    1.0000 </r>
       <r>  -12.5953    1.0000 </r>
       <r>  -11.1292    1.0000 </r>
       <r>  -10.9814    1.0000 </r>
       <r>  -10.6737    1.0000 </r>
       <r>  -10.3684    1.0000 </r>
       <r>  -10.2795    1.0000 </r>
       <r>   -5.9332    1.0000 </r>
       <r>   -4.7722    1.0000 </r>
       <r>   -2.6466    1.0000 </r>
       <r>   -2.2521    1.0000 </r>
       <r>   -2.0864    1.0000 </r>
       <r>   -1.6874    1.0000 </r>
       <r>   -1.3469    1.0000 </r>
       <r>   -0.9996    1.0000 </r>
       <r>   -0.7664    1.0000 </r>
       <r>   -0.6226    1.0000 </r>
       <r>   -0.5488    1.0000 </r>
       <r>   -0.4377    1.0000 </r>
       <r>   -0.3609    1.0000 </r>
       <r>   -0.2422    1.0000 </r>
       <r>   -0.1947    1.0000 </r>
       <r>   -0.1685    1.0000 </r>
       <r>   -0.0507    1.0000 </r>
       <r>    0.0410    1.0000 </r>
       <r>    1.2786    1.0000 </r>
       <r>    1.3372    1.0000 </r>
       <r>    1.3544    1.0000 </r>
       <r>    1.3924    1.0000 </r>
       <r>    1.4275    1.0000 </r>
       <r>    1.4721    1.0000 </r>
       <r>    1.4983    1.0000 </r>
       <r>    1.5310    1.0000 </r>
       <r>    1.7248    1.0000 </r>
       <r>    1.8584    1.0000 </r>
       <r>    2.0563    1.0000 </r>
       <r>    2.0929    1.0000 </r>
       <r>    2.2315    1.0000 </r>
       <r>    2.4120    1.0000 </r>
       <r>    2.5565    1.0000 </r>
       <r>    2.8244    1.0000 </r>
       <r>    2.9486    1.0000 </r>
       <r>    3.2424    1.0000 </r>
       <r>    3.6640    1.0000 </r>
       <r>    4.0412    1.0146 </r>
       <r>    6.1703   -0.0000 </r>
       <r>    6.9070   -0.0000 </r>
       <r>    8.1385    0.0000 </r>
       <r>    8.2681    0.0000 </r>
       <r>    8.5945    0.0000 </r>
       <r>    9.0130    0.0000 </r>
       <r>    9.2425    0.0000 </r>
       <r>    9.5319    0.0000 </r>
       <r>    9.8643    0.0000 </r>
       <r>   10.3759    0.0000 </r>
       <r>   10.6321    0.0000 </r>
       <r>   10.8142    0.0000 </r>
       <r>   10.9391    0.0000 </r>
       <r>   11.1908    0.0000 </r>
       <r>   11.6544    0.0000 </r>
       <r>   11.7713    0.0000 </r>
       <r>   12.1165    0.0000 </r>
       <r>   12.4425    0.0000 </r>
       <r>   12.6186    0.0000 </r>
       <r>   13.0082    0.0000 </r>
       <r>   13.5179    0.0000 </r>
       <r>   13.9031    0.0000 </r>
       <r>   14.2719    0.0000 </r>
       <r>   14.8397    0.0000 </r>
      </set>
      <set comment="kpoint 5">
       <r>  -68.6461    1.0000 </r>
       <r>  -68.6456    1.0000 </r>
       <r>  -68.6327    1.0000 </r>
       <r>  -68.6318    1.0000 </r>
       <r>  -68.6143    1.0000 </r>
       <r>  -68.6137    1.0000 </r>
       <r>  -68.5966    1.0000 </r>
       <r>  -68.5962    1.0000 </r>
       <r>  -68.5771    1.0000 </r>
       <r>  -68.5757    1.0000 </r>
       <r>  -68.5603    1.0000 </r>
       <r>  -68.5604    1.0000 </r>
       <r>  -12.4398    1.0000 </r>
       <r>  -11.1926    1.0000 </r>
       <r>  -10.9415    1.0000 </r>
       <r>  -10.8758    1.0000 </r>
       <r>  -10.3910    1.0000 </r>
       <r>  -10.3537    1.0000 </r>
       <r>   -5.8761    1.0000 </r>
       <r>   -4.5208    1.0000 </r>
       <r>   -2.4188    1.0000 </r>
       <r>   -2.2462    1.0000 </r>
       <r>   -1.7909    1.0000 </r>
       <r>   -1.6806    1.0000 </r>
       <r>   -1.3560    1.0000 </r>
       <r>   -1.2979    1.0000 </r>
       <r>   -1.0803    1.0000 </r>
       <r>   -0.6804    1.0000 </r>
       <r>   -0.5251    1.0000 </r>
       <r>   -0.2970    1.0000 </r>
       <r>   -0.2804    1.0000 </r>
       <r>   -0.2265    1.0000 </r>
       <r>   -0.1859    1.0000 </r>
       <r>   -0.1302    1.0000 </r>
       <r>   -0.0930    1.0000 </r>
       <r>    0.0807    1.0000 </r>
       <r>    1.2938    1.0000 </r>
       <r>    1.3114    1.0000 </r>
       <r>    1.4149    1.0000 </r>
       <r>    1.4265    1.0000 </r>
       <r>    1.4640    1.0000 </r>
       <r>    1.4829    1.0000 </r>
       <r>    1.4962    1.0000 </r>
       <r>    1.5705    1.0000 </r>
       <r>    1.6713    1.0000 </r>
       <r>    1.8805    1.0000 </r>
       <r>    1.9393    1.0000 </r>
       <r>    2.1340    1.0000 </r>
       <r>    2.2782    1.0000 </r>
       <r>    2.3198    1.0000 </r>
       <r>    2.5591    1.0000 </r>
       <r>    2.6517    1.0000 </r>
       <r>    2.9043    1.0000 </r>
       <r>    2.9452    1.0000 </r>
       <r>    3.6988    1.0000 </r>
       <r>    3.8332    1.0000 </r>
       <r>    6.1713   -0.0000 </r>
       <r>    6.9907    0.0000 </r>
       <r>    8.0043    0.0000 </r>
       <r>    8.3278    0.0000 </r>
       <r>    8.4347    0.0000 </r>
       <r>    8.5714    0.0000 </r>
       <r>    9.1471    0.0000 </r>
       <r>    9.2481    0.0000 </r>
       <r>   10.3608    0.0000 </r>
       <r>   10.4947    0.0000 </r>
       <r>   10.9193    0.0000 </r>
       <r>   11.1846    0.0000 </r>
       <r>   11.3297    0.0000 </r>
       <r>   11.5568    0.0000 </r>
       <r>   11.8144    0.0000 </r>
       <r>   11.9629    0.0000 </r>
       <r>   12.3140    0.0000 </r>
       <r>   12.5031    0.0000 </r>
       <r>   12.7097    0.0000 </r>
       <r>   12.9156    0.0000 </r>
       <r>   13.3375    0.0000 </r>
       <r>   13.4479    0.0000 </r>
       <r>   14.2543    0.0000 </r>
       <r>   14.3661    0.0000 </r>
      </set>
      <set comment="kpoint 6">
       <r>  -68.6457    1.0000 </r>
       <r>  -68.6455    1.0000 </r>
       <r>  -68.6328    1.0000 </r>
       <r>  -68.6319    1.0000 </r>
       <r>  -68.6140    1.0000 </r>
       <r>  -68.6136    1.0000 </r>
       <r>  -68.5966    1.0000 </r>
       <r>  -68.5963    1.0000 </r>
       <r>  -68.5768    1.0000 </r>
       <r>  -68.5755    1.0000 </r>
       <r>  -68.5601    1.0000 </r>
       <r>  -68.5604    1.0000 </r>
       <r>  -12.4399    1.0000 </r>
       <r>  -11.3557    1.0000 </r>
       <r>  -10.9359    1.0000 </r>
       <r>  -10.7365    1.0000 </r>
       <r>  -10.3933    1.0000 </r>
       <r>  -10.2713    1.0000 </r>
       <r>   -5.9478    1.0000 </r>
       <r>   -4.6412    1.0000 </r>
       <r>   -2.3928    1.0000 </r>
       <r>   -2.2260    1.0000 </r>
       <r>   -2.0576    1.0000 </r>
       <r>   -1.6392    1.0000 </r>
       <r>   -1.3619    1.0000 </r>
       <r>   -1.2811    1.0000 </r>
       <r>   -1.0230    1.0000 </r>
       <r>   -0.5126    1.0000 </r>
       <r>   -0.4848    1.0000 </r>
       <r>   -0.3288    1.0000 </r>
       <r>   -0.2840    1.0000 </r>
       <r>   -0.2088    1.0000 </r>
       <r>   -0.1494    1.0000 </r>
       <r>   -0.1369    1.0000 </r>
       <r>   -0.0102    1.0000 </r>
       <r>    0.1104    1.0000 </r>
       <r>    1.2467    1.0000 </r>
       <r>    1.3155    1.0000 </r>
       <r>    1.3823    1.0000 </r>
       <r>    1.4366    1.0000 </r>
       <r>    1.4616    1.0000 </r>
       <r>    1.4925    1.0000 </r>
       <r>    1.4975    1.0000 </r>
       <r>    1.5499    1.0000 </r>
       <r>    1.7491    1.0000 </r>
       <r>    1.8268    1.0000 </r>
       <r>    1.9225    1.0000 </r>
       <r>    2.1326    1.0000 </r>
       <r>    2.2203    1.0000 </r>
       <r>    2.3855    1.0000 </r>
       <r>    2.5586    1.0000 </r>
       <r>    2.7915    1.0000 </r>
       <r>    2.9795    1.0000 </r>
       <r>    3.3132    1.0000 </r>
       <r>    3.6040    1.0000 </r>
       <r>    3.7488    1.0000 </r>
       <r>    6.0870   -0.0000 </r>
       <r>    6.9398   -0.0000 </r>
       <r>    7.6116    0.0000 </r>
       <r>    8.0696    0.0000 </r>
       <r>    8.4102    0.0000 </r>
       <r>    8.6168    0.0000 </r>
       <r>    8.9840    0.0000 </r>
       <r>    9.1526    0.0000 </r>
       <r>   10.0870    0.0000 </r>
       <r>   10.3355    0.0000 </r>
       <r>   10.7332    0.0000 </r>
       <r>   11.1077    0.0000 </r>
       <r>   11.4590    0.0000 </r>
       <r>   11.5962    0.0000 </r>
       <r>   11.7972    0.0000 </r>
       <r>   12.0861    0.0000 </r>
       <r>   12.4750    0.0000 </r>
       <r>   12.9177    0.0000 </r>
       <r>   13.0365    0.0000 </r>
       <r>   13.8199    0.0000 </r>
       <r>   14.1942    0.0000 </r>
       <r>   14.6523    0.0000 </r>
       <r>   15.4298    0.0000 </r>
       <r>   15.6438    0.0000 </r>
      </set>
      <set comment="kpoint 7">
       <r>  -68.6461    1.0000 </r>
       <r>  -68.6456    1.0000 </r>
       <r>  -68.6328    1.0000 </r>
       <r>  -68.6319    1.0000 </r>
       <r>  -68.6141    1.0000 </r>
       <r>  -68.6136    1.0000 </r>
       <r>  -68.5967    1.0000 </r>
       <r>  -68.5964    1.0000 </r>
       <r>  -68.5769    1.0000 </r>
       <r>  -68.5755    1.0000 </r>
       <r>  -68.5602    1.0000 </r>
       <r>  -68.5605    1.0000 </r>
       <r>  -12.5981    1.0000 </r>
       <r>  -11.2533    1.0000 </r>
       <r>  -10.9895    1.0000 </r>
       <r>  -10.5677    1.0000 </r>
       <r>  -10.3710    1.0000 </r>
       <r>  -10.1803    1.0000 </r>
       <r>   -6.0101    1.0000 </r>
       <r>   -4.8934    1.0000 </r>
       <r>   -2.6472    1.0000 </r>
       <r>   -2.3140    1.0000 </r>
       <r>   -1.9736    1.0000 </r>
       <r>   -1.6465    1.0000 </r>
       <r>   -1.4927    1.0000 </r>
       <r>   -1.1840    1.0000 </r>
       <r>   -0.7914    1.0000 </r>
       <r>   -0.5826    1.0000 </r>
       <r>   -0.4451    1.0000 </r>
       <r>   -0.3343    1.0000 </r>
       <r>   -0.2937    1.0000 </r>
       <r>   -0.2327    1.0000 </r>
       <r>   -0.1729    1.0000 </r>
       <r>   -0.1311    1.0000 </r>
       <r>   -0.0075    1.0000 </r>
       <r>    0.0679    1.0000 </r>
       <r>    1.2596    1.0000 </r>
       <r>    1.3203    1.0000 </r>
       <r>    1.3645    1.0000 </r>
       <r>    1.4238    1.0000 </r>
       <r>    1.4315    1.0000 </r>
       <r>    1.4760    1.0000 </r>
       <r>    1.5038    1.0000 </r>
       <r>    1.5427    1.0000 </r>
       <r>    1.7242    1.0000 </r>
       <r>    1.8125    1.0000 </r>
       <r>    1.9947    1.0000 </r>
       <r>    2.0716    1.0000 </r>
       <r>    2.4164    1.0000 </r>
       <r>    2.4622    1.0000 </r>
       <r>    2.5272    1.0000 </r>
       <r>    2.8721    1.0000 </r>
       <r>    3.1431    1.0000 </r>
       <r>    3.2298    1.0000 </r>
       <r>    3.7844    1.0000 </r>
       <r>    4.0700    1.0273 </r>
       <r>    5.9794   -0.0000 </r>
       <r>    6.6904   -0.0000 </r>
       <r>    7.5336    0.0000 </r>
       <r>    8.2234    0.0000 </r>
       <r>    8.6176    0.0000 </r>
       <r>    8.9149    0.0000 </r>
       <r>    9.3062    0.0000 </r>
       <r>    9.4323    0.0000 </r>
       <r>    9.8046    0.0000 </r>
       <r>   10.2707    0.0000 </r>
       <r>   10.5437    0.0000 </r>
       <r>   10.8302    0.0000 </r>
       <r>   10.9720    0.0000 </r>
       <r>   11.3801    0.0000 </r>
       <r>   11.4745    0.0000 </r>
       <r>   11.7325    0.0000 </r>
       <r>   12.1022    0.0000 </r>
       <r>   12.6628    0.0000 </r>
       <r>   12.9433    0.0000 </r>
       <r>   13.1017    0.0000 </r>
       <r>   13.3493    0.0000 </r>
       <r>   13.5187    0.0000 </r>
       <r>   14.4766    0.0000 </r>
       <r>   14.7548    0.0000 </r>
      </set>
      <set comment="kpoint 8">
       <r>  -68.6459    1.0000 </r>
       <r>  -68.6454    1.0000 </r>
       <r>  -68.6328    1.0000 </r>
       <r>  -68.6318    1.0000 </r>
       <r>  -68.6141    1.0000 </r>
       <r>  -68.6136    1.0000 </r>
       <r>  -68.5966    1.0000 </r>
       <r>  -68.5963    1.0000 </r>
       <r>  -68.5769    1.0000 </r>
       <r>  -68.5756    1.0000 </r>
       <r>  -68.5601    1.0000 </r>
       <r>  -68.5603    1.0000 </r>
       <r>  -12.4358    1.0000 </r>
       <r>  -11.2522    1.0000 </r>
       <r>  -10.9552    1.0000 </r>
       <r>  -10.7597    1.0000 </r>
       <r>  -10.4294    1.0000 </r>
       <r>  -10.3612    1.0000 </r>
       <r>   -5.8711    1.0000 </r>
       <r>   -4.5473    1.0000 </r>
       <r>   -2.4944    1.0000 </r>
       <r>   -2.2452    1.0000 </r>
       <r>   -1.9451    1.0000 </r>
       <r>   -1.4613    1.0000 </r>
       <r>   -1.2280    1.0000 </r>
       <r>   -1.1001    1.0000 </r>
       <r>   -0.9007    1.0000 </r>
       <r>   -0.8645    1.0000 </r>
       <r>   -0.5990    1.0000 </r>
       <r>   -0.5340    1.0000 </r>
       <r>   -0.2768    1.0000 </r>
       <r>   -0.2075    1.0000 </r>
       <r>   -0.1990    1.0000 </r>
       <r>   -0.1455    1.0000 </r>
       <r>   -0.0320    1.0000 </r>
       <r>    0.0814    1.0000 </r>
       <r>    1.2537    1.0000 </r>
       <r>    1.3278    1.0000 </r>
       <r>    1.3473    1.0000 </r>
       <r>    1.3970    1.0000 </r>
       <r>    1.4715    1.0000 </r>
       <r>    1.4802    1.0000 </r>
       <r>    1.5008    1.0000 </r>
       <r>    1.5535    1.0000 </r>
       <r>    1.7531    1.0000 </r>
       <r>    1.7913    1.0000 </r>
       <r>    1.9685    1.0000 </r>
       <r>    2.1463    1.0000 </r>
       <r>    2.3218    1.0000 </r>
       <r>    2.3588    1.0000 </r>
       <r>    2.5547    1.0000 </r>
       <r>    2.6698    1.0000 </r>
       <r>    2.9370    1.0000 </r>
       <r>    3.0784    1.0000 </r>
       <r>    3.2509    1.0000 </r>
       <r>    3.8641    1.0000 </r>
       <r>    6.3849   -0.0000 </r>
       <r>    7.0991    0.0000 </r>
       <r>    7.9830    0.0000 </r>
       <r>    8.2041    0.0000 </r>
       <r>    8.5189    0.0000 </r>
       <r>    8.8204    0.0000 </r>
       <r>    9.3277    0.0000 </r>
       <r>    9.8870    0.0000 </r>
       <r>   10.0100    0.0000 </r>
       <r>   10.5168    0.0000 </r>
       <r>   10.6909    0.0000 </r>
       <r>   10.7920    0.0000 </r>
       <r>   11.1418    0.0000 </r>
       <r>   11.4108    0.0000 </r>
       <r>   11.6078    0.0000 </r>
       <r>   11.7775    0.0000 </r>
       <r>   11.9397    0.0000 </r>
       <r>   12.5035    0.0000 </r>
       <r>   12.8262    0.0000 </r>
       <r>   13.0317    0.0000 </r>
       <r>   13.5535    0.0000 </r>
       <r>   13.6850    0.0000 </r>
       <r>   14.5526    0.0000 </r>
       <r>   15.2440    0.0000 </r>
      </set>
      <set comment="kpoint 9">
       <r>  -68.6457    1.0000 </r>
       <r>  -68.6455    1.0000 </r>
       <r>  -68.6328    1.0000 </r>
       <r>  -68.6319    1.0000 </r>
       <r>  -68.6140    1.0000 </r>
       <r>  -68.6136    1.0000 </r>
       <r>  -68.5966    1.0000 </r>
       <r>  -68.5964    1.0000 </r>
       <r>  -68.5768    1.0000 </r>
       <r>  -68.5756    1.0000 </r>
       <r>  -68.5602    1.0000 </r>
       <r>  -68.5603    1.0000 </r>
       <r>  -12.4397    1.0000 </r>
       <r>  -11.3566    1.0000 </r>
       <r>  -10.9362    1.0000 </r>
       <r>  -10.7349    1.0000 </r>
       <r>  -10.3930    1.0000 </r>
       <r>  -10.2722    1.0000 </r>
       <r>   -5.9478    1.0000 </r>
       <r>   -4.6411    1.0000 </r>
       <r>   -2.3914    1.0000 </r>
       <r>   -2.2264    1.0000 </r>
       <r>   -2.0586    1.0000 </r>
       <r>   -1.6382    1.0000 </r>
       <r>   -1.3630    1.0000 </r>
       <r>   -1.2830    1.0000 </r>
       <r>   -1.0224    1.0000 </r>
       <r>   -0.5129    1.0000 </r>
       <r>   -0.4808    1.0000 </r>
       <r>   -0.3278    1.0000 </r>
       <r>   -0.2806    1.0000 </r>
       <r>   -0.2141    1.0000 </r>
       <r>   -0.1517    1.0000 </r>
       <r>   -0.1351    1.0000 </r>
       <r>   -0.0118    1.0000 </r>
       <r>    0.1111    1.0000 </r>
       <r>    1.2463    1.0000 </r>
       <r>    1.3152    1.0000 </r>
       <r>    1.3822    1.0000 </r>
       <r>    1.4381    1.0000 </r>
       <r>    1.4616    1.0000 </r>
       <r>    1.4920    1.0000 </r>
       <r>    1.4975    1.0000 </r>
       <r>    1.5495    1.0000 </r>
       <r>    1.7483    1.0000 </r>
       <r>    1.8288    1.0000 </r>
       <r>    1.9207    1.0000 </r>
       <r>    2.1338    1.0000 </r>
       <r>    2.2204    1.0000 </r>
       <r>    2.3829    1.0000 </r>
       <r>    2.5600    1.0000 </r>
       <r>    2.7896    1.0000 </r>
       <r>    2.9807    1.0000 </r>
       <r>    3.3121    1.0000 </r>
       <r>    3.6054    1.0000 </r>
       <r>    3.7505    1.0000 </r>
       <r>    6.0866   -0.0000 </r>
       <r>    6.9404   -0.0000 </r>
       <r>    7.6117    0.0000 </r>
       <r>    8.0689    0.0000 </r>
       <r>    8.4115    0.0000 </r>
       <r>    8.6159    0.0000 </r>
       <r>    8.9835    0.0000 </r>
       <r>    9.1533    0.0000 </r>
       <r>   10.0866    0.0000 </r>
       <r>   10.3364    0.0000 </r>
       <r>   10.7321    0.0000 </r>
       <r>   11.1077    0.0000 </r>
       <r>   11.4551    0.0000 </r>
       <r>   11.5768    0.0000 </r>
       <r>   11.7848    0.0000 </r>
       <r>   12.0327    0.0000 </r>
       <r>   12.5134    0.0000 </r>
       <r>   12.6752    0.0000 </r>
       <r>   12.9182    0.0000 </r>
       <r>   13.2111    0.0000 </r>
       <r>   14.2272    0.0000 </r>
       <r>   14.7754    0.0000 </r>
       <r>   15.2484    0.0000 </r>
       <r>   15.9022    0.0000 </r>
      </set>
      <set comment="kpoint 10">
       <r>  -68.6458    1.0000 </r>
       <r>  -68.6452    1.0000 </r>
       <r>  -68.6326    1.0000 </r>
       <r>  -68.6317    1.0000 </r>
       <r>  -68.6138    1.0000 </r>
       <r>  -68.6136    1.0000 </r>
       <r>  -68.5964    1.0000 </r>
       <r>  -68.5961    1.0000 </r>
       <r>  -68.5768    1.0000 </r>
       <r>  -68.5754    1.0000 </r>
       <r>  -68.5598    1.0000 </r>
       <r>  -68.5602    1.0000 </r>
       <r>  -12.4313    1.0000 </r>
       <r>  -11.5037    1.0000 </r>
       <r>  -10.9111    1.0000 </r>
       <r>  -10.6153    1.0000 </r>
       <r>  -10.4026    1.0000 </r>
       <r>  -10.1994    1.0000 </r>
       <r>   -6.0263    1.0000 </r>
       <r>   -4.8089    1.0000 </r>
       <r>   -2.3097    1.0000 </r>
       <r>   -2.2655    1.0000 </r>
       <r>   -2.0946    1.0000 </r>
       <r>   -1.7043    1.0000 </r>
       <r>   -1.2498    1.0000 </r>
       <r>   -1.1070    1.0000 </r>
       <r>   -0.8423    1.0000 </r>
       <r>   -0.7798    1.0000 </r>
       <r>   -0.7256    1.0000 </r>
       <r>   -0.2418    1.0000 </r>
       <r>   -0.2003    1.0000 </r>
       <r>   -0.1837    1.0000 </r>
       <r>   -0.1487    1.0000 </r>
       <r>   -0.0387    1.0000 </r>
       <r>    0.0001    1.0000 </r>
       <r>    0.1816    1.0000 </r>
       <r>    1.2669    1.0000 </r>
       <r>    1.3174    1.0000 </r>
       <r>    1.3750    1.0000 </r>
       <r>    1.4139    1.0000 </r>
       <r>    1.4333    1.0000 </r>
       <r>    1.4918    1.0000 </r>
       <r>    1.5080    1.0000 </r>
       <r>    1.5490    1.0000 </r>
       <r>    1.7865    1.0000 </r>
       <r>    1.8470    1.0000 </r>
       <r>    1.9944    1.0000 </r>
       <r>    2.1512    1.0000 </r>
       <r>    2.2516    1.0000 </r>
       <r>    2.3363    1.0000 </r>
       <r>    2.5602    1.0000 </r>
       <r>    2.7624    1.0000 </r>
       <r>    2.7736    1.0000 </r>
       <r>    3.3701    1.0000 </r>
       <r>    3.7651    1.0000 </r>
       <r>    4.0084    1.0053 </r>
       <r>    5.8533   -0.0000 </r>
       <r>    6.7684   -0.0000 </r>
       <r>    7.0816    0.0000 </r>
       <r>    8.4130    0.0000 </r>
       <r>    8.5610    0.0000 </r>
       <r>    8.7697    0.0000 </r>
       <r>    9.1418    0.0000 </r>
       <r>    9.2430    0.0000 </r>
       <r>    9.9587    0.0000 </r>
       <r>   10.2865    0.0000 </r>
       <r>   10.7265    0.0000 </r>
       <r>   10.8272    0.0000 </r>
       <r>   10.8766    0.0000 </r>
       <r>   11.2731    0.0000 </r>
       <r>   11.7570    0.0000 </r>
       <r>   11.9143    0.0000 </r>
       <r>   11.9724    0.0000 </r>
       <r>   12.3661    0.0000 </r>
       <r>   12.5401    0.0000 </r>
       <r>   13.4541    0.0000 </r>
       <r>   14.2879    0.0000 </r>
       <r>   14.6744    0.0000 </r>
       <r>   16.7421    0.0000 </r>
       <r>   16.7568    0.0000 </r>
      </set>
      <set comment="kpoint 11">
       <r>  -68.6461    1.0000 </r>
       <r>  -68.6456    1.0000 </r>
       <r>  -68.6328    1.0000 </r>
       <r>  -68.6320    1.0000 </r>
       <r>  -68.6142    1.0000 </r>
       <r>  -68.6136    1.0000 </r>
       <r>  -68.5967    1.0000 </r>
       <r>  -68.5964    1.0000 </r>
       <r>  -68.5770    1.0000 </r>
       <r>  -68.5756    1.0000 </r>
       <r>  -68.5604    1.0000 </r>
       <r>  -68.5604    1.0000 </r>
       <r>  -12.6172    1.0000 </r>
       <r>  -11.4252    1.0000 </r>
       <r>  -10.7779    1.0000 </r>
       <r>  -10.6080    1.0000 </r>
       <r>  -10.2513    1.0000 </r>
       <r>  -10.2384    1.0000 </r>
       <r>   -5.8311    1.0000 </r>
       <r>   -5.0463    1.0000 </r>
       <r>   -2.6011    1.0000 </r>
       <r>   -2.3705    1.0000 </r>
       <r>   -1.9615    1.0000 </r>
       <r>   -1.7757    1.0000 </r>
       <r>   -1.4446    1.0000 </r>
       <r>   -1.1233    1.0000 </r>
       <r>   -1.0660    1.0000 </r>
       <r>   -0.7712    1.0000 </r>
       <r>   -0.4691    1.0000 </r>
       <r>   -0.2919    1.0000 </r>
       <r>   -0.2386    1.0000 </r>
       <r>   -0.2339    1.0000 </r>
       <r>   -0.1918    1.0000 </r>
       <r>   -0.1479    1.0000 </r>
       <r>   -0.0224    1.0000 </r>
       <r>    0.0272    1.0000 </r>
       <r>    1.3327    1.0000 </r>
       <r>    1.3820    1.0000 </r>
       <r>    1.4165    1.0000 </r>
       <r>    1.4394    1.0000 </r>
       <r>    1.4648    1.0000 </r>
       <r>    1.4675    1.0000 </r>
       <r>    1.5149    1.0000 </r>
       <r>    1.5455    1.0000 </r>
       <r>    1.6321    1.0000 </r>
       <r>    1.7588    1.0000 </r>
       <r>    1.7862    1.0000 </r>
       <r>    1.9509    1.0000 </r>
       <r>    2.0877    1.0000 </r>
       <r>    2.6575    1.0000 </r>
       <r>    2.7208    1.0000 </r>
       <r>    3.1942    1.0000 </r>
       <r>    3.2544    1.0000 </r>
       <r>    3.5208    1.0000 </r>
       <r>    3.8952    1.0000 </r>
       <r>    3.9762    1.0015 </r>
       <r>    6.0460   -0.0000 </r>
       <r>    6.4164   -0.0000 </r>
       <r>    7.8249    0.0000 </r>
       <r>    7.9080    0.0000 </r>
       <r>    8.3663    0.0000 </r>
       <r>    8.8197    0.0000 </r>
       <r>    9.7764    0.0000 </r>
       <r>    9.7941    0.0000 </r>
       <r>   10.0616    0.0000 </r>
       <r>   10.5843    0.0000 </r>
       <r>   10.6455    0.0000 </r>
       <r>   10.8168    0.0000 </r>
       <r>   10.8548    0.0000 </r>
       <r>   11.4943    0.0000 </r>
       <r>   11.5574    0.0000 </r>
       <r>   12.0255    0.0000 </r>
       <r>   12.5789    0.0000 </r>
       <r>   12.7744    0.0000 </r>
       <r>   12.9129    0.0000 </r>
       <r>   13.2053    0.0000 </r>
       <r>   13.5351    0.0000 </r>
       <r>   13.8206    0.0000 </r>
       <r>   14.1996    0.0000 </r>
       <r>   14.7025    0.0000 </r>
      </set>
      <set comment="kpoint 12">
       <r>  -68.6461    1.0000 </r>
       <r>  -68.6455    1.0000 </r>
       <r>  -68.6328    1.0000 </r>
       <r>  -68.6319    1.0000 </r>
       <r>  -68.6142    1.0000 </r>
       <r>  -68.6137    1.0000 </r>
       <r>  -68.5967    1.0000 </r>
       <r>  -68.5963    1.0000 </r>
       <r>  -68.5770    1.0000 </r>
       <r>  -68.5757    1.0000 </r>
       <r>  -68.5602    1.0000 </r>
       <r>  -68.5604    1.0000 </r>
       <r>  -12.4582    1.0000 </r>
       <r>  -11.4667    1.0000 </r>
       <r>  -10.8625    1.0000 </r>
       <r>  -10.6895    1.0000 </r>
       <r>  -10.3751    1.0000 </r>
       <r>  -10.2467    1.0000 </r>
       <r>   -5.7668    1.0000 </r>
       <r>   -4.8037    1.0000 </r>
       <r>   -2.4457    1.0000 </r>
       <r>   -2.2319    1.0000 </r>
       <r>   -1.8508    1.0000 </r>
       <r>   -1.7120    1.0000 </r>
       <r>   -1.4329    1.0000 </r>
       <r>   -1.1867    1.0000 </r>
       <r>   -0.8892    1.0000 </r>
       <r>   -0.7489    1.0000 </r>
       <r>   -0.6037    1.0000 </r>
       <r>   -0.5221    1.0000 </r>
       <r>   -0.3116    1.0000 </r>
       <r>   -0.2459    1.0000 </r>
       <r>   -0.1738    1.0000 </r>
       <r>   -0.1219    1.0000 </r>
       <r>   -0.0556    1.0000 </r>
       <r>    0.0624    1.0000 </r>
       <r>    1.3027    1.0000 </r>
       <r>    1.3363    1.0000 </r>
       <r>    1.3690    1.0000 </r>
       <r>    1.4322    1.0000 </r>
       <r>    1.4466    1.0000 </r>
       <r>    1.4793    1.0000 </r>
       <r>    1.5216    1.0000 </r>
       <r>    1.5475    1.0000 </r>
       <r>    1.6437    1.0000 </r>
       <r>    1.8707    1.0000 </r>
       <r>    1.9787    1.0000 </r>
       <r>    2.0472    1.0000 </r>
       <r>    2.1946    1.0000 </r>
       <r>    2.4746    1.0000 </r>
       <r>    2.5939    1.0000 </r>
       <r>    2.8396    1.0000 </r>
       <r>    2.9648    1.0000 </r>
       <r>    3.1334    1.0000 </r>
       <r>    3.5681    1.0000 </r>
       <r>    3.7243    1.0000 </r>
       <r>    6.4419   -0.0000 </r>
       <r>    6.9574    0.0000 </r>
       <r>    8.1709    0.0000 </r>
       <r>    8.2462    0.0000 </r>
       <r>    8.8342    0.0000 </r>
       <r>    9.1279    0.0000 </r>
       <r>    9.4651    0.0000 </r>
       <r>    9.7973    0.0000 </r>
       <r>   10.0843    0.0000 </r>
       <r>   10.3010    0.0000 </r>
       <r>   10.7369    0.0000 </r>
       <r>   11.0777    0.0000 </r>
       <r>   11.2910    0.0000 </r>
       <r>   11.4247    0.0000 </r>
       <r>   11.6321    0.0000 </r>
       <r>   11.7257    0.0000 </r>
       <r>   12.0857    0.0000 </r>
       <r>   12.2662    0.0000 </r>
       <r>   12.5413    0.0000 </r>
       <r>   12.6586    0.0000 </r>
       <r>   12.9568    0.0000 </r>
       <r>   13.0582    0.0000 </r>
       <r>   13.6396    0.0000 </r>
       <r>   14.6934    0.0000 </r>
      </set>
      <set comment="kpoint 13">
       <r>  -68.6458    1.0000 </r>
       <r>  -68.6455    1.0000 </r>
       <r>  -68.6327    1.0000 </r>
       <r>  -68.6319    1.0000 </r>
       <r>  -68.6140    1.0000 </r>
       <r>  -68.6136    1.0000 </r>
       <r>  -68.5966    1.0000 </r>
       <r>  -68.5963    1.0000 </r>
       <r>  -68.5769    1.0000 </r>
       <r>  -68.5756    1.0000 </r>
       <r>  -68.5601    1.0000 </r>
       <r>  -68.5604    1.0000 </r>
       <r>  -12.3559    1.0000 </r>
       <r>  -11.4130    1.0000 </r>
       <r>  -10.9519    1.0000 </r>
       <r>  -10.6844    1.0000 </r>
       <r>  -10.4800    1.0000 </r>
       <r>  -10.3358    1.0000 </r>
       <r>   -5.7521    1.0000 </r>
       <r>   -4.7218    1.0000 </r>
       <r>   -2.5220    1.0000 </r>
       <r>   -2.1854    1.0000 </r>
       <r>   -1.9514    1.0000 </r>
       <r>   -1.5347    1.0000 </r>
       <r>   -1.3008    1.0000 </r>
       <r>   -1.0974    1.0000 </r>
       <r>   -0.8726    1.0000 </r>
       <r>   -0.7522    1.0000 </r>
       <r>   -0.5502    1.0000 </r>
       <r>   -0.4460    1.0000 </r>
       <r>   -0.2886    1.0000 </r>
       <r>   -0.1799    1.0000 </r>
       <r>   -0.1450    1.0000 </r>
       <r>   -0.1080    1.0000 </r>
       <r>   -0.0449    1.0000 </r>
       <r>    0.0228    1.0000 </r>
       <r>    1.2728    1.0000 </r>
       <r>    1.2988    1.0000 </r>
       <r>    1.3516    1.0000 </r>
       <r>    1.4302    1.0000 </r>
       <r>    1.4527    1.0000 </r>
       <r>    1.4800    1.0000 </r>
       <r>    1.5014    1.0000 </r>
       <r>    1.5880    1.0000 </r>
       <r>    1.7200    1.0000 </r>
       <r>    1.9288    1.0000 </r>
       <r>    2.0755    1.0000 </r>
       <r>    2.1454    1.0000 </r>
       <r>    2.2676    1.0000 </r>
       <r>    2.4033    1.0000 </r>
       <r>    2.5675    1.0000 </r>
       <r>    2.5972    1.0000 </r>
       <r>    2.9005    1.0000 </r>
       <r>    3.0112    1.0000 </r>
       <r>    3.3598    1.0000 </r>
       <r>    3.8989    1.0000 </r>
       <r>    6.3655   -0.0000 </r>
       <r>    6.8969   -0.0000 </r>
       <r>    7.5741    0.0000 </r>
       <r>    8.0841    0.0000 </r>
       <r>    8.5480    0.0000 </r>
       <r>    8.7980    0.0000 </r>
       <r>    9.2805    0.0000 </r>
       <r>    9.6289    0.0000 </r>
       <r>    9.9302    0.0000 </r>
       <r>   10.2740    0.0000 </r>
       <r>   10.6575    0.0000 </r>
       <r>   10.9295    0.0000 </r>
       <r>   10.9720    0.0000 </r>
       <r>   11.2820    0.0000 </r>
       <r>   11.5201    0.0000 </r>
       <r>   11.7865    0.0000 </r>
       <r>   12.2476    0.0000 </r>
       <r>   12.5435    0.0000 </r>
       <r>   13.1032    0.0000 </r>
       <r>   13.5185    0.0000 </r>
       <r>   14.2986    0.0000 </r>
       <r>   14.6176    0.0000 </r>
       <r>   15.1255    0.0000 </r>
       <r>   16.2732    0.0000 </r>
      </set>
      <set comment="kpoint 14">
       <r>  -68.6461    1.0000 </r>
       <r>  -68.6456    1.0000 </r>
       <r>  -68.6328    1.0000 </r>
       <r>  -68.6319    1.0000 </r>
       <r>  -68.6142    1.0000 </r>
       <r>  -68.6137    1.0000 </r>
       <r>  -68.5967    1.0000 </r>
       <r>  -68.5963    1.0000 </r>
       <r>  -68.5770    1.0000 </r>
       <r>  -68.5756    1.0000 </r>
       <r>  -68.5603    1.0000 </r>
       <r>  -68.5604    1.0000 </r>
       <r>  -12.5409    1.0000 </r>
       <r>  -11.3368    1.0000 </r>
       <r>  -10.8734    1.0000 </r>
       <r>  -10.6055    1.0000 </r>
       <r>  -10.4005    1.0000 </r>
       <r>  -10.2838    1.0000 </r>
       <r>   -5.8248    1.0000 </r>
       <r>   -4.9742    1.0000 </r>
       <r>   -2.6656    1.0000 </r>
       <r>   -2.4521    1.0000 </r>
       <r>   -2.0390    1.0000 </r>
       <r>   -1.5767    1.0000 </r>
       <r>   -1.1692    1.0000 </r>
       <r>   -0.9823    1.0000 </r>
       <r>   -0.7927    1.0000 </r>
       <r>   -0.6611    1.0000 </r>
       <r>   -0.5144    1.0000 </r>
       <r>   -0.3905    1.0000 </r>
       <r>   -0.2662    1.0000 </r>
       <r>   -0.2529    1.0000 </r>
       <r>   -0.1900    1.0000 </r>
       <r>   -0.1466    1.0000 </r>
       <r>   -0.0491    1.0000 </r>
       <r>    0.0158    1.0000 </r>
       <r>    1.2901    1.0000 </r>
       <r>    1.3120    1.0000 </r>
       <r>    1.3888    1.0000 </r>
       <r>    1.4089    1.0000 </r>
       <r>    1.4341    1.0000 </r>
       <r>    1.4556    1.0000 </r>
       <r>    1.4919    1.0000 </r>
       <r>    1.5638    1.0000 </r>
       <r>    1.6884    1.0000 </r>
       <r>    1.9156    1.0000 </r>
       <r>    1.9865    1.0000 </r>
       <r>    2.1453    1.0000 </r>
       <r>    2.3332    1.0000 </r>
       <r>    2.5635    1.0000 </r>
       <r>    2.6162    1.0000 </r>
       <r>    2.8324    1.0000 </r>
       <r>    2.9717    1.0000 </r>
       <r>    3.2501    1.0000 </r>
       <r>    3.6823    1.0000 </r>
       <r>    3.9433    1.0003 </r>
       <r>    6.1795   -0.0000 </r>
       <r>    6.6377   -0.0000 </r>
       <r>    7.7670    0.0000 </r>
       <r>    7.9735    0.0000 </r>
       <r>    8.2157    0.0000 </r>
       <r>    8.5640    0.0000 </r>
       <r>    9.3803    0.0000 </r>
       <r>    9.5773    0.0000 </r>
       <r>    9.9075    0.0000 </r>
       <r>   10.2501    0.0000 </r>
       <r>   10.5435    0.0000 </r>
       <r>   10.7863    0.0000 </r>
       <r>   10.8426    0.0000 </r>
       <r>   11.0685    0.0000 </r>
       <r>   11.5659    0.0000 </r>
       <r>   12.0188    0.0000 </r>
       <r>   12.5293    0.0000 </r>
       <r>   12.7529    0.0000 </r>
       <r>   12.9526    0.0000 </r>
       <r>   13.3096    0.0000 </r>
       <r>   13.4123    0.0000 </r>
       <r>   13.7411    0.0000 </r>
       <r>   13.8466    0.0000 </r>
       <r>   14.7258    0.0000 </r>
      </set>
      <set comment="kpoint 15">
       <r>  -68.6461    1.0000 </r>
       <r>  -68.6455    1.0000 </r>
       <r>  -68.6328    1.0000 </r>
       <r>  -68.6319    1.0000 </r>
       <r>  -68.6142    1.0000 </r>
       <r>  -68.6137    1.0000 </r>
       <r>  -68.5967    1.0000 </r>
       <r>  -68.5963    1.0000 </r>
       <r>  -68.5770    1.0000 </r>
       <r>  -68.5756    1.0000 </r>
       <r>  -68.5602    1.0000 </r>
       <r>  -68.5604    1.0000 </r>
       <r>  -12.4581    1.0000 </r>
       <r>  -11.4665    1.0000 </r>
       <r>  -10.8657    1.0000 </r>
       <r>  -10.6866    1.0000 </r>
       <r>  -10.3744    1.0000 </r>
       <r>  -10.2473    1.0000 </r>
       <r>   -5.7668    1.0000 </r>
       <r>   -4.8036    1.0000 </r>
       <r>   -2.4452    1.0000 </r>
       <r>   -2.2322    1.0000 </r>
       <r>   -1.8500    1.0000 </r>
       <r>   -1.7113    1.0000 </r>
       <r>   -1.4366    1.0000 </r>
       <r>   -1.1885    1.0000 </r>
       <r>   -0.8877    1.0000 </r>
       <r>   -0.7445    1.0000 </r>
       <r>   -0.6065    1.0000 </r>
       <r>   -0.5197    1.0000 </r>
       <r>   -0.3110    1.0000 </r>
       <r>   -0.2456    1.0000 </r>
       <r>   -0.1755    1.0000 </r>
       <r>   -0.1226    1.0000 </r>
       <r>   -0.0568    1.0000 </r>
       <r>    0.0633    1.0000 </r>
       <r>    1.3013    1.0000 </r>
       <r>    1.3365    1.0000 </r>
       <r>    1.3697    1.0000 </r>
       <r>    1.4322    1.0000 </r>
       <r>    1.4466    1.0000 </r>
       <r>    1.4789    1.0000 </r>
       <r>    1.5208    1.0000 </r>
       <r>    1.5473    1.0000 </r>
       <r>    1.6441    1.0000 </r>
       <r>    1.8711    1.0000 </r>
       <r>    1.9778    1.0000 </r>
       <r>    2.0479    1.0000 </r>
       <r>    2.1953    1.0000 </r>
       <r>    2.4743    1.0000 </r>
       <r>    2.5958    1.0000 </r>
       <r>    2.8398    1.0000 </r>
       <r>    2.9634    1.0000 </r>
       <r>    3.1320    1.0000 </r>
       <r>    3.5687    1.0000 </r>
       <r>    3.7258    1.0000 </r>
       <r>    6.4416   -0.0000 </r>
       <r>    6.9582    0.0000 </r>
       <r>    8.1715    0.0000 </r>
       <r>    8.2461    0.0000 </r>
       <r>    8.8338    0.0000 </r>
       <r>    9.1278    0.0000 </r>
       <r>    9.4645    0.0000 </r>
       <r>    9.7961    0.0000 </r>
       <r>   10.0851    0.0000 </r>
       <r>   10.2986    0.0000 </r>
       <r>   10.7402    0.0000 </r>
       <r>   11.0778    0.0000 </r>
       <r>   11.2902    0.0000 </r>
       <r>   11.4249    0.0000 </r>
       <r>   11.6300    0.0000 </r>
       <r>   11.7241    0.0000 </r>
       <r>   12.0856    0.0000 </r>
       <r>   12.2665    0.0000 </r>
       <r>   12.5401    0.0000 </r>
       <r>   12.6600    0.0000 </r>
       <r>   12.9567    0.0000 </r>
       <r>   13.0598    0.0000 </r>
       <r>   13.6562    0.0000 </r>
       <r>   14.6960    0.0000 </r>
      </set>
      <set comment="kpoint 16">
       <r>  -68.6460    1.0000 </r>
       <r>  -68.6455    1.0000 </r>
       <r>  -68.6327    1.0000 </r>
       <r>  -68.6318    1.0000 </r>
       <r>  -68.6140    1.0000 </r>
       <r>  -68.6135    1.0000 </r>
       <r>  -68.5966    1.0000 </r>
       <r>  -68.5962    1.0000 </r>
       <r>  -68.5769    1.0000 </r>
       <r>  -68.5755    1.0000 </r>
       <r>  -68.5603    1.0000 </r>
       <r>  -68.5602    1.0000 </r>
       <r>  -12.3261    1.0000 </r>
       <r>  -11.4754    1.0000 </r>
       <r>  -10.8626    1.0000 </r>
       <r>  -10.8571    1.0000 </r>
       <r>  -10.4058    1.0000 </r>
       <r>  -10.2902    1.0000 </r>
       <r>   -5.7482    1.0000 </r>
       <r>   -4.6911    1.0000 </r>
       <r>   -2.2419    1.0000 </r>
       <r>   -2.1375    1.0000 </r>
       <r>   -1.9270    1.0000 </r>
       <r>   -1.8508    1.0000 </r>
       <r>   -1.4542    1.0000 </r>
       <r>   -1.3950    1.0000 </r>
       <r>   -1.0401    1.0000 </r>
       <r>   -0.5186    1.0000 </r>
       <r>   -0.4601    1.0000 </r>
       <r>   -0.3445    1.0000 </r>
       <r>   -0.2507    1.0000 </r>
       <r>   -0.2222    1.0000 </r>
       <r>   -0.1628    1.0000 </r>
       <r>   -0.1128    1.0000 </r>
       <r>   -0.0907    1.0000 </r>
       <r>    0.0819    1.0000 </r>
       <r>    1.2625    1.0000 </r>
       <r>    1.3476    1.0000 </r>
       <r>    1.3978    1.0000 </r>
       <r>    1.4357    1.0000 </r>
       <r>    1.4539    1.0000 </r>
       <r>    1.5106    1.0000 </r>
       <r>    1.5357    1.0000 </r>
       <r>    1.5429    1.0000 </r>
       <r>    1.7534    1.0000 </r>
       <r>    1.8181    1.0000 </r>
       <r>    2.0394    1.0000 </r>
       <r>    2.1338    1.0000 </r>
       <r>    2.2855    1.0000 </r>
       <r>    2.3098    1.0000 </r>
       <r>    2.5209    1.0000 </r>
       <r>    2.7695    1.0000 </r>
       <r>    2.8987    1.0000 </r>
       <r>    3.2633    1.0000 </r>
       <r>    3.4964    1.0000 </r>
       <r>    3.8007    1.0000 </r>
       <r>    6.1831   -0.0000 </r>
       <r>    6.8422   -0.0000 </r>
       <r>    7.8270    0.0000 </r>
       <r>    8.0454    0.0000 </r>
       <r>    8.1893    0.0000 </r>
       <r>    8.7270    0.0000 </r>
       <r>    9.1539    0.0000 </r>
       <r>    9.3073    0.0000 </r>
       <r>   10.2193    0.0000 </r>
       <r>   10.4413    0.0000 </r>
       <r>   10.5910    0.0000 </r>
       <r>   11.0045    0.0000 </r>
       <r>   11.2403    0.0000 </r>
       <r>   11.4861    0.0000 </r>
       <r>   11.8134    0.0000 </r>
       <r>   12.1730    0.0000 </r>
       <r>   12.2063    0.0000 </r>
       <r>   12.5737    0.0000 </r>
       <r>   12.6915    0.0000 </r>
       <r>   13.1138    0.0000 </r>
       <r>   13.4179    0.0000 </r>
       <r>   13.8788    0.0000 </r>
       <r>   14.0073    0.0000 </r>
       <r>   14.5249    0.0000 </r>
      </set>
      <set comment="kpoint 17">
       <r>  -68.6457    1.0000 </r>
       <r>  -68.6455    1.0000 </r>
       <r>  -68.6327    1.0000 </r>
       <r>  -68.6320    1.0000 </r>
       <r>  -68.6139    1.0000 </r>
       <r>  -68.6137    1.0000 </r>
       <r>  -68.5966    1.0000 </r>
       <r>  -68.5963    1.0000 </r>
       <r>  -68.5768    1.0000 </r>
       <r>  -68.5756    1.0000 </r>
       <r>  -68.5601    1.0000 </r>
       <r>  -68.5602    1.0000 </r>
       <r>  -12.3726    1.0000 </r>
       <r>  -11.4740    1.0000 </r>
       <r>  -10.9369    1.0000 </r>
       <r>  -10.6518    1.0000 </r>
       <r>  -10.4213    1.0000 </r>
       <r>  -10.3058    1.0000 </r>
       <r>   -5.8009    1.0000 </r>
       <r>   -4.8355    1.0000 </r>
       <r>   -2.5269    1.0000 </r>
       <r>   -2.2423    1.0000 </r>
       <r>   -1.8745    1.0000 </r>
       <r>   -1.6432    1.0000 </r>
       <r>   -1.5040    1.0000 </r>
       <r>   -1.3061    1.0000 </r>
       <r>   -0.9027    1.0000 </r>
       <r>   -0.5343    1.0000 </r>
       <r>   -0.3767    1.0000 </r>
       <r>   -0.3492    1.0000 </r>
       <r>   -0.2212    1.0000 </r>
       <r>   -0.1821    1.0000 </r>
       <r>   -0.1590    1.0000 </r>
       <r>   -0.0754    1.0000 </r>
       <r>   -0.0247    1.0000 </r>
       <r>    0.0786    1.0000 </r>
       <r>    1.1906    1.0000 </r>
       <r>    1.3641    1.0000 </r>
       <r>    1.3973    1.0000 </r>
       <r>    1.4421    1.0000 </r>
       <r>    1.4637    1.0000 </r>
       <r>    1.5070    1.0000 </r>
       <r>    1.5189    1.0000 </r>
       <r>    1.5852    1.0000 </r>
       <r>    1.7396    1.0000 </r>
       <r>    1.8183    1.0000 </r>
       <r>    2.0347    1.0000 </r>
       <r>    2.2353    1.0000 </r>
       <r>    2.2692    1.0000 </r>
       <r>    2.3627    1.0000 </r>
       <r>    2.4848    1.0000 </r>
       <r>    2.6719    1.0000 </r>
       <r>    3.0533    1.0000 </r>
       <r>    3.4132    1.0000 </r>
       <r>    3.7277    1.0000 </r>
       <r>    3.8636    1.0000 </r>
       <r>    5.9320   -0.0000 </r>
       <r>    6.6146   -0.0000 </r>
       <r>    7.3525    0.0000 </r>
       <r>    7.9437    0.0000 </r>
       <r>    8.0660    0.0000 </r>
       <r>    8.7252    0.0000 </r>
       <r>    8.9075    0.0000 </r>
       <r>    9.1391    0.0000 </r>
       <r>    9.8442    0.0000 </r>
       <r>   10.3257    0.0000 </r>
       <r>   10.5549    0.0000 </r>
       <r>   10.9264    0.0000 </r>
       <r>   11.2225    0.0000 </r>
       <r>   11.4178    0.0000 </r>
       <r>   11.7504    0.0000 </r>
       <r>   12.0031    0.0000 </r>
       <r>   12.4986    0.0000 </r>
       <r>   12.8303    0.0000 </r>
       <r>   13.2058    0.0000 </r>
       <r>   14.1841    0.0000 </r>
       <r>   14.7139    0.0000 </r>
       <r>   15.1573    0.0000 </r>
       <r>   15.9066    0.0000 </r>
       <r>   16.5642    0.0000 </r>
      </set>
      <set comment="kpoint 18">
       <r>  -68.6460    1.0000 </r>
       <r>  -68.6455    1.0000 </r>
       <r>  -68.6329    1.0000 </r>
       <r>  -68.6320    1.0000 </r>
       <r>  -68.6141    1.0000 </r>
       <r>  -68.6136    1.0000 </r>
       <r>  -68.5967    1.0000 </r>
       <r>  -68.5964    1.0000 </r>
       <r>  -68.5769    1.0000 </r>
       <r>  -68.5756    1.0000 </r>
       <r>  -68.5602    1.0000 </r>
       <r>  -68.5604    1.0000 </r>
       <r>  -12.4991    1.0000 </r>
       <r>  -11.4252    1.0000 </r>
       <r>  -10.9489    1.0000 </r>
       <r>  -10.5790    1.0000 </r>
       <r>  -10.3784    1.0000 </r>
       <r>  -10.2079    1.0000 </r>
       <r>   -5.8286    1.0000 </r>
       <r>   -4.9394    1.0000 </r>
       <r>   -2.5730    1.0000 </r>
       <r>   -2.3635    1.0000 </r>
       <r>   -1.9193    1.0000 </r>
       <r>   -1.5973    1.0000 </r>
       <r>   -1.4132    1.0000 </r>
       <r>   -1.1219    1.0000 </r>
       <r>   -0.8146    1.0000 </r>
       <r>   -0.6771    1.0000 </r>
       <r>   -0.5326    1.0000 </r>
       <r>   -0.4683    1.0000 </r>
       <r>   -0.2504    1.0000 </r>
       <r>   -0.1963    1.0000 </r>
       <r>   -0.1685    1.0000 </r>
       <r>   -0.1182    1.0000 </r>
       <r>   -0.0359    1.0000 </r>
       <r>    0.0577    1.0000 </r>
       <r>    1.2807    1.0000 </r>
       <r>    1.3231    1.0000 </r>
       <r>    1.3452    1.0000 </r>
       <r>    1.4346    1.0000 </r>
       <r>    1.4520    1.0000 </r>
       <r>    1.4678    1.0000 </r>
       <r>    1.4936    1.0000 </r>
       <r>    1.5573    1.0000 </r>
       <r>    1.7267    1.0000 </r>
       <r>    1.8422    1.0000 </r>
       <r>    1.9700    1.0000 </r>
       <r>    2.0982    1.0000 </r>
       <r>    2.3353    1.0000 </r>
       <r>    2.4488    1.0000 </r>
       <r>    2.5400    1.0000 </r>
       <r>    2.8502    1.0000 </r>
       <r>    3.0536    1.0000 </r>
       <r>    3.2664    1.0000 </r>
       <r>    3.6730    1.0000 </r>
       <r>    3.7817    1.0000 </r>
       <r>    6.2615   -0.0000 </r>
       <r>    6.7999   -0.0000 </r>
       <r>    7.8135    0.0000 </r>
       <r>    8.1368    0.0000 </r>
       <r>    8.3372    0.0000 </r>
       <r>    8.9326    0.0000 </r>
       <r>    9.3387    0.0000 </r>
[...]
       <r>   11.7059    0.0000 </r>
       <r>   11.8937    0.0000 </r>
       <r>   12.3014    0.0000 </r>
       <r>   12.6560    0.0000 </r>
       <r>   13.0115    0.0000 </r>
       <r>   13.2305    0.0000 </r>
       <r>   13.6678    0.0000 </r>
       <r>   14.0656    0.0000 </r>
       <r>   14.3942    0.0000 </r>
       <r>   16.5151    0.0000 </r>
      </set>
      <set comment="kpoint 42">
       <r>  -68.6460    1.0000 </r>
       <r>  -68.6455    1.0000 </r>
       <r>  -68.6326    1.0000 </r>
       <r>  -68.6317    1.0000 </r>
       <r>  -68.6138    1.0000 </r>
       <r>  -68.6138    1.0000 </r>
       <r>  -68.5964    1.0000 </r>
       <r>  -68.5962    1.0000 </r>
       <r>  -68.5769    1.0000 </r>
       <r>  -68.5755    1.0000 </r>
       <r>  -68.5604    1.0000 </r>
       <r>  -68.5602    1.0000 </r>
       <r>  -12.1783    1.0000 </r>
       <r>  -11.7051    1.0000 </r>
       <r>  -10.7165    1.0000 </r>
       <r>  -10.6946    1.0000 </r>
       <r>  -10.5859    1.0000 </r>
       <r>  -10.3938    1.0000 </r>
       <r>   -5.4457    1.0000 </r>
       <r>   -5.0719    1.0000 </r>
       <r>   -2.5074    1.0000 </r>
       <r>   -2.3799    1.0000 </r>
       <r>   -1.9637    1.0000 </r>
       <r>   -1.3667    1.0000 </r>
       <r>   -1.3297    1.0000 </r>
       <r>   -1.0534    1.0000 </r>
       <r>   -0.8322    1.0000 </r>
       <r>   -0.7687    1.0000 </r>
       <r>   -0.4221    1.0000 </r>
       <r>   -0.3398    1.0000 </r>
       <r>   -0.2712    1.0000 </r>
       <r>   -0.2088    1.0000 </r>
       <r>   -0.1410    1.0000 </r>
       <r>   -0.1395    1.0000 </r>
       <r>   -0.0135    1.0000 </r>
       <r>    0.0268    1.0000 </r>
       <r>    1.1735    1.0000 </r>
       <r>    1.3718    1.0000 </r>
       <r>    1.3981    1.0000 </r>
       <r>    1.4527    1.0000 </r>
       <r>    1.4541    1.0000 </r>
       <r>    1.4982    1.0000 </r>
       <r>    1.5177    1.0000 </r>
       <r>    1.5489    1.0000 </r>
       <r>    1.7456    1.0000 </r>
       <r>    1.8211    1.0000 </r>
       <r>    1.9743    1.0000 </r>
       <r>    2.2267    1.0000 </r>
       <r>    2.3964    1.0000 </r>
       <r>    2.6138    1.0000 </r>
       <r>    2.6556    1.0000 </r>
       <r>    2.9148    1.0000 </r>
       <r>    3.0685    1.0000 </r>
       <r>    3.1163    1.0000 </r>
       <r>    3.2869    1.0000 </r>
       <r>    3.5824    1.0000 </r>
       <r>    6.2902   -0.0000 </r>
       <r>    6.3797   -0.0000 </r>
       <r>    7.3574    0.0000 </r>
       <r>    7.5268    0.0000 </r>
       <r>    8.3091    0.0000 </r>
       <r>    8.3356    0.0000 </r>
       <r>    9.1054    0.0000 </r>
       <r>    9.3585    0.0000 </r>
       <r>    9.7169    0.0000 </r>
       <r>    9.9475    0.0000 </r>
       <r>   10.5239    0.0000 </r>
       <r>   10.9897    0.0000 </r>
       <r>   11.4252    0.0000 </r>
       <r>   11.5639    0.0000 </r>
       <r>   12.0155    0.0000 </r>
       <r>   12.2842    0.0000 </r>
       <r>   12.4287    0.0000 </r>
       <r>   12.4755    0.0000 </r>
       <r>   13.0332    0.0000 </r>
       <r>   13.1533    0.0000 </r>
       <r>   14.1409    0.0000 </r>
       <r>   14.4401    0.0000 </r>
       <r>   15.1635    0.0000 </r>
       <r>   15.8650    0.0000 </r>
      </set>
     </set>
    </set>
   </array>
  </eigenvalues>
  <separator name="orbital magnetization" >
   <v name="MAGDIPOLOUT">      0.00000000      0.00000000      0.00000000</v>
  </separator>
  <dos>
   <i name="efermi">      4.22080710 </i>
   <total>
    <array>
     <dimension dim="1">gridpoints</dimension>
     <dimension dim="2">spin</dimension>
     <field>energy</field>
     <field>total</field>
     <field>integrated</field>
     <set>
      <set comment="spin 1">
       <r>   -72.8301     0.0000     0.0000 </r>
       <r>   -72.5238     0.0000     0.0000 </r>
       <r>   -72.2174     0.0000     0.0000 </r>
       <r>   -71.9110     0.0000     0.0000 </r>
       <r>   -71.6046     0.0000     0.0000 </r>
       <r>   -71.2982     0.0000     0.0000 </r>
       <r>   -70.9918     0.0000     0.0000 </r>
       <r>   -70.6855     0.0000     0.0000 </r>
       <r>   -70.3791     0.0000     0.0000 </r>
       <r>   -70.0727     0.0000     0.0000 </r>
       <r>   -69.7663     0.0000     0.0000 </r>
       <r>   -69.4599    -0.0000    -0.0000 </r>
       <r>   -69.1536    -0.0000    -0.0000 </r>
       <r>   -68.8472    -0.2158    -0.0661 </r>
       <r>   -68.5408    70.1157    21.4160 </r>
       <r>   -68.2344     8.4343    24.0001 </r>
       <r>   -67.9280    -0.0004    24.0000 </r>
       <r>   -67.6217     0.0000    24.0000 </r>
       <r>   -67.3153     0.0000    24.0000 </r>
       <r>   -67.0089     0.0000    24.0000 </r>
       <r>   -66.7025     0.0000    24.0000 </r>
       <r>   -66.3961     0.0000    24.0000 </r>
       <r>   -66.0898     0.0000    24.0000 </r>
       <r>   -65.7834     0.0000    24.0000 </r>
       <r>   -65.4770     0.0000    24.0000 </r>
       <r>   -65.1706     0.0000    24.0000 </r>
       <r>   -64.8642     0.0000    24.0000 </r>
       <r>   -64.5578     0.0000    24.0000 </r>
       <r>   -64.2515     0.0000    24.0000 </r>
       <r>   -63.9451     0.0000    24.0000 </r>
       <r>   -63.6387     0.0000    24.0000 </r>
       <r>   -63.3323     0.0000    24.0000 </r>
       <r>   -63.0259     0.0000    24.0000 </r>
       <r>   -62.7196     0.0000    24.0000 </r>
       <r>   -62.4132     0.0000    24.0000 </r>
       <r>   -62.1068     0.0000    24.0000 </r>
       <r>   -61.8004     0.0000    24.0000 </r>
       <r>   -61.4940     0.0000    24.0000 </r>
       <r>   -61.1877     0.0000    24.0000 </r>
       <r>   -60.8813     0.0000    24.0000 </r>
       <r>   -60.5749     0.0000    24.0000 </r>
       <r>   -60.2685     0.0000    24.0000 </r>
       <r>   -59.9621     0.0000    24.0000 </r>
       <r>   -59.6557     0.0000    24.0000 </r>
       <r>   -59.3494     0.0000    24.0000 </r>
       <r>   -59.0430     0.0000    24.0000 </r>
       <r>   -58.7366     0.0000    24.0000 </r>
       <r>   -58.4302     0.0000    24.0000 </r>
       <r>   -58.1238     0.0000    24.0000 </r>
       <r>   -57.8175     0.0000    24.0000 </r>
       <r>   -57.5111     0.0000    24.0000 </r>
       <r>   -57.2047     0.0000    24.0000 </r>
       <r>   -56.8983     0.0000    24.0000 </r>
       <r>   -56.5919     0.0000    24.0000 </r>
       <r>   -56.2856     0.0000    24.0000 </r>
       <r>   -55.9792     0.0000    24.0000 </r>
       <r>   -55.6728     0.0000    24.0000 </r>
       <r>   -55.3664     0.0000    24.0000 </r>
       <r>   -55.0600     0.0000    24.0000 </r>
       <r>   -54.7537     0.0000    24.0000 </r>
       <r>   -54.4473     0.0000    24.0000 </r>
       <r>   -54.1409     0.0000    24.0000 </r>
       <r>   -53.8345     0.0000    24.0000 </r>
       <r>   -53.5281     0.0000    24.0000 </r>
       <r>   -53.2217     0.0000    24.0000 </r>
       <r>   -52.9154     0.0000    24.0000 </r>
       <r>   -52.6090     0.0000    24.0000 </r>
       <r>   -52.3026     0.0000    24.0000 </r>
       <r>   -51.9962     0.0000    24.0000 </r>
       <r>   -51.6898     0.0000    24.0000 </r>
       <r>   -51.3835     0.0000    24.0000 </r>
       <r>   -51.0771     0.0000    24.0000 </r>
       <r>   -50.7707     0.0000    24.0000 </r>
       <r>   -50.4643     0.0000    24.0000 </r>
       <r>   -50.1579     0.0000    24.0000 </r>
       <r>   -49.8516     0.0000    24.0000 </r>
       <r>   -49.5452     0.0000    24.0000 </r>
       <r>   -49.2388     0.0000    24.0000 </r>
       <r>   -48.9324     0.0000    24.0000 </r>
       <r>   -48.6260     0.0000    24.0000 </r>
       <r>   -48.3197     0.0000    24.0000 </r>
       <r>   -48.0133     0.0000    24.0000 </r>
       <r>   -47.7069     0.0000    24.0000 </r>
       <r>   -47.4005     0.0000    24.0000 </r>
       <r>   -47.0941     0.0000    24.0000 </r>
       <r>   -46.7877     0.0000    24.0000 </r>
       <r>   -46.4814     0.0000    24.0000 </r>
       <r>   -46.1750     0.0000    24.0000 </r>
       <r>   -45.8686     0.0000    24.0000 </r>
       <r>   -45.5622     0.0000    24.0000 </r>
       <r>   -45.2558     0.0000    24.0000 </r>
       <r>   -44.9495     0.0000    24.0000 </r>
       <r>   -44.6431     0.0000    24.0000 </r>
       <r>   -44.3367     0.0000    24.0000 </r>
       <r>   -44.0303     0.0000    24.0000 </r>
       <r>   -43.7239     0.0000    24.0000 </r>
       <r>   -43.4176     0.0000    24.0000 </r>
       <r>   -43.1112     0.0000    24.0000 </r>
       <r>   -42.8048     0.0000    24.0000 </r>
       <r>   -42.4984     0.0000    24.0000 </r>
       <r>   -42.1920     0.0000    24.0000 </r>
       <r>   -41.8856     0.0000    24.0000 </r>
       <r>   -41.5793     0.0000    24.0000 </r>
       <r>   -41.2729     0.0000    24.0000 </r>
       <r>   -40.9665     0.0000    24.0000 </r>
       <r>   -40.6601     0.0000    24.0000 </r>
       <r>   -40.3537     0.0000    24.0000 </r>
       <r>   -40.0474     0.0000    24.0000 </r>
       <r>   -39.7410     0.0000    24.0000 </r>
       <r>   -39.4346     0.0000    24.0000 </r>
       <r>   -39.1282     0.0000    24.0000 </r>
       <r>   -38.8218     0.0000    24.0000 </r>
       <r>   -38.5155     0.0000    24.0000 </r>
       <r>   -38.2091     0.0000    24.0000 </r>
       <r>   -37.9027     0.0000    24.0000 </r>
       <r>   -37.5963     0.0000    24.0000 </r>
       <r>   -37.2899     0.0000    24.0000 </r>
       <r>   -36.9836     0.0000    24.0000 </r>
       <r>   -36.6772     0.0000    24.0000 </r>
       <r>   -36.3708     0.0000    24.0000 </r>
       <r>   -36.0644     0.0000    24.0000 </r>
       <r>   -35.7580     0.0000    24.0000 </r>
       <r>   -35.4516     0.0000    24.0000 </r>
       <r>   -35.1453     0.0000    24.0000 </r>
       <r>   -34.8389     0.0000    24.0000 </r>
       <r>   -34.5325     0.0000    24.0000 </r>
       <r>   -34.2261     0.0000    24.0000 </r>
       <r>   -33.9197     0.0000    24.0000 </r>
       <r>   -33.6134     0.0000    24.0000 </r>
       <r>   -33.3070     0.0000    24.0000 </r>
       <r>   -33.0006     0.0000    24.0000 </r>
       <r>   -32.6942     0.0000    24.0000 </r>
       <r>   -32.3878     0.0000    24.0000 </r>
       <r>   -32.0815     0.0000    24.0000 </r>
       <r>   -31.7751     0.0000    24.0000 </r>
       <r>   -31.4687     0.0000    24.0000 </r>
       <r>   -31.1623     0.0000    24.0000 </r>
       <r>   -30.8559     0.0000    24.0000 </r>
       <r>   -30.5496     0.0000    24.0000 </r>
       <r>   -30.2432     0.0000    24.0000 </r>
       <r>   -29.9368     0.0000    24.0000 </r>
       <r>   -29.6304     0.0000    24.0000 </r>
       <r>   -29.3240     0.0000    24.0000 </r>
       <r>   -29.0176     0.0000    24.0000 </r>
       <r>   -28.7113     0.0000    24.0000 </r>
       <r>   -28.4049     0.0000    24.0000 </r>
       <r>   -28.0985     0.0000    24.0000 </r>
       <r>   -27.7921     0.0000    24.0000 </r>
       <r>   -27.4857     0.0000    24.0000 </r>
       <r>   -27.1794     0.0000    24.0000 </r>
       <r>   -26.8730     0.0000    24.0000 </r>
       <r>   -26.5666     0.0000    24.0000 </r>
       <r>   -26.2602     0.0000    24.0000 </r>
       <r>   -25.9538     0.0000    24.0000 </r>
       <r>   -25.6475     0.0000    24.0000 </r>
       <r>   -25.3411     0.0000    24.0000 </r>
       <r>   -25.0347     0.0000    24.0000 </r>
       <r>   -24.7283     0.0000    24.0000 </r>
       <r>   -24.4219     0.0000    24.0000 </r>
       <r>   -24.1155     0.0000    24.0000 </r>
       <r>   -23.8092     0.0000    24.0000 </r>
       <r>   -23.5028     0.0000    24.0000 </r>
       <r>   -23.1964     0.0000    24.0000 </r>
       <r>   -22.8900     0.0000    24.0000 </r>
       <r>   -22.5836     0.0000    24.0000 </r>
       <r>   -22.2773     0.0000    24.0000 </r>
       <r>   -21.9709     0.0000    24.0000 </r>
       <r>   -21.6645     0.0000    24.0000 </r>
       <r>   -21.3581     0.0000    24.0000 </r>
       <r>   -21.0517     0.0000    24.0000 </r>
       <r>   -20.7454     0.0000    24.0000 </r>
       <r>   -20.4390     0.0000    24.0000 </r>
       <r>   -20.1326     0.0000    24.0000 </r>
       <r>   -19.8262     0.0000    24.0000 </r>
       <r>   -19.5198     0.0000    24.0000 </r>
       <r>   -19.2135     0.0000    24.0000 </r>
       <r>   -18.9071     0.0000    24.0000 </r>
       <r>   -18.6007     0.0000    24.0000 </r>
       <r>   -18.2943     0.0000    24.0000 </r>
       <r>   -17.9879     0.0000    24.0000 </r>
       <r>   -17.6815     0.0000    24.0000 </r>
       <r>   -17.3752     0.0000    24.0000 </r>
       <r>   -17.0688     0.0000    24.0000 </r>
       <r>   -16.7624     0.0000    24.0000 </r>
       <r>   -16.4560     0.0000    24.0000 </r>
       <r>   -16.1496     0.0000    24.0000 </r>
       <r>   -15.8433     0.0000    24.0000 </r>
       <r>   -15.5369     0.0000    24.0000 </r>
       <r>   -15.2305     0.0000    24.0000 </r>
       <r>   -14.9241     0.0000    24.0000 </r>
       <r>   -14.6177     0.0000    24.0000 </r>
       <r>   -14.3114     0.0000    24.0000 </r>
       <r>   -14.0050     0.0000    24.0000 </r>
       <r>   -13.6986    -0.0000    24.0000 </r>
       <r>   -13.3922    -0.0000    24.0000 </r>
       <r>   -13.0858    -0.0000    24.0000 </r>
       <r>   -12.7795    -0.0039    23.9988 </r>
       <r>   -12.4731     1.5393    24.4704 </r>
       <r>   -12.1667     3.5699    25.5642 </r>
       <r>   -11.8603     1.9117    26.1499 </r>
       <r>   -11.5539     2.1560    26.8104 </r>
       <r>   -11.2475     3.1946    27.7892 </r>
       <r>   -10.9412     2.5034    28.5561 </r>
       <r>   -10.6348     9.3137    31.4097 </r>
       <r>   -10.3284     9.4855    34.3159 </r>
       <r>   -10.0220     5.5144    36.0054 </r>
       <r>    -9.7156    -0.0175    36.0000 </r>
       <r>    -9.4093    -0.0000    36.0000 </r>
       <r>    -9.1029     0.0000    36.0000 </r>
       <r>    -8.7965     0.0000    36.0000 </r>
       <r>    -8.4901     0.0000    36.0000 </r>
       <r>    -8.1837     0.0000    36.0000 </r>
       <r>    -7.8774     0.0000    36.0000 </r>
       <r>    -7.5710     0.0000    36.0000 </r>
       <r>    -7.2646     0.0000    36.0000 </r>
       <r>    -6.9582    -0.0000    36.0000 </r>
       <r>    -6.6518    -0.0000    36.0000 </r>
       <r>    -6.3454    -0.0000    36.0000 </r>
       <r>    -6.0391     0.0572    36.0175 </r>
       <r>    -5.7327     3.4952    37.0884 </r>
       <r>    -5.4263     2.0490    37.7161 </r>
       <r>    -5.1199     1.8698    38.2890 </r>
       <r>    -4.8135     3.2975    39.2993 </r>
       <r>    -4.5072     2.2199    39.9795 </r>
       <r>    -4.2008     0.0670    40.0000 </r>
       <r>    -3.8944    -0.0000    40.0000 </r>
       <r>    -3.5880    -0.0000    40.0000 </r>
       <r>    -3.2816    -0.0000    40.0000 </r>
       <r>    -2.9753    -0.0004    39.9999 </r>
       <r>    -2.6689     0.3794    40.1161 </r>
       <r>    -2.3625     6.1315    41.9947 </r>
       <r>    -2.0561     6.7020    44.0481 </r>
       <r>    -1.7497     7.3529    46.3008 </r>
       <r>    -1.4434     6.4229    48.2687 </r>
       <r>    -1.1370     8.7452    50.9481 </r>
       <r>    -0.8306     9.0832    53.7310 </r>
       <r>    -0.5242    11.3145    57.1975 </r>
       <r>    -0.2178    18.1833    62.7686 </r>
       <r>     0.0886    28.9794    71.6473 </r>
       <r>     0.3949     1.1517    72.0002 </r>
       <r>     0.7013    -0.0006    72.0000 </r>
       <r>     1.0077    -0.0199    71.9939 </r>
       <r>     1.3141     7.4158    74.2660 </r>
       <r>     1.6205    44.8279    88.0004 </r>
       <r>     1.9268    13.8208    92.2348 </r>
       <r>     2.2332    13.1682    96.2693 </r>
       <r>     2.5396    12.8601   100.2094 </r>
       <r>     2.8460    11.1347   103.6209 </r>
       <r>     3.1524     9.0871   106.4050 </r>
       <r>     3.4587     7.9130   108.8294 </r>
       <r>     3.7651     6.9335   110.9537 </r>
       <r>     4.0715     3.1678   111.9242 </r>
       <r>     4.3779     0.2479   112.0002 </r>
       <r>     4.6843    -0.0006   112.0000 </r>
       <r>     4.9907    -0.0000   112.0000 </r>
       <r>     5.2970    -0.0001   112.0000 </r>
       <r>     5.6034     0.0768   112.0235 </r>
       <r>     5.9098     0.1716   112.0761 </r>
       <r>     6.2162     2.6382   112.8844 </r>
       <r>     6.5226     4.3630   114.2211 </r>
       <r>     6.8289     3.4442   115.2763 </r>
       <r>     7.1353     2.4270   116.0199 </r>
       <r>     7.4417     1.4375   116.4604 </r>
       <r>     7.7481     3.1643   117.4299 </r>
       <r>     8.0545     5.5725   119.1372 </r>
       <r>     8.3608     5.5546   120.8390 </r>
       <r>     8.6672     4.5829   122.2431 </r>
       <r>     8.9736     4.4734   123.6137 </r>
       <r>     9.2800     5.6150   125.3340 </r>
       <r>     9.5864     5.6918   127.0779 </r>
       <r>     9.8927     4.7927   128.5463 </r>
       <r>    10.1991     4.4585   129.9123 </r>
       <r>    10.5055     6.4995   131.9036 </r>
       <r>    10.8119     8.2644   134.4357 </r>
       <r>    11.1183     8.2761   136.9713 </r>
       <r>    11.4247     7.9448   139.4054 </r>
       <r>    11.7310     7.9313   141.8354 </r>
       <r>    12.0374     6.5697   143.8483 </r>
       <r>    12.3438     5.8655   145.6453 </r>
       <r>    12.6502     6.6416   147.6802 </r>
       <r>    12.9566     5.7645   149.4464 </r>
       <r>    13.2629     6.2321   151.3558 </r>
       <r>    13.5693     5.3900   153.0072 </r>
       <r>    13.8757     4.0193   154.2386 </r>
       <r>    14.1821     3.1746   155.2112 </r>
       <r>    14.4885     4.5772   156.6136 </r>
       <r>    14.7948     3.4766   157.6788 </r>
       <r>    15.1012     1.4180   158.1132 </r>
       <r>    15.4076     1.5989   158.6031 </r>
       <r>    15.7140     1.1837   158.9658 </r>
       <r>    16.0204     1.7130   159.4906 </r>
       <r>    16.3267     0.3301   159.5917 </r>
       <r>    16.6331     0.6914   159.8035 </r>
       <r>    16.9395     0.5313   159.9663 </r>
       <r>    17.2459     0.1100   160.0000 </r>
       <r>    17.5523    -0.0000   160.0000 </r>
       <r>    17.8587     0.0000   160.0000 </r>
       <r>    18.1650     0.0000   160.0000 </r>
       <r>    18.4714     0.0000   160.0000 </r>
       <r>    18.7778     0.0000   160.0000 </r>
       <r>    19.0842     0.0000   160.0000 </r>
      </set>
     </set>
    </array>
   </total>
  </dos>
 </calculation>
 <structure name="finalpos" >
  <crystal>
   <varray name="basis" >
    <v>       3.22479600      -5.64383000       0.03157200 </v>
    <v>       3.22479600       5.64383000       0.03157200 </v>
    <v>      -2.10194600       0.00000000       6.07553700 </v>
   </varray>
   <i name="volume">    221.90106089 </i>
   <varray name="rec_basis" >
    <v>       0.15452516      -0.08859232       0.05346088 </v>
    <v>       0.15452516       0.08859232       0.05346088 </v>
    <v>      -0.00160600       0.00000000       0.16403888 </v>
   </varray>
  </crystal>
  <varray name="positions" >
   <v>       0.61844300       0.12117100       0.11953300 </v>
   <v>       0.12117100       0.61844300       0.61953300 </v>
   <v>       0.96449540       0.79032200       0.11881300 </v>
   <v>       0.79032200       0.96295700       0.61881300 </v>
   <v>       0.43973200       0.26728100       0.59904700 </v>
   <v>       0.26728100       0.43973200       0.09904700 </v>
   <v>       0.07949800       0.91167500       0.49736300 </v>
   <v>       0.57140300       0.41236400       0.98018400 </v>
   <v>       0.73711100       0.25006200       0.49504900 </v>
   <v>       0.41236400       0.57140300       0.48018400 </v>
   <v>       0.91167500       0.07949800       0.99736300 </v>
   <v>       0.25006200       0.73711100       0.99504900 </v>
  </varray>
 </structure>
</modeling>
