CGS                                     
           1
     3.224796   -5.643830    0.031572
     3.224796    5.643830    0.031572
    -2.101946    0.000000    6.075537
   Cu   Ge   S 
   4   2   6
Direct configuration=     1
   0.61844300  0.12117100  0.11953300
   0.12117100  0.61844300  0.61953300
   0.96449540  0.79032200  0.11881300
   0.79032200  0.96295700  0.61881300
   0.43973200  0.26728100  0.59904700
   0.26728100  0.43973200  0.09904700
   0.07949800  0.91167500  0.49736300
   0.57140300  0.41236400  0.98018400
   0.73711100  0.25006200  0.49504900
   0.41236400  0.57140300  0.48018400
   0.91167500  0.07949800  0.99736300
   0.25006200  0.73711100  0.99504900
