<?xml version="1.0" encoding="ISO-8859-1"?>
<modeling>
 <generator>
  <i name="program" type="string">vasp </i>
  <i name="version" type="string">5.3.3  </i>
  <i name="subversion" type="string">18Dez12 (build Nov 13 2015 09:58:40) complex                          parallel </i>
  <i name="platform" type="string">LinuxIFC </i>
  <i name="date" type="string">2017 10 18 </i>
  <i name="time" type="string">13:04:00 </i>
 </generator>
 <incar>
  <i type="string" name="SYSTEM"> CGS</i>
  <i type="string" name="PREC">normal</i>
  <i type="string" name="ALGO"> D</i>
  <i type="logical" name="LDIAG"> T  </i>
  <i name="EDIFF">      0.00001000</i>
  <i name="ENCUT">    400.00000000</i>
  <i name="TIME">      0.40000000</i>
  <i type="int" name="ISMEAR">     1</i>
  <i name="SIGMA">      0.10000000</i>
  <i type="logical" name="LHFCALC"> T  </i>
  <i type="string" name="GGA"> PE</i>
  <i name="HFSCREEN">      0.20000000</i>
  <i name="AEXX">      0.25000000</i>
  <i type="string" name="PRECFOCK">fast</i>
 </incar>
 <kpoints>
  <generation param="Gamma">
   <v type="int" name="divisions">       4        4        5 </v>
   <v name="usershift">      0.00000000       0.00000000       0.00000000 </v>
   <v name="genvec1">      0.25000000       0.00000000       0.00000000 </v>
   <v name="genvec2">      0.00000000       0.25000000       0.00000000 </v>
   <v name="genvec3">      0.00000000       0.00000000       0.20000000 </v>
   <v name="shift">      0.00000000       0.00000000       0.00000000 </v>
  </generation>
  <varray name="kpointlist" >
   <v>       0.00000000       0.00000000       0.00000000 </v>
   <v>       0.25000000       0.00000000       0.00000000 </v>
   <v>       0.50000000       0.00000000       0.00000000 </v>
   <v>       0.00000000       0.25000000       0.00000000 </v>
   <v>       0.25000000       0.25000000       0.00000000 </v>
   <v>       0.50000000       0.25000000      -0.00000000 </v>
   <v>      -0.25000000       0.25000000       0.00000000 </v>
   <v>       0.00000000       0.50000000       0.00000000 </v>
   <v>       0.25000000       0.50000000      -0.00000000 </v>
   <v>       0.50000000       0.50000000       0.00000000 </v>
   <v>      -0.00000000      -0.00000000       0.20000000 </v>
   <v>       0.25000000       0.00000000       0.20000000 </v>
   <v>       0.50000000       0.00000000       0.20000000 </v>
   <v>      -0.25000000      -0.00000000       0.20000000 </v>
   <v>       0.00000000       0.25000000       0.20000000 </v>
   <v>       0.25000000       0.25000000       0.20000000 </v>
   <v>       0.50000000       0.25000000       0.20000000 </v>
   <v>      -0.25000000       0.25000000       0.20000000 </v>
   <v>       0.00000000       0.50000000       0.20000000 </v>
   <v>       0.25000000       0.50000000       0.20000000 </v>
   <v>       0.50000000       0.50000000       0.20000000 </v>
   <v>      -0.25000000       0.50000000       0.20000000 </v>
   <v>      -0.00000000      -0.25000000       0.20000000 </v>
   <v>       0.25000000      -0.25000000       0.20000000 </v>
   <v>       0.50000000      -0.25000000       0.20000000 </v>
   <v>      -0.25000000      -0.25000000       0.20000000 </v>
   <v>      -0.00000000      -0.00000000       0.40000000 </v>
   <v>       0.25000000       0.00000000       0.40000000 </v>
   <v>       0.50000000       0.00000000       0.40000000 </v>
   <v>      -0.25000000       0.00000000       0.40000000 </v>
   <v>       0.00000000       0.25000000       0.40000000 </v>
   <v>       0.25000000       0.25000000       0.40000000 </v>
   <v>       0.50000000       0.25000000       0.40000000 </v>
   <v>      -0.25000000       0.25000000       0.40000000 </v>
   <v>       0.00000000       0.50000000       0.40000000 </v>
   <v>       0.25000000       0.50000000       0.40000000 </v>
   <v>       0.50000000       0.50000000       0.40000000 </v>
   <v>      -0.25000000       0.50000000       0.40000000 </v>
   <v>       0.00000000      -0.25000000       0.40000000 </v>
   <v>       0.25000000      -0.25000000       0.40000000 </v>
   <v>       0.50000000      -0.25000000       0.40000000 </v>
   <v>      -0.25000000      -0.25000000       0.40000000 </v>
  </varray>
  <varray name="weights" >
   <v>       0.01250000 </v>
   <v>       0.02500000 </v>
   <v>       0.01250000 </v>
   <v>       0.02500000 </v>
   <v>       0.02500000 </v>
   <v>       0.02500000 </v>
   <v>       0.02500000 </v>
   <v>       0.01250000 </v>
   <v>       0.02500000 </v>
   <v>       0.01250000 </v>
   <v>       0.02500000 </v>
   <v>       0.02500000 </v>
   <v>       0.02500000 </v>
   <v>       0.02500000 </v>
   <v>       0.02500000 </v>
   <v>       0.02500000 </v>
   <v>       0.02500000 </v>
   <v>       0.02500000 </v>
   <v>       0.02500000 </v>
   <v>       0.02500000 </v>
   <v>       0.02500000 </v>
   <v>       0.02500000 </v>
   <v>       0.02500000 </v>
   <v>       0.02500000 </v>
   <v>       0.02500000 </v>
   <v>       0.02500000 </v>
   <v>       0.02500000 </v>
   <v>       0.02500000 </v>
   <v>       0.02500000 </v>
   <v>       0.02500000 </v>
   <v>       0.02500000 </v>
   <v>       0.02500000 </v>
   <v>       0.02500000 </v>
   <v>       0.02500000 </v>
   <v>       0.02500000 </v>
   <v>       0.02500000 </v>
   <v>       0.02500000 </v>
   <v>       0.02500000 </v>
   <v>       0.02500000 </v>
   <v>       0.02500000 </v>
   <v>       0.02500000 </v>
   <v>       0.02500000 </v>
  </varray>
 </kpoints>
 <parameters>
  <separator name="general" >
   <i type="string" name="SYSTEM">CGS</i>
   <i type="logical" name="LCOMPAT"> F  </i>
  </separator>
  <separator name="electronic" >
   <i type="string" name="PREC">normal</i>
   <i name="ENMAX">    400.00000000</i>
   <i name="ENAUG">    758.23300000</i>
   <i name="EDIFF">      0.00001000</i>
   <i type="int" name="IALGO">    53</i>
   <i type="int" name="IWAVPR">    10</i>
   <i type="int" name="NBANDS">    80</i>
   <i name="NELECT">    112.00000000</i>
   <i type="int" name="TURBO">     0</i>
   <i type="int" name="IRESTART">     0</i>
   <i type="int" name="NREBOOT">     0</i>
   <i type="int" name="NMIN">     0</i>
   <i name="EREF">      0.00000000</i>
   <separator name="electronic smearing" >
    <i type="int" name="ISMEAR">     1</i>
    <i name="SIGMA">      0.10000000</i>
    <i name="KSPACING">      0.50000000</i>
    <i type="logical" name="KGAMMA"> T  </i>
   </separator>
   <separator name="electronic projectors" >
    <i type="logical" name="LREAL"> F  </i>
    <v name="ROPT">      0.00000000      0.00000000      0.00000000</v>
    <i type="int" name="LMAXPAW">  -100</i>
    <i type="int" name="LMAXMIX">     2</i>
    <i type="logical" name="NLSPLINE"> F  </i>
   </separator>
   <separator name="electronic startup" >
    <i type="int" name="ISTART">     1</i>
    <i type="int" name="ICHARG">     0</i>
    <i type="int" name="INIWAV">     1</i>
   </separator>
   <separator name="electronic spin" >
    <i type="int" name="ISPIN">     1</i>
    <i type="logical" name="LNONCOLLINEAR"> F  </i>
    <v name="MAGMOM">      1.00000000      1.00000000      1.00000000      1.00000000      1.00000000      1.00000000      1.00000000      1.00000000      1.00000000      1.00000000      1.00000000      1.00000000</v>
    <i name="NUPDOWN">     -1.00000000</i>
    <i type="logical" name="LSORBIT"> F  </i>
    <v name="SAXIS">      0.00000000      0.00000000      1.00000000</v>
    <i type="logical" name="LSPIRAL"> F  </i>
    <v name="QSPIRAL">      0.00000000      0.00000000      0.00000000</v>
    <i type="logical" name="LZEROZ"> F  </i>
   </separator>
   <separator name="electronic exchange-correlation" >
    <i type="logical" name="LASPH"> F  </i>
    <i type="logical" name="LMETAGGA"> F  </i>
   </separator>
   <separator name="electronic convergence" >
    <i type="int" name="NELM">    60</i>
    <i type="int" name="NELMDL">     0</i>
    <i type="int" name="NELMIN">     2</i>
    <i name="ENINI">    400.00000000</i>
    <separator name="electronic convergence detail" >
     <i type="logical" name="LDIAG"> T  </i>
     <i type="logical" name="LSUBROT"> T  </i>
     <i name="WEIMIN">      0.00000000</i>
     <i name="EBREAK">      0.00000003</i>
     <i name="DEPER">      0.30000000</i>
     <i type="int" name="NRMM">     4</i>
     <i name="TIME">      0.40000000</i>
    </separator>
   </separator>
   <separator name="electronic mixer" >
    <i name="AMIX">      0.40000000</i>
    <i name="BMIX">      1.00000000</i>
    <i name="AMIN">      0.10000000</i>
    <i name="AMIX_MAG">      1.60000000</i>
    <i name="BMIX_MAG">      1.00000000</i>
    <separator name="electronic mixer details" >
     <i type="int" name="IMIX">     4</i>
     <i type="int" name="MAXMIX">   -45</i>
     <i name="WC">    100.00000000</i>
     <i type="int" name="INIMIX">     1</i>
     <i type="int" name="MIXPRE">     1</i>
     <i type="int" name="MREMOVE">     5</i>
    </separator>
   </separator>
   <separator name="electronic dipolcorrection" >
    <i type="logical" name="LDIPOL"> F  </i>
    <i type="logical" name="LMONO"> F  </i>
    <i type="int" name="IDIPOL">     0</i>
    <i name="EPSILON">      1.00000000</i>
    <v name="DIPOL">   -100.00000000   -100.00000000   -100.00000000</v>
    <i name="EFIELD">      0.00000000</i>
   </separator>
  </separator>
  <separator name="grids" >
   <i type="int" name="NGX">    32</i>
   <i type="int" name="NGY">    32</i>
   <i type="int" name="NGZ">    32</i>
   <i type="int" name="NGXF">    64</i>
   <i type="int" name="NGYF">    64</i>
   <i type="int" name="NGZF">    64</i>
   <i type="logical" name="ADDGRID"> F  </i>
  </separator>
  <separator name="ionic" >
   <i type="int" name="NSW">     0</i>
   <i type="int" name="IBRION">    -1</i>
   <i type="int" name="ISIF">     0</i>
   <i name="PSTRESS">      0.00000000</i>
   <i name="EDIFFG">      0.00010000</i>
   <i type="int" name="NFREE">     0</i>
   <i name="POTIM">      0.50000000</i>
   <i name="SMASS">     -3.00000000</i>
   <i name="SCALEE">      1.00000000</i>
  </separator>
  <separator name="ionic md" >
   <i name="TEBEG">      0.00010000</i>
   <i name="TEEND">      0.00010000</i>
   <i type="int" name="NBLOCK">     1</i>
   <i type="int" name="KBLOCK">     1</i>
   <i type="int" name="NPACO">   256</i>
   <i name="APACO">     16.00000000</i>
  </separator>
  <separator name="symmetry" >
   <i type="int" name="ISYM">     3</i>
   <i name="SYMPREC">      0.00001000</i>
  </separator>
  <separator name="dos" >
   <i type="logical" name="LORBIT"> F  </i>
   <v name="RWIGS">     -1.00000000     -1.00000000     -1.00000000</v>
   <i type="int" name="NEDOS">   301</i>
   <i name="EMIN">     10.00000000</i>
   <i name="EMAX">    -10.00000000</i>
   <i name="EFERMI">      0.00000000</i>
  </separator>
  <separator name="writing" >
   <i type="int" name="NWRITE">     2</i>
   <i type="logical" name="LWAVE"> T  </i>
   <i type="logical" name="LCHARG"> T  </i>
   <i type="logical" name="LPARD"> F  </i>
   <i type="logical" name="LVTOT"> F  </i>
   <i type="logical" name="LVHAR"> F  </i>
   <i type="logical" name="LELF"> F  </i>
   <i type="logical" name="LOPTICS"> F  </i>
   <v name="STM">      0.00000000      0.00000000      0.00000000      0.00000000      0.00000000      0.00000000      0.00000000</v>
  </separator>
  <separator name="performance" >
   <i type="int" name="NPAR">    16</i>
   <i type="int" name="NSIM">     4</i>
   <i type="int" name="NBLK">    -1</i>
   <i type="logical" name="LPLANE"> T  </i>
   <i type="logical" name="LSCALAPACK"> T  </i>
   <i type="logical" name="LSCAAWARE"> F  </i>
   <i type="logical" name="LSCALU"> F  </i>
   <i type="logical" name="LASYNC"> F  </i>
   <i type="logical" name="LORBITALREAL"> F  </i>
  </separator>
  <separator name="miscellaneous" >
   <i type="int" name="IDIOT">     3</i>
   <i type="logical" name="LMUSIC"> F  </i>
   <v name="POMASS">     63.54600000     72.61000000     32.06600000</v>
   <v name="DARWINR">      0.00000000      0.00000000      0.00000000</v>
   <v name="DARWINV">      1.00000000      1.00000000      1.00000000</v>
   <i type="logical" name="LCORR"> T  </i>
  </separator>
  <i type="logical" name="GGA_COMPAT"> T  </i>
  <i type="logical" name="LBERRY"> F  </i>
  <i type="int" name="ICORELEVEL">     0</i>
  <i type="logical" name="LDAU"> F  </i>
  <i type="int" name="I_CONSTRAINED_M">     0</i>
  <separator name="electronic exchange-correlation" >
   <i type="string" name="GGA">PE</i>
   <i type="int" name="VOSKOWN">     0</i>
   <i type="logical" name="LHFCALC"> T  </i>
   <i type="string" name="PRECFOCK">fast</i>
   <i type="logical" name="LSYMGRAD"> F  </i>
   <i type="logical" name="LHFONE"> F  </i>
   <i type="logical" name="LRHFCALC"> F  </i>
   <i type="logical" name="LTHOMAS"> F  </i>
   <i type="logical" name="LMODELHF"> F  </i>
   <i name="ENCUT4O">     -1.00000000</i>
   <i type="int" name="EXXOEP">     0</i>
   <i type="int" name="FOURORBIT">     0</i>
   <i name="AEXX">      0.25000000</i>
   <i name="HFALPHA">     -1.00000000</i>
   <i name="MCALPHA">      0.00000000</i>
   <i name="ALDAX">      0.75000000</i>
   <i name="AGGAX">      0.75000000</i>
   <i name="ALDAC">      1.00000000</i>
   <i name="AGGAC">      1.00000000</i>
   <i type="int" name="NKREDX">     1</i>
   <i type="int" name="NKREDY">     1</i>
   <i type="int" name="NKREDZ">     1</i>
   <i type="logical" name="SHIFTRED"> F  </i>
   <i type="logical" name="ODDONLY"> F  </i>
   <i type="logical" name="EVENONLY"> F  </i>
   <i type="int" name="LMAXFOCK">     4</i>
   <i type="int" name="NMAXFOCKAE">     1</i>
   <i type="logical" name="LFOCKAEDFT"> F  </i>
   <i name="HFSCREEN">      0.20000000</i>
   <i name="HFSCREENC">      0.20000000</i>
   <i type="int" name="NBANDSGWLOW">     1</i>
  </separator>
  <separator name="vdW DFT" >
   <i type="logical" name="LUSE_VDW"> F  </i>
   <i name="Zab_VDW">     -0.84910000</i>
   <i name="PARAM1">      0.12340000</i>
   <i name="PARAM2">      1.00000000</i>
   <i name="PARAM3">      0.00000000</i>
  </separator>
  <separator name="model GW" >
   <i type="int" name="MODEL_GW">     0</i>
   <i name="MODEL_EPS0">     11.09505304</i>
   <i name="MODEL_ALPHA">      1.00000000</i>
  </separator>
  <separator name="linear response parameters" >
   <i type="logical" name="LEPSILON"> F  </i>
   <i type="logical" name="LRPA"> F  </i>
   <i type="logical" name="LNABLA"> F  </i>
   <i type="logical" name="LVEL"> F  </i>
   <i type="int" name="KINTER">     0</i>
   <i name="CSHIFT">      0.10000000</i>
   <i name="OMEGAMAX">     -1.00000000</i>
   <i name="DEG_THRESHOLD">      0.00200000</i>
  </separator>
  <separator name="orbital magnetization" >
   <i type="logical" name="NUCIND"> F  </i>
   <v name="MAGPOS">      0.00000000      0.00000000      0.00000000</v>
   <i type="logical" name="LNICSALL"> T  </i>
   <i type="logical" name="ORBITALMAG"> F  </i>
   <i type="logical" name="LMAGBLOCH"> F  </i>
   <i type="logical" name="LCHIMAG"> F  </i>
   <i type="logical" name="LGAUGE"> T  </i>
   <i type="int" name="MAGATOM">     0</i>
   <v name="MAGDIPOL">      0.00000000      0.00000000      0.00000000</v>
   <v name="AVECCONST">      0.00000000      0.00000000      0.00000000</v>
  </separator>
  <separator name="response functions" >
   <i type="logical" name="LADDER"> F  </i>
   <i type="logical" name="LFXC"> F  </i>
   <i type="logical" name="LHARTREE"> T  </i>
   <i type="int" name="IBSE">     0</i>
   <i type="logical" name="LTCTE"> F  </i>
   <i type="logical" name="LTETE"> F  </i>
   <i type="logical" name="LTRIPLET"> F  </i>
   <i type="logical" name="LFXCEPS"> F  </i>
   <i type="logical" name="L2ORDER"> F  </i>
   <i type="logical" name="LUSEW"> F  </i>
   <i name="ENCUTGW">     -2.00000000</i>
   <i name="ENCUTGWSOFT">     -2.00000000</i>
   <i name="ENCUTLF">     -1.00000000</i>
   <i type="int" name="LMAXMP2">    -1</i>
   <i name="SCISSOR">      0.00000000</i>
   <i type="int" name="NOMEGA">     0</i>
   <i type="int" name="NOMEGAR">     0</i>
   <i type="int" name="NBANDSGW">    -1</i>
   <i type="int" name="NBANDSO">    -1</i>
   <i type="int" name="NBANDSV">    -1</i>
   <i type="int" name="NELM">     1</i>
   <i type="int" name="DIM">     3</i>
   <i type="int" name="ANTIRES">     0</i>
   <i name="OMEGAMAX">    -30.00000000</i>
   <i name="OMEGATL">   -200.00000000</i>
   <i type="int" name="OMEGAGRID">     0</i>
   <i name="CSHIFT">     -0.10000000</i>
   <i type="logical" name="SELFENERGY"> F  </i>
   <i type="logical" name="LSPECTRAL"> F  </i>
   <i type="logical" name="ODDONLYGW"> F  </i>
   <i type="logical" name="EVENONLYGW"> F  </i>
   <i type="int" name="NKREDLFX">     1</i>
   <i type="int" name="NKREDLFY">     1</i>
   <i type="int" name="NKREDLFZ">     1</i>
   <i type="int" name="MAXMEM">  1800</i>
   <i type="int" name="TELESCOPE">     0</i>
  </separator>
 </parameters>
 <atominfo>
  <atoms>      12 </atoms>
  <types>       3 </types>
  <array name="atoms" >
   <dimension dim="1">ion</dimension>
   <field type="string">element</field>
   <field type="int">atomtype</field>
   <set>
    <rc><c>Cu</c><c>   1</c></rc>
    <rc><c>Cu</c><c>   1</c></rc>
    <rc><c>Cu</c><c>   1</c></rc>
    <rc><c>Cu</c><c>   1</c></rc>
    <rc><c>Ge</c><c>   2</c></rc>
    <rc><c>Ge</c><c>   2</c></rc>
    <rc><c>S </c><c>   3</c></rc>
    <rc><c>S </c><c>   3</c></rc>
    <rc><c>S </c><c>   3</c></rc>
    <rc><c>S </c><c>   3</c></rc>
    <rc><c>S </c><c>   3</c></rc>
    <rc><c>S </c><c>   3</c></rc>
   </set>
  </array>
  <array name="atomtypes" >
   <dimension dim="1">type</dimension>
   <field type="int">atomspertype</field>
   <field type="string">element</field>
   <field>mass</field>
   <field>valence</field>
   <field type="string">pseudopotential</field>
   <set>
    <rc><c>   4</c><c>Cu</c><c>     63.54600000</c><c>     17.00000000</c><c>  PAW_PBE Cu_pv 06Sep2000               </c></rc>
    <rc><c>   2</c><c>Ge</c><c>     72.61000000</c><c>      4.00000000</c><c>  PAW_PBE Ge 05Jan2001                  </c></rc>
    <rc><c>   6</c><c>S </c><c>     32.06600000</c><c>      6.00000000</c><c>  PAW_PBE S 17Jan2003                   </c></rc>
   </set>
  </array>
 </atominfo>
 <structure name="initialpos" >
  <crystal>
   <varray name="basis" >
    <v>       3.22479600      -5.64383000       0.03157200 </v>
    <v>       3.22479600       5.64383000       0.03157200 </v>
    <v>      -2.10194600       0.00000000       6.07553700 </v>
   </varray>
   <i name="volume">    221.90106089 </i>
   <varray name="rec_basis" >
    <v>       0.15452516      -0.08859232       0.05346088 </v>
    <v>       0.15452516       0.08859232       0.05346088 </v>
    <v>      -0.00160600       0.00000000       0.16403888 </v>
   </varray>
  </crystal>
  <varray name="positions" >
   <v>       0.61844300       0.12117100       0.11953300 </v>
   <v>       0.12117100       0.61844300       0.61953300 </v>
   <v>       0.96295700       0.79032200       0.12036848 </v>
   <v>       0.79032200       0.96295700       0.61881300 </v>
   <v>       0.43973200       0.26728100       0.59904700 </v>
   <v>       0.26728100       0.43973200       0.09904700 </v>
   <v>       0.07949800       0.91167500       0.49736300 </v>
   <v>       0.57140300       0.41236400       0.98018400 </v>
   <v>       0.73711100       0.25006200       0.49504900 </v>
   <v>       0.41236400       0.57140300       0.48018400 </v>
   <v>       0.91167500       0.07949800       0.99736300 </v>
   <v>       0.25006200       0.73711100       0.99504900 </v>
  </varray>
 </structure>
 <calculation>
  <scstep>
   <time name="total">  248.93  249.15</time>
   <energy>
    <i name="alphaZ">    339.31929130 </i>
    <i name="ewald">  -9064.66361233 </i>
    <i name="hartreedc">  -8066.95705098 </i>
    <i name="XCdc">    369.89338022 </i>
    <i name="pawpsdc">  16958.25468668 </i>
    <i name="pawaedc"> -17450.99284292 </i>
    <i name="eentropy">     -0.00144936 </i>
    <i name="bandstr">  -1657.55799540 </i>
    <i name="atom">  18320.98302006 </i>
    <i name="e_fr_energy">     75.71890724 </i>
    <i name="e_wo_entrp">     75.72035660 </i>
    <i name="e_0_energy">     75.71939036 </i>
   </energy>
  </scstep>
  <scstep>
   <time name="total">  258.91  259.10</time>
   <energy>
    <i name="e_fr_energy">     -8.26380491 </i>
    <i name="e_wo_entrp">     -8.26320918 </i>
    <i name="e_0_energy">     -8.26360633 </i>
   </energy>
  </scstep>
  <scstep>
   <time name="total">  258.07  258.27</time>
   <energy>
    <i name="e_fr_energy">    -15.10513306 </i>
    <i name="e_wo_entrp">    -15.10539787 </i>
    <i name="e_0_energy">    -15.10522133 </i>
   </energy>
  </scstep>
  <scstep>
   <time name="total">  261.70  261.62</time>
   <energy>
    <i name="e_fr_energy">    -22.60838555 </i>
    <i name="e_wo_entrp">    -22.60874899 </i>
    <i name="e_0_energy">    -22.60850670 </i>
   </energy>
  </scstep>
  <scstep>
   <time name="total">  265.69  265.50</time>
   <energy>
    <i name="e_fr_energy">    -60.78903473 </i>
    <i name="e_wo_entrp">    -60.78965535 </i>
    <i name="e_0_energy">    -60.78924161 </i>
   </energy>
  </scstep>
  <scstep>
   <time name="total">  261.75  261.55</time>
   <energy>
    <i name="e_fr_energy">    -65.96027616 </i>
    <i name="e_wo_entrp">    -65.96090423 </i>
    <i name="e_0_energy">    -65.96048551 </i>
   </energy>
  </scstep>
  <scstep>
   <time name="total">  268.72  268.60</time>
   <energy>
    <i name="e_fr_energy">    -67.48959382 </i>
    <i name="e_wo_entrp">    -67.49000773 </i>
    <i name="e_0_energy">    -67.48973179 </i>
   </energy>
  </scstep>
  <scstep>
   <time name="total">  253.42  253.21</time>
   <energy>
    <i name="e_fr_energy">    -69.08490725 </i>
    <i name="e_wo_entrp">    -69.08561601 </i>
    <i name="e_0_energy">    -69.08514350 </i>
   </energy>
  </scstep>
  <scstep>
   <time name="total">  253.07  252.86</time>
   <energy>
    <i name="e_fr_energy">    -69.39675797 </i>
    <i name="e_wo_entrp">    -69.39759668 </i>
    <i name="e_0_energy">    -69.39703754 </i>
   </energy>
  </scstep>
  <scstep>
   <time name="total">  253.84  253.63</time>
   <energy>
    <i name="e_fr_energy">    -69.49932282 </i>
    <i name="e_wo_entrp">    -69.50000781 </i>
    <i name="e_0_energy">    -69.49955115 </i>
   </energy>
  </scstep>
  <scstep>
   <time name="total">  254.86  254.66</time>
   <energy>
    <i name="e_fr_energy">    -69.56855610 </i>
    <i name="e_wo_entrp">    -69.56913546 </i>
    <i name="e_0_energy">    -69.56874922 </i>
   </energy>
  </scstep>
  <scstep>
   <time name="total">  252.98  252.79</time>
   <energy>
    <i name="e_fr_energy">    -69.58096294 </i>
    <i name="e_wo_entrp">    -69.58149479 </i>
    <i name="e_0_energy">    -69.58114023 </i>
   </energy>
  </scstep>
  <scstep>
   <time name="total">  253.93  253.73</time>
   <energy>
    <i name="e_fr_energy">    -69.59054187 </i>
    <i name="e_wo_entrp">    -69.59106232 </i>
    <i name="e_0_energy">    -69.59071535 </i>
   </energy>
  </scstep>
  <scstep>
   <time name="total">  260.93  260.72</time>
   <energy>
    <i name="e_fr_energy">    -69.59300254 </i>
    <i name="e_wo_entrp">    -69.59353911 </i>
    <i name="e_0_energy">    -69.59318140 </i>
   </energy>
  </scstep>
  <scstep>
   <time name="total">  254.31  254.10</time>
   <energy>
    <i name="e_fr_energy">    -69.59450312 </i>
    <i name="e_wo_entrp">    -69.59505153 </i>
    <i name="e_0_energy">    -69.59468592 </i>
   </energy>
  </scstep>
  <scstep>
   <time name="total">  251.98  251.78</time>
   <energy>
    <i name="e_fr_energy">    -69.59507197 </i>
    <i name="e_wo_entrp">    -69.59562115 </i>
    <i name="e_0_energy">    -69.59525503 </i>
   </energy>
  </scstep>
  <scstep>
   <time name="total">  259.42  259.21</time>
   <energy>
    <i name="e_fr_energy">    -69.59524581 </i>
    <i name="e_wo_entrp">    -69.59579225 </i>
    <i name="e_0_energy">    -69.59542796 </i>
   </energy>
  </scstep>
  <scstep>
   <time name="total">  256.42  256.22</time>
   <energy>
    <i name="e_fr_energy">    -69.59536269 </i>
    <i name="e_wo_entrp">    -69.59590637 </i>
    <i name="e_0_energy">    -69.59554391 </i>
   </energy>
  </scstep>
  <scstep>
   <time name="total">  260.22  260.01</time>
   <energy>
    <i name="e_fr_energy">    -69.59539197 </i>
    <i name="e_wo_entrp">    -69.59593435 </i>
    <i name="e_0_energy">    -69.59557276 </i>
   </energy>
  </scstep>
  <scstep>
   <time name="total">  257.90  257.69</time>
   <energy>
    <i name="e_fr_energy">    -69.59541182 </i>
    <i name="e_wo_entrp">    -69.59595454 </i>
    <i name="e_0_energy">    -69.59559273 </i>
   </energy>
  </scstep>
  <scstep>
   <time name="total">  254.41  254.21</time>
   <energy>
    <i name="alphaZ">    339.31929130 </i>
    <i name="ewald">  -9064.66361233 </i>
    <i name="hartreedc">  -8149.44354184 </i>
    <i name="XCdc">    372.06802810 </i>
    <i name="pawpsdc">  15921.80811532 </i>
    <i name="pawaedc"> -16406.99919178 </i>
    <i name="eentropy">      0.00054327 </i>
    <i name="bandstr">  -1742.73353839 </i>
    <i name="atom">  18320.98302006 </i>
    <i name="e_fr_energy">    -69.59541930 </i>
    <i name="e_wo_entrp">    -69.59596256 </i>
    <i name="e_0_energy">    -69.59560039 </i>
   </energy>
  </scstep>
  <structure>
   <crystal>
    <varray name="basis" >
     <v>       3.22479600      -5.64383000       0.03157200 </v>
     <v>       3.22479600       5.64383000       0.03157200 </v>
     <v>      -2.10194600       0.00000000       6.07553700 </v>
    </varray>
    <i name="volume">    221.90106089 </i>
    <varray name="rec_basis" >
     <v>       0.15452516      -0.08859232       0.05346088 </v>
     <v>       0.15452516       0.08859232       0.05346088 </v>
     <v>      -0.00160600       0.00000000       0.16403888 </v>
    </varray>
   </crystal>
   <varray name="positions" >
    <v>       0.61844300       0.12117100       0.11953300 </v>
    <v>       0.12117100       0.61844300       0.61953300 </v>
    <v>       0.96295700       0.79032200       0.12036848 </v>
    <v>       0.79032200       0.96295700       0.61881300 </v>
    <v>       0.43973200       0.26728100       0.59904700 </v>
    <v>       0.26728100       0.43973200       0.09904700 </v>
    <v>       0.07949800       0.91167500       0.49736300 </v>
    <v>       0.57140300       0.41236400       0.98018400 </v>
    <v>       0.73711100       0.25006200       0.49504900 </v>
    <v>       0.41236400       0.57140300       0.48018400 </v>
    <v>       0.91167500       0.07949800       0.99736300 </v>
    <v>       0.25006200       0.73711100       0.99504900 </v>
   </varray>
  </structure>
  <varray name="forces" >
   <v>      -0.00314851      -0.00163771       0.00052254 </v>
   <v>      -0.00413029       0.00074198       0.00323815 </v>
   <v>       0.02100509      -0.00186196      -0.05520370 </v>
   <v>       0.00137657       0.00066116       0.00387444 </v>
   <v>       0.00793846       0.00696216       0.00515484 </v>
   <v>      -0.00089716      -0.00421438       0.00035638 </v>
   <v>      -0.00584096       0.00182516       0.02782444 </v>
   <v>      -0.00095686      -0.00657817       0.00397649 </v>
   <v>      -0.00246650       0.00274910      -0.00041805 </v>
   <v>      -0.00086180       0.00709145       0.00146869 </v>
   <v>      -0.00164134      -0.01279130       0.00376674 </v>
   <v>      -0.01037672       0.00705249       0.00543904 </v>
  </varray>
  <energy>
   <i name="e_fr_energy">    -69.59541930 </i>
   <i name="e_wo_entrp">    -69.59560039 </i>
   <i name="e_0_energy">      0.00054327 </i>
  </energy>
  <time name="totalsc"> 5933.17 5932.87</time>
  <eigenvalues>
   <array>
    <dimension dim="1">band</dimension>
    <dimension dim="2">kpoint</dimension>
    <dimension dim="3">spin</dimension>
    <field>eigene</field>
    <field>occ</field>
    <set>
     <set comment="spin 1">
      <set comment="kpoint 1">
       <r>  -68.6462    1.0000 </r>
       <r>  -68.6445    1.0000 </r>
       <r>  -68.6339    1.0000 </r>
       <r>  -68.6330    1.0000 </r>
       <r>  -68.6140    1.0000 </r>
       <r>  -68.6125    1.0000 </r>
       <r>  -68.5967    1.0000 </r>
       <r>  -68.5950    1.0000 </r>
       <r>  -68.5798    1.0000 </r>
       <r>  -68.5780    1.0000 </r>
       <r>  -68.5613    1.0000 </r>
       <r>  -68.5584    1.0000 </r>
       <r>  -12.7211    1.0000 </r>
       <r>  -11.1300    1.0000 </r>
       <r>  -10.9169    1.0000 </r>
       <r>  -10.6035    1.0000 </r>
       <r>  -10.2526    1.0000 </r>
       <r>  -10.2338    1.0000 </r>
       <r>   -5.9847    1.0000 </r>
       <r>   -4.9839    1.0000 </r>
       <r>   -2.7610    1.0000 </r>
       <r>   -2.2098    1.0000 </r>
       <r>   -2.0698    1.0000 </r>
       <r>   -1.9224    1.0000 </r>
       <r>   -1.5773    1.0000 </r>
       <r>   -0.9824    1.0000 </r>
       <r>   -0.9511    1.0000 </r>
       <r>   -0.6864    1.0000 </r>
       <r>   -0.4036    1.0000 </r>
       <r>   -0.2762    1.0000 </r>
       <r>   -0.2593    1.0000 </r>
       <r>   -0.2342    1.0000 </r>
       <r>   -0.1924    1.0000 </r>
       <r>   -0.1524    1.0000 </r>
       <r>   -0.0387    1.0000 </r>
       <r>    0.0307    1.0000 </r>
       <r>    1.3507    1.0000 </r>
       <r>    1.3626    1.0000 </r>
       <r>    1.4145    1.0000 </r>
       <r>    1.4578    1.0000 </r>
       <r>    1.4710    1.0000 </r>
       <r>    1.4737    1.0000 </r>
       <r>    1.5205    1.0000 </r>
       <r>    1.5326    1.0000 </r>
       <r>    1.5751    1.0000 </r>
       <r>    1.7128    1.0000 </r>
       <r>    1.8939    1.0000 </r>
       <r>    1.9300    1.0000 </r>
       <r>    2.0612    1.0000 </r>
       <r>    2.6498    1.0000 </r>
       <r>    2.7281    1.0000 </r>
       <r>    3.0889    1.0000 </r>
       <r>    3.2135    1.0000 </r>
       <r>    4.0059    1.0044 </r>
       <r>    4.0370    1.0122 </r>
       <r>    4.1734    0.8681 </r>
       <r>    5.5375   -0.0000 </r>
       <r>    6.3590   -0.0000 </r>
       <r>    7.6275    0.0000 </r>
       <r>    7.9850    0.0000 </r>
       <r>    8.6185    0.0000 </r>
       <r>    8.7916    0.0000 </r>
       <r>    9.5724    0.0000 </r>
       <r>    9.7380    0.0000 </r>
       <r>    9.8151    0.0000 </r>
       <r>   10.4210    0.0000 </r>
       <r>   10.5798    0.0000 </r>
       <r>   10.6979    0.0000 </r>
       <r>   10.7156    0.0000 </r>
       <r>   11.2823    0.0000 </r>
       <r>   11.7106    0.0000 </r>
       <r>   12.3918    0.0000 </r>
       <r>   12.4530    0.0000 </r>
       <r>   12.7275    0.0000 </r>
       <r>   13.3188    0.0000 </r>
       <r>   13.3836    0.0000 </r>
       <r>   13.8303    0.0000 </r>
       <r>   13.8913    0.0000 </r>
       <r>   14.1433    0.0000 </r>
       <r>   14.1821    0.0000 </r>
      </set>
      <set comment="kpoint 2">
       <r>  -68.6461    1.0000 </r>
       <r>  -68.6445    1.0000 </r>
       <r>  -68.6339    1.0000 </r>
       <r>  -68.6329    1.0000 </r>
       <r>  -68.6139    1.0000 </r>
       <r>  -68.6124    1.0000 </r>
       <r>  -68.5967    1.0000 </r>
       <r>  -68.5950    1.0000 </r>
       <r>  -68.5798    1.0000 </r>
       <r>  -68.5780    1.0000 </r>
       <r>  -68.5612    1.0000 </r>
       <r>  -68.5583    1.0000 </r>
       <r>  -12.5962    1.0000 </r>
       <r>  -11.1263    1.0000 </r>
       <r>  -10.9827    1.0000 </r>
       <r>  -10.6806    1.0000 </r>
       <r>  -10.3652    1.0000 </r>
       <r>  -10.2766    1.0000 </r>
       <r>   -5.9331    1.0000 </r>
       <r>   -4.7733    1.0000 </r>
       <r>   -2.6455    1.0000 </r>
       <r>   -2.2536    1.0000 </r>
       <r>   -2.0851    1.0000 </r>
       <r>   -1.6886    1.0000 </r>
       <r>   -1.3471    1.0000 </r>
       <r>   -0.9995    1.0000 </r>
       <r>   -0.7712    1.0000 </r>
       <r>   -0.6224    1.0000 </r>
       <r>   -0.5524    1.0000 </r>
       <r>   -0.4364    1.0000 </r>
       <r>   -0.3617    1.0000 </r>
       <r>   -0.2406    1.0000 </r>
       <r>   -0.1943    1.0000 </r>
       <r>   -0.1640    1.0000 </r>
       <r>   -0.0471    1.0000 </r>
       <r>    0.0378    1.0000 </r>
       <r>    1.2800    1.0000 </r>
       <r>    1.3355    1.0000 </r>
       <r>    1.3547    1.0000 </r>
       <r>    1.3930    1.0000 </r>
       <r>    1.4271    1.0000 </r>
       <r>    1.4718    1.0000 </r>
       <r>    1.4979    1.0000 </r>
       <r>    1.5300    1.0000 </r>
       <r>    1.7247    1.0000 </r>
       <r>    1.8599    1.0000 </r>
       <r>    2.0575    1.0000 </r>
       <r>    2.0936    1.0000 </r>
       <r>    2.2338    1.0000 </r>
       <r>    2.4135    1.0000 </r>
       <r>    2.5550    1.0000 </r>
       <r>    2.8235    1.0000 </r>
       <r>    2.9462    1.0000 </r>
       <r>    3.2420    1.0000 </r>
       <r>    3.6632    1.0000 </r>
       <r>    4.0403    1.0134 </r>
       <r>    6.1702   -0.0000 </r>
       <r>    6.9059   -0.0000 </r>
       <r>    8.1359    0.0000 </r>
       <r>    8.2690    0.0000 </r>
       <r>    8.5937    0.0000 </r>
       <r>    9.0118    0.0000 </r>
       <r>    9.2444    0.0000 </r>
       <r>    9.5324    0.0000 </r>
       <r>    9.8649    0.0000 </r>
       <r>   10.3766    0.0000 </r>
       <r>   10.6343    0.0000 </r>
       <r>   10.8132    0.0000 </r>
       <r>   10.9379    0.0000 </r>
       <r>   11.1921    0.0000 </r>
       <r>   11.6571    0.0000 </r>
       <r>   11.7690    0.0000 </r>
       <r>   12.1171    0.0000 </r>
       <r>   12.4401    0.0000 </r>
       <r>   12.6182    0.0000 </r>
       <r>   13.0090    0.0000 </r>
       <r>   13.5076    0.0000 </r>
       <r>   13.8735    0.0000 </r>
       <r>   14.2139    0.0000 </r>
       <r>   14.7111    0.0000 </r>
      </set>
      <set comment="kpoint 3">
       <r>  -68.6460    1.0000 </r>
       <r>  -68.6443    1.0000 </r>
       <r>  -68.6338    1.0000 </r>
       <r>  -68.6328    1.0000 </r>
       <r>  -68.6138    1.0000 </r>
       <r>  -68.6124    1.0000 </r>
       <r>  -68.5966    1.0000 </r>
       <r>  -68.5950    1.0000 </r>
       <r>  -68.5797    1.0000 </r>
       <r>  -68.5780    1.0000 </r>
       <r>  -68.5611    1.0000 </r>
       <r>  -68.5582    1.0000 </r>
       <r>  -12.4368    1.0000 </r>
       <r>  -11.2469    1.0000 </r>
       <r>  -10.9570    1.0000 </r>
       <r>  -10.7717    1.0000 </r>
       <r>  -10.4240    1.0000 </r>
       <r>  -10.3571    1.0000 </r>
       <r>   -5.8709    1.0000 </r>
       <r>   -4.5480    1.0000 </r>
       <r>   -2.4928    1.0000 </r>
       <r>   -2.2462    1.0000 </r>
       <r>   -1.9435    1.0000 </r>
       <r>   -1.4659    1.0000 </r>
       <r>   -1.2246    1.0000 </r>
       <r>   -1.1078    1.0000 </r>
       <r>   -0.8985    1.0000 </r>
       <r>   -0.8659    1.0000 </r>
       <r>   -0.5999    1.0000 </r>
       <r>   -0.5328    1.0000 </r>
       <r>   -0.2743    1.0000 </r>
       <r>   -0.2090    1.0000 </r>
       <r>   -0.1976    1.0000 </r>
       <r>   -0.1432    1.0000 </r>
       <r>   -0.0291    1.0000 </r>
       <r>    0.0799    1.0000 </r>
       <r>    1.2542    1.0000 </r>
       <r>    1.3274    1.0000 </r>
       <r>    1.3470    1.0000 </r>
       <r>    1.3977    1.0000 </r>
       <r>    1.4697    1.0000 </r>
       <r>    1.4783    1.0000 </r>
       <r>    1.5003    1.0000 </r>
       <r>    1.5536    1.0000 </r>
       <r>    1.7524    1.0000 </r>
       <r>    1.7905    1.0000 </r>
       <r>    1.9671    1.0000 </r>
       <r>    2.1455    1.0000 </r>
       <r>    2.3202    1.0000 </r>
       <r>    2.3618    1.0000 </r>
       <r>    2.5557    1.0000 </r>
       <r>    2.6700    1.0000 </r>
       <r>    2.9393    1.0000 </r>
       <r>    3.0790    1.0000 </r>
       <r>    3.2497    1.0000 </r>
       <r>    3.8619    1.0000 </r>
       <r>    6.3850   -0.0000 </r>
       <r>    7.0968    0.0000 </r>
       <r>    7.9812    0.0000 </r>
       <r>    8.2040    0.0000 </r>
       <r>    8.5203    0.0000 </r>
       <r>    8.8211    0.0000 </r>
       <r>    9.3284    0.0000 </r>
       <r>    9.8894    0.0000 </r>
       <r>   10.0110    0.0000 </r>
       <r>   10.5193    0.0000 </r>
       <r>   10.6918    0.0000 </r>
       <r>   10.7931    0.0000 </r>
       <r>   11.1413    0.0000 </r>
       <r>   11.4090    0.0000 </r>
       <r>   11.6083    0.0000 </r>
       <r>   11.7727    0.0000 </r>
       <r>   11.9406    0.0000 </r>
       <r>   12.5035    0.0000 </r>
       <r>   12.7795    0.0000 </r>
       <r>   13.0012    0.0000 </r>
       <r>   13.3971    0.0000 </r>
       <r>   13.5399    0.0000 </r>
       <r>   13.9426    0.0000 </r>
       <r>   14.2738    0.0000 </r>
      </set>
      <set comment="kpoint 4">
       <r>  -68.6461    1.0000 </r>
       <r>  -68.6444    1.0000 </r>
       <r>  -68.6339    1.0000 </r>
       <r>  -68.6329    1.0000 </r>
       <r>  -68.6139    1.0000 </r>
       <r>  -68.6124    1.0000 </r>
       <r>  -68.5967    1.0000 </r>
       <r>  -68.5951    1.0000 </r>
       <r>  -68.5798    1.0000 </r>
       <r>  -68.5780    1.0000 </r>
       <r>  -68.5612    1.0000 </r>
       <r>  -68.5583    1.0000 </r>
       <r>  -12.5961    1.0000 </r>
       <r>  -11.1289    1.0000 </r>
       <r>  -10.9822    1.0000 </r>
       <r>  -10.6758    1.0000 </r>
       <r>  -10.3656    1.0000 </r>
       <r>  -10.2788    1.0000 </r>
       <r>   -5.9330    1.0000 </r>
       <r>   -4.7736    1.0000 </r>
       <r>   -2.6465    1.0000 </r>
       <r>   -2.2509    1.0000 </r>
       <r>   -2.0870    1.0000 </r>
       <r>   -1.6903    1.0000 </r>
       <r>   -1.3438    1.0000 </r>
       <r>   -1.0000    1.0000 </r>
       <r>   -0.7683    1.0000 </r>
       <r>   -0.6234    1.0000 </r>
       <r>   -0.5528    1.0000 </r>
       <r>   -0.4397    1.0000 </r>
       <r>   -0.3586    1.0000 </r>
       <r>   -0.2427    1.0000 </r>
       <r>   -0.1914    1.0000 </r>
       <r>   -0.1707    1.0000 </r>
       <r>   -0.0444    1.0000 </r>
       <r>    0.0386    1.0000 </r>
       <r>    1.2790    1.0000 </r>
       <r>    1.3361    1.0000 </r>
       <r>    1.3555    1.0000 </r>
       <r>    1.3921    1.0000 </r>
       <r>    1.4273    1.0000 </r>
       <r>    1.4720    1.0000 </r>
       <r>    1.4982    1.0000 </r>
       <r>    1.5303    1.0000 </r>
       <r>    1.7247    1.0000 </r>
       <r>    1.8586    1.0000 </r>
       <r>    2.0583    1.0000 </r>
       <r>    2.0949    1.0000 </r>
       <r>    2.2324    1.0000 </r>
       <r>    2.4144    1.0000 </r>
       <r>    2.5546    1.0000 </r>
       <r>    2.8242    1.0000 </r>
       <r>    2.9454    1.0000 </r>
       <r>    3.2419    1.0000 </r>
       <r>    3.6632    1.0000 </r>
       <r>    4.0402    1.0134 </r>
       <r>    6.1707   -0.0000 </r>
       <r>    6.9059   -0.0000 </r>
       <r>    8.1371    0.0000 </r>
       <r>    8.2673    0.0000 </r>
       <r>    8.5939    0.0000 </r>
       <r>    9.0129    0.0000 </r>
       <r>    9.2432    0.0000 </r>
       <r>    9.5310    0.0000 </r>
       <r>    9.8662    0.0000 </r>
       <r>   10.3775    0.0000 </r>
       <r>   10.6341    0.0000 </r>
       <r>   10.8149    0.0000 </r>
       <r>   10.9374    0.0000 </r>
       <r>   11.1911    0.0000 </r>
       <r>   11.6554    0.0000 </r>
       <r>   11.7685    0.0000 </r>
       <r>   12.1167    0.0000 </r>
       <r>   12.4406    0.0000 </r>
       <r>   12.6196    0.0000 </r>
       <r>   13.0091    0.0000 </r>
       <r>   13.5182    0.0000 </r>
       <r>   13.9012    0.0000 </r>
       <r>   14.2710    0.0000 </r>
       <r>   14.8423    0.0000 </r>
      </set>
      <set comment="kpoint 5">
       <r>  -68.6461    1.0000 </r>
       <r>  -68.6445    1.0000 </r>
       <r>  -68.6338    1.0000 </r>
       <r>  -68.6328    1.0000 </r>
       <r>  -68.6140    1.0000 </r>
       <r>  -68.6125    1.0000 </r>
       <r>  -68.5966    1.0000 </r>
       <r>  -68.5949    1.0000 </r>
       <r>  -68.5799    1.0000 </r>
       <r>  -68.5781    1.0000 </r>
       <r>  -68.5613    1.0000 </r>
       <r>  -68.5583    1.0000 </r>
       <r>  -12.4405    1.0000 </r>
       <r>  -11.1911    1.0000 </r>
       <r>  -10.9430    1.0000 </r>
       <r>  -10.8795    1.0000 </r>
       <r>  -10.3912    1.0000 </r>
       <r>  -10.3493    1.0000 </r>
       <r>   -5.8759    1.0000 </r>
       <r>   -4.5218    1.0000 </r>
       <r>   -2.4178    1.0000 </r>
       <r>   -2.2455    1.0000 </r>
       <r>   -1.7912    1.0000 </r>
       <r>   -1.6815    1.0000 </r>
       <r>   -1.3551    1.0000 </r>
       <r>   -1.2986    1.0000 </r>
       <r>   -1.0848    1.0000 </r>
       <r>   -0.6845    1.0000 </r>
       <r>   -0.5234    1.0000 </r>
       <r>   -0.2973    1.0000 </r>
       <r>   -0.2821    1.0000 </r>
       <r>   -0.2231    1.0000 </r>
       <r>   -0.1871    1.0000 </r>
       <r>   -0.1256    1.0000 </r>
       <r>   -0.0897    1.0000 </r>
       <r>    0.0789    1.0000 </r>
       <r>    1.2933    1.0000 </r>
       <r>    1.3109    1.0000 </r>
       <r>    1.4154    1.0000 </r>
       <r>    1.4267    1.0000 </r>
       <r>    1.4634    1.0000 </r>
       <r>    1.4825    1.0000 </r>
       <r>    1.4954    1.0000 </r>
       <r>    1.5698    1.0000 </r>
       <r>    1.6714    1.0000 </r>
       <r>    1.8802    1.0000 </r>
       <r>    1.9407    1.0000 </r>
       <r>    2.1342    1.0000 </r>
       <r>    2.2786    1.0000 </r>
       <r>    2.3194    1.0000 </r>
       <r>    2.5596    1.0000 </r>
       <r>    2.6498    1.0000 </r>
       <r>    2.9028    1.0000 </r>
       <r>    2.9443    1.0000 </r>
       <r>    3.6996    1.0000 </r>
       <r>    3.8324    1.0000 </r>
       <r>    6.1718   -0.0000 </r>
       <r>    6.9900    0.0000 </r>
       <r>    8.0046    0.0000 </r>
       <r>    8.3281    0.0000 </r>
       <r>    8.4361    0.0000 </r>
       <r>    8.5718    0.0000 </r>
       <r>    9.1465    0.0000 </r>
       <r>    9.2480    0.0000 </r>
       <r>   10.3622    0.0000 </r>
       <r>   10.4964    0.0000 </r>
       <r>   10.9199    0.0000 </r>
       <r>   11.1845    0.0000 </r>
       <r>   11.3281    0.0000 </r>
       <r>   11.5574    0.0000 </r>
       <r>   11.8119    0.0000 </r>
       <r>   11.9631    0.0000 </r>
       <r>   12.3139    0.0000 </r>
       <r>   12.5035    0.0000 </r>
       <r>   12.7101    0.0000 </r>
       <r>   12.9149    0.0000 </r>
       <r>   13.3393    0.0000 </r>
       <r>   13.4447    0.0000 </r>
       <r>   14.2565    0.0000 </r>
       <r>   14.3666    0.0000 </r>
      </set>
      <set comment="kpoint 6">
       <r>  -68.6458    1.0000 </r>
       <r>  -68.6443    1.0000 </r>
       <r>  -68.6338    1.0000 </r>
       <r>  -68.6329    1.0000 </r>
       <r>  -68.6138    1.0000 </r>
       <r>  -68.6123    1.0000 </r>
       <r>  -68.5966    1.0000 </r>
       <r>  -68.5950    1.0000 </r>
       <r>  -68.5796    1.0000 </r>
       <r>  -68.5780    1.0000 </r>
       <r>  -68.5611    1.0000 </r>
       <r>  -68.5582    1.0000 </r>
       <r>  -12.4411    1.0000 </r>
       <r>  -11.3536    1.0000 </r>
       <r>  -10.9379    1.0000 </r>
       <r>  -10.7412    1.0000 </r>
       <r>  -10.3880    1.0000 </r>
       <r>  -10.2706    1.0000 </r>
       <r>   -5.9478    1.0000 </r>
       <r>   -4.6428    1.0000 </r>
       <r>   -2.3914    1.0000 </r>
       <r>   -2.2269    1.0000 </r>
       <r>   -2.0554    1.0000 </r>
       <r>   -1.6407    1.0000 </r>
       <r>   -1.3638    1.0000 </r>
       <r>   -1.2783    1.0000 </r>
       <r>   -1.0260    1.0000 </r>
       <r>   -0.5087    1.0000 </r>
       <r>   -0.4854    1.0000 </r>
       <r>   -0.3306    1.0000 </r>
       <r>   -0.2861    1.0000 </r>
       <r>   -0.2147    1.0000 </r>
       <r>   -0.1504    1.0000 </r>
       <r>   -0.1334    1.0000 </r>
       <r>   -0.0089    1.0000 </r>
       <r>    0.1115    1.0000 </r>
       <r>    1.2465    1.0000 </r>
       <r>    1.3152    1.0000 </r>
       <r>    1.3823    1.0000 </r>
       <r>    1.4371    1.0000 </r>
       <r>    1.4619    1.0000 </r>
       <r>    1.4922    1.0000 </r>
       <r>    1.4970    1.0000 </r>
       <r>    1.5493    1.0000 </r>
       <r>    1.7496    1.0000 </r>
       <r>    1.8285    1.0000 </r>
       <r>    1.9213    1.0000 </r>
       <r>    2.1312    1.0000 </r>
       <r>    2.2200    1.0000 </r>
       <r>    2.3866    1.0000 </r>
       <r>    2.5631    1.0000 </r>
       <r>    2.7897    1.0000 </r>
       <r>    2.9790    1.0000 </r>
       <r>    3.3123    1.0000 </r>
       <r>    3.6034    1.0000 </r>
       <r>    3.7497    1.0000 </r>
       <r>    6.0873   -0.0000 </r>
       <r>    6.9396   -0.0000 </r>
       <r>    7.6114    0.0000 </r>
       <r>    8.0686    0.0000 </r>
       <r>    8.4111    0.0000 </r>
       <r>    8.6160    0.0000 </r>
       <r>    8.9840    0.0000 </r>
       <r>    9.1521    0.0000 </r>
       <r>   10.0870    0.0000 </r>
       <r>   10.3362    0.0000 </r>
       <r>   10.7319    0.0000 </r>
       <r>   11.1077    0.0000 </r>
       <r>   11.4604    0.0000 </r>
       <r>   11.5922    0.0000 </r>
       <r>   11.7981    0.0000 </r>
       <r>   12.0867    0.0000 </r>
       <r>   12.4773    0.0000 </r>
       <r>   12.9149    0.0000 </r>
       <r>   13.0390    0.0000 </r>
       <r>   13.8278    0.0000 </r>
       <r>   14.1913    0.0000 </r>
       <r>   14.6541    0.0000 </r>
       <r>   15.4348    0.0000 </r>
       <r>   15.6435    0.0000 </r>
      </set>
      <set comment="kpoint 7">
       <r>  -68.6461    1.0000 </r>
       <r>  -68.6444    1.0000 </r>
       <r>  -68.6339    1.0000 </r>
       <r>  -68.6329    1.0000 </r>
       <r>  -68.6138    1.0000 </r>
       <r>  -68.6123    1.0000 </r>
       <r>  -68.5967    1.0000 </r>
       <r>  -68.5950    1.0000 </r>
       <r>  -68.5797    1.0000 </r>
       <r>  -68.5779    1.0000 </r>
       <r>  -68.5612    1.0000 </r>
       <r>  -68.5583    1.0000 </r>
       <r>  -12.5991    1.0000 </r>
       <r>  -11.2518    1.0000 </r>
       <r>  -10.9913    1.0000 </r>
       <r>  -10.5718    1.0000 </r>
       <r>  -10.3654    1.0000 </r>
       <r>  -10.1803    1.0000 </r>
       <r>   -6.0101    1.0000 </r>
       <r>   -4.8954    1.0000 </r>
       <r>   -2.6475    1.0000 </r>
       <r>   -2.3136    1.0000 </r>
       <r>   -1.9710    1.0000 </r>
       <r>   -1.6461    1.0000 </r>
       <r>   -1.4951    1.0000 </r>
       <r>   -1.1839    1.0000 </r>
       <r>   -0.7907    1.0000 </r>
       <r>   -0.5842    1.0000 </r>
       <r>   -0.4455    1.0000 </r>
       <r>   -0.3324    1.0000 </r>
       <r>   -0.2951    1.0000 </r>
       <r>   -0.2327    1.0000 </r>
       <r>   -0.1766    1.0000 </r>
       <r>   -0.1326    1.0000 </r>
       <r>   -0.0089    1.0000 </r>
       <r>    0.0712    1.0000 </r>
       <r>    1.2590    1.0000 </r>
       <r>    1.3201    1.0000 </r>
       <r>    1.3652    1.0000 </r>
       <r>    1.4231    1.0000 </r>
       <r>    1.4316    1.0000 </r>
       <r>    1.4758    1.0000 </r>
       <r>    1.5037    1.0000 </r>
       <r>    1.5438    1.0000 </r>
       <r>    1.7252    1.0000 </r>
       <r>    1.8122    1.0000 </r>
       <r>    1.9959    1.0000 </r>
       <r>    2.0729    1.0000 </r>
       <r>    2.4186    1.0000 </r>
       <r>    2.4616    1.0000 </r>
       <r>    2.5295    1.0000 </r>
       <r>    2.8711    1.0000 </r>
       <r>    3.1441    1.0000 </r>
       <r>    3.2267    1.0000 </r>
       <r>    3.7844    1.0000 </r>
       <r>    4.0706    1.0265 </r>
       <r>    5.9785   -0.0000 </r>
       <r>    6.6884   -0.0000 </r>
       <r>    7.5331    0.0000 </r>
       <r>    8.2229    0.0000 </r>
       <r>    8.6164    0.0000 </r>
       <r>    8.9135    0.0000 </r>
       <r>    9.3071    0.0000 </r>
       <r>    9.4313    0.0000 </r>
       <r>    9.8036    0.0000 </r>
       <r>   10.2723    0.0000 </r>
       <r>   10.5428    0.0000 </r>
       <r>   10.8318    0.0000 </r>
       <r>   10.9722    0.0000 </r>
       <r>   11.3803    0.0000 </r>
       <r>   11.4704    0.0000 </r>
       <r>   11.7351    0.0000 </r>
       <r>   12.0985    0.0000 </r>
       <r>   12.6637    0.0000 </r>
       <r>   12.9431    0.0000 </r>
       <r>   13.1025    0.0000 </r>
       <r>   13.3541    0.0000 </r>
       <r>   13.5200    0.0000 </r>
       <r>   14.4757    0.0000 </r>
       <r>   14.7563    0.0000 </r>
      </set>
      <set comment="kpoint 8">
       <r>  -68.6460    1.0000 </r>
       <r>  -68.6443    1.0000 </r>
       <r>  -68.6338    1.0000 </r>
       <r>  -68.6328    1.0000 </r>
       <r>  -68.6139    1.0000 </r>
       <r>  -68.6123    1.0000 </r>
       <r>  -68.5966    1.0000 </r>
       <r>  -68.5950    1.0000 </r>
       <r>  -68.5798    1.0000 </r>
       <r>  -68.5779    1.0000 </r>
       <r>  -68.5611    1.0000 </r>
       <r>  -68.5582    1.0000 </r>
       <r>  -12.4366    1.0000 </r>
       <r>  -11.2521    1.0000 </r>
       <r>  -10.9567    1.0000 </r>
       <r>  -10.7612    1.0000 </r>
       <r>  -10.4275    1.0000 </r>
       <r>  -10.3596    1.0000 </r>
       <r>   -5.8707    1.0000 </r>
       <r>   -4.5487    1.0000 </r>
       <r>   -2.4949    1.0000 </r>
       <r>   -2.2431    1.0000 </r>
       <r>   -1.9462    1.0000 </r>
       <r>   -1.4636    1.0000 </r>
       <r>   -1.2249    1.0000 </r>
       <r>   -1.1006    1.0000 </r>
       <r>   -0.9040    1.0000 </r>
       <r>   -0.8654    1.0000 </r>
       <r>   -0.5990    1.0000 </r>
       <r>   -0.5360    1.0000 </r>
       <r>   -0.2756    1.0000 </r>
       <r>   -0.2054    1.0000 </r>
       <r>   -0.1995    1.0000 </r>
       <r>   -0.1460    1.0000 </r>
       <r>   -0.0264    1.0000 </r>
       <r>    0.0792    1.0000 </r>
       <r>    1.2538    1.0000 </r>
       <r>    1.3295    1.0000 </r>
       <r>    1.3471    1.0000 </r>
       <r>    1.3958    1.0000 </r>
       <r>    1.4714    1.0000 </r>
       <r>    1.4777    1.0000 </r>
       <r>    1.4996    1.0000 </r>
       <r>    1.5534    1.0000 </r>
       <r>    1.7530    1.0000 </r>
       <r>    1.7911    1.0000 </r>
       <r>    1.9685    1.0000 </r>
       <r>    2.1472    1.0000 </r>
       <r>    2.3187    1.0000 </r>
       <r>    2.3605    1.0000 </r>
       <r>    2.5541    1.0000 </r>
       <r>    2.6694    1.0000 </r>
       <r>    2.9368    1.0000 </r>
       <r>    3.0802    1.0000 </r>
       <r>    3.2539    1.0000 </r>
       <r>    3.8609    1.0000 </r>
       <r>    6.3858   -0.0000 </r>
       <r>    7.0967    0.0000 </r>
       <r>    7.9811    0.0000 </r>
       <r>    8.2060    0.0000 </r>
       <r>    8.5177    0.0000 </r>
       <r>    8.8213    0.0000 </r>
       <r>    9.3264    0.0000 </r>
       <r>    9.8881    0.0000 </r>
       <r>   10.0116    0.0000 </r>
       <r>   10.5199    0.0000 </r>
       <r>   10.6928    0.0000 </r>
       <r>   10.7927    0.0000 </r>
       <r>   11.1411    0.0000 </r>
       <r>   11.4055    0.0000 </r>
       <r>   11.6088    0.0000 </r>
       <r>   11.7800    0.0000 </r>
       <r>   11.9427    0.0000 </r>
       <r>   12.5061    0.0000 </r>
       <r>   12.8230    0.0000 </r>
       <r>   13.0292    0.0000 </r>
       <r>   13.5496    0.0000 </r>
       <r>   13.6842    0.0000 </r>
       <r>   14.5524    0.0000 </r>
       <r>   15.2466    0.0000 </r>
      </set>
      <set comment="kpoint 9">
       <r>  -68.6459    1.0000 </r>
       <r>  -68.6443    1.0000 </r>
       <r>  -68.6338    1.0000 </r>
       <r>  -68.6329    1.0000 </r>
       <r>  -68.6138    1.0000 </r>
       <r>  -68.6123    1.0000 </r>
       <r>  -68.5966    1.0000 </r>
       <r>  -68.5950    1.0000 </r>
       <r>  -68.5797    1.0000 </r>
       <r>  -68.5779    1.0000 </r>
       <r>  -68.5611    1.0000 </r>
       <r>  -68.5582    1.0000 </r>
       <r>  -12.4409    1.0000 </r>
       <r>  -11.3551    1.0000 </r>
       <r>  -10.9381    1.0000 </r>
       <r>  -10.7381    1.0000 </r>
       <r>  -10.3872    1.0000 </r>
       <r>  -10.2730    1.0000 </r>
       <r>   -5.9477    1.0000 </r>
       <r>   -4.6431    1.0000 </r>
       <r>   -2.3928    1.0000 </r>
       <r>   -2.2252    1.0000 </r>
       <r>   -2.0572    1.0000 </r>
       <r>   -1.6391    1.0000 </r>
       <r>   -1.3585    1.0000 </r>
       <r>   -1.2826    1.0000 </r>
       <r>   -1.0252    1.0000 </r>
       <r>   -0.5131    1.0000 </r>
       <r>   -0.4838    1.0000 </r>
       <r>   -0.3292    1.0000 </r>
       <r>   -0.2829    1.0000 </r>
       <r>   -0.2170    1.0000 </r>
       <r>   -0.1522    1.0000 </r>
       <r>   -0.1338    1.0000 </r>
       <r>   -0.0092    1.0000 </r>
       <r>    0.1124    1.0000 </r>
       <r>    1.2457    1.0000 </r>
       <r>    1.3149    1.0000 </r>
       <r>    1.3838    1.0000 </r>
       <r>    1.4368    1.0000 </r>
       <r>    1.4624    1.0000 </r>
       <r>    1.4922    1.0000 </r>
       <r>    1.4964    1.0000 </r>
       <r>    1.5500    1.0000 </r>
       <r>    1.7488    1.0000 </r>
       <r>    1.8272    1.0000 </r>
       <r>    1.9233    1.0000 </r>
       <r>    2.1336    1.0000 </r>
       <r>    2.2204    1.0000 </r>
       <r>    2.3847    1.0000 </r>
       <r>    2.5611    1.0000 </r>
       <r>    2.7907    1.0000 </r>
       <r>    2.9779    1.0000 </r>
       <r>    3.3134    1.0000 </r>
       <r>    3.6042    1.0000 </r>
       <r>    3.7486    1.0000 </r>
       <r>    6.0878   -0.0000 </r>
       <r>    6.9401   -0.0000 </r>
       <r>    7.6114    0.0000 </r>
       <r>    8.0684    0.0000 </r>
       <r>    8.4106    0.0000 </r>
       <r>    8.6166    0.0000 </r>
       <r>    8.9830    0.0000 </r>
       <r>    9.1520    0.0000 </r>
       <r>   10.0870    0.0000 </r>
       <r>   10.3341    0.0000 </r>
       <r>   10.7330    0.0000 </r>
       <r>   11.1080    0.0000 </r>
       <r>   11.4592    0.0000 </r>
       <r>   11.5782    0.0000 </r>
       <r>   11.7861    0.0000 </r>
       <r>   12.0330    0.0000 </r>
       <r>   12.5202    0.0000 </r>
       <r>   12.6860    0.0000 </r>
       <r>   12.9130    0.0000 </r>
       <r>   13.2036    0.0000 </r>
       <r>   14.2308    0.0000 </r>
       <r>   14.7688    0.0000 </r>
       <r>   15.2468    0.0000 </r>
       <r>   15.9068    0.0000 </r>
      </set>
      <set comment="kpoint 10">
       <r>  -68.6458    1.0000 </r>
       <r>  -68.6441    1.0000 </r>
       <r>  -68.6336    1.0000 </r>
       <r>  -68.6327    1.0000 </r>
       <r>  -68.6136    1.0000 </r>
       <r>  -68.6123    1.0000 </r>
       <r>  -68.5964    1.0000 </r>
       <r>  -68.5948    1.0000 </r>
       <r>  -68.5796    1.0000 </r>
       <r>  -68.5778    1.0000 </r>
       <r>  -68.5609    1.0000 </r>
       <r>  -68.5580    1.0000 </r>
       <r>  -12.4330    1.0000 </r>
       <r>  -11.5016    1.0000 </r>
       <r>  -10.9131    1.0000 </r>
       <r>  -10.6196    1.0000 </r>
       <r>  -10.3962    1.0000 </r>
       <r>  -10.1993    1.0000 </r>
       <r>   -6.0264    1.0000 </r>
       <r>   -4.8115    1.0000 </r>
       <r>   -2.3130    1.0000 </r>
       <r>   -2.2631    1.0000 </r>
       <r>   -2.0931    1.0000 </r>
       <r>   -1.7003    1.0000 </r>
       <r>   -1.2457    1.0000 </r>
       <r>   -1.1116    1.0000 </r>
       <r>   -0.8434    1.0000 </r>
       <r>   -0.7809    1.0000 </r>
       <r>   -0.7252    1.0000 </r>
       <r>   -0.2459    1.0000 </r>
       <r>   -0.1977    1.0000 </r>
       <r>   -0.1818    1.0000 </r>
       <r>   -0.1537    1.0000 </r>
       <r>   -0.0411    1.0000 </r>
       <r>   -0.0031    1.0000 </r>
       <r>    0.1845    1.0000 </r>
       <r>    1.2655    1.0000 </r>
       <r>    1.3181    1.0000 </r>
       <r>    1.3754    1.0000 </r>
       <r>    1.4143    1.0000 </r>
       <r>    1.4324    1.0000 </r>
       <r>    1.4924    1.0000 </r>
       <r>    1.5095    1.0000 </r>
       <r>    1.5498    1.0000 </r>
       <r>    1.7875    1.0000 </r>
       <r>    1.8471    1.0000 </r>
       <r>    1.9974    1.0000 </r>
       <r>    2.1493    1.0000 </r>
       <r>    2.2514    1.0000 </r>
       <r>    2.3361    1.0000 </r>
       <r>    2.5598    1.0000 </r>
       <r>    2.7614    1.0000 </r>
       <r>    2.7769    1.0000 </r>
       <r>    3.3727    1.0000 </r>
       <r>    3.7647    1.0000 </r>
       <r>    4.0071    1.0047 </r>
       <r>    5.8537   -0.0000 </r>
       <r>    6.7640   -0.0000 </r>
       <r>    7.0852    0.0000 </r>
       <r>    8.4108    0.0000 </r>
       <r>    8.5608    0.0000 </r>
       <r>    8.7701    0.0000 </r>
       <r>    9.1419    0.0000 </r>
       <r>    9.2401    0.0000 </r>
       <r>    9.9594    0.0000 </r>
       <r>   10.2839    0.0000 </r>
       <r>   10.7264    0.0000 </r>
       <r>   10.8257    0.0000 </r>
       <r>   10.8754    0.0000 </r>
       <r>   11.2763    0.0000 </r>
       <r>   11.7546    0.0000 </r>
       <r>   11.9131    0.0000 </r>
       <r>   11.9772    0.0000 </r>
       <r>   12.3667    0.0000 </r>
       <r>   12.5401    0.0000 </r>
       <r>   13.4570    0.0000 </r>
       <r>   14.2789    0.0000 </r>
       <r>   14.6727    0.0000 </r>
       <r>   16.7481    0.0000 </r>
       <r>   16.7546    0.0000 </r>
      </set>
      <set comment="kpoint 11">
       <r>  -68.6462    1.0000 </r>
       <r>  -68.6445    1.0000 </r>
       <r>  -68.6339    1.0000 </r>
       <r>  -68.6329    1.0000 </r>
       <r>  -68.6139    1.0000 </r>
       <r>  -68.6124    1.0000 </r>
       <r>  -68.5967    1.0000 </r>
       <r>  -68.5951    1.0000 </r>
       <r>  -68.5798    1.0000 </r>
       <r>  -68.5780    1.0000 </r>
       <r>  -68.5613    1.0000 </r>
       <r>  -68.5584    1.0000 </r>
       <r>  -12.6179    1.0000 </r>
       <r>  -11.4255    1.0000 </r>
       <r>  -10.7787    1.0000 </r>
       <r>  -10.6086    1.0000 </r>
       <r>  -10.2518    1.0000 </r>
       <r>  -10.2355    1.0000 </r>
       <r>   -5.8310    1.0000 </r>
       <r>   -5.0472    1.0000 </r>
       <r>   -2.6010    1.0000 </r>
       <r>   -2.3723    1.0000 </r>
       <r>   -1.9624    1.0000 </r>
       <r>   -1.7747    1.0000 </r>
       <r>   -1.4438    1.0000 </r>
       <r>   -1.1261    1.0000 </r>
       <r>   -1.0647    1.0000 </r>
       <r>   -0.7725    1.0000 </r>
       <r>   -0.4731    1.0000 </r>
       <r>   -0.2945    1.0000 </r>
       <r>   -0.2390    1.0000 </r>
       <r>   -0.2310    1.0000 </r>
       <r>   -0.1897    1.0000 </r>
       <r>   -0.1440    1.0000 </r>
       <r>   -0.0178    1.0000 </r>
       <r>    0.0227    1.0000 </r>
       <r>    1.3337    1.0000 </r>
       <r>    1.3813    1.0000 </r>
       <r>    1.4167    1.0000 </r>
       <r>    1.4394    1.0000 </r>
       <r>    1.4650    1.0000 </r>
       <r>    1.4665    1.0000 </r>
       <r>    1.5148    1.0000 </r>
       <r>    1.5458    1.0000 </r>
       <r>    1.6329    1.0000 </r>
       <r>    1.7596    1.0000 </r>
       <r>    1.7876    1.0000 </r>
       <r>    1.9526    1.0000 </r>
       <r>    2.0892    1.0000 </r>
       <r>    2.6590    1.0000 </r>
       <r>    2.7185    1.0000 </r>
       <r>    3.1937    1.0000 </r>
       <r>    3.2491    1.0000 </r>
       <r>    3.5206    1.0000 </r>
       <r>    3.8943    1.0000 </r>
       <r>    3.9754    1.0013 </r>
       <r>    6.0462   -0.0000 </r>
       <r>    6.4178   -0.0000 </r>
       <r>    7.8241    0.0000 </r>
       <r>    7.9068    0.0000 </r>
       <r>    8.3651    0.0000 </r>
       <r>    8.8181    0.0000 </r>
       <r>    9.7757    0.0000 </r>
       <r>    9.7955    0.0000 </r>
       <r>   10.0631    0.0000 </r>
       <r>   10.5860    0.0000 </r>
       <r>   10.6465    0.0000 </r>
       <r>   10.8129    0.0000 </r>
       <r>   10.8561    0.0000 </r>
       <r>   11.4928    0.0000 </r>
       <r>   11.5564    0.0000 </r>
       <r>   12.0258    0.0000 </r>
       <r>   12.5816    0.0000 </r>
       <r>   12.7770    0.0000 </r>
       <r>   12.9113    0.0000 </r>
       <r>   13.2044    0.0000 </r>
       <r>   13.5334    0.0000 </r>
       <r>   13.8239    0.0000 </r>
       <r>   14.1968    0.0000 </r>
       <r>   14.7057    0.0000 </r>
      </set>
      <set comment="kpoint 12">
       <r>  -68.6461    1.0000 </r>
       <r>  -68.6444    1.0000 </r>
       <r>  -68.6339    1.0000 </r>
       <r>  -68.6329    1.0000 </r>
       <r>  -68.6140    1.0000 </r>
       <r>  -68.6125    1.0000 </r>
       <r>  -68.5966    1.0000 </r>
       <r>  -68.5950    1.0000 </r>
       <r>  -68.5798    1.0000 </r>
       <r>  -68.5780    1.0000 </r>
       <r>  -68.5612    1.0000 </r>
       <r>  -68.5583    1.0000 </r>
       <r>  -12.4588    1.0000 </r>
       <r>  -11.4664    1.0000 </r>
       <r>  -10.8643    1.0000 </r>
       <r>  -10.6916    1.0000 </r>
       <r>  -10.3736    1.0000 </r>
       <r>  -10.2440    1.0000 </r>
       <r>   -5.7666    1.0000 </r>
       <r>   -4.8042    1.0000 </r>
       <r>   -2.4453    1.0000 </r>
       <r>   -2.2331    1.0000 </r>
       <r>   -1.8482    1.0000 </r>
       <r>   -1.7131    1.0000 </r>
       <r>   -1.4366    1.0000 </r>
       <r>   -1.1884    1.0000 </r>
       <r>   -0.8935    1.0000 </r>
       <r>   -0.7463    1.0000 </r>
       <r>   -0.6055    1.0000 </r>
       <r>   -0.5229    1.0000 </r>
       <r>   -0.3074    1.0000 </r>
       <r>   -0.2417    1.0000 </r>
       <r>   -0.1724    1.0000 </r>
       <r>   -0.1206    1.0000 </r>
       <r>   -0.0536    1.0000 </r>
       <r>    0.0597    1.0000 </r>
       <r>    1.3025    1.0000 </r>
       <r>    1.3366    1.0000 </r>
       <r>    1.3695    1.0000 </r>
       <r>    1.4311    1.0000 </r>
       <r>    1.4469    1.0000 </r>
       <r>    1.4786    1.0000 </r>
       <r>    1.5205    1.0000 </r>
       <r>    1.5469    1.0000 </r>
       <r>    1.6432    1.0000 </r>
       <r>    1.8705    1.0000 </r>
       <r>    1.9783    1.0000 </r>
       <r>    2.0490    1.0000 </r>
       <r>    2.1940    1.0000 </r>
       <r>    2.4760    1.0000 </r>
       <r>    2.5945    1.0000 </r>
       <r>    2.8379    1.0000 </r>
       <r>    2.9620    1.0000 </r>
       <r>    3.1317    1.0000 </r>
       <r>    3.5682    1.0000 </r>
       <r>    3.7249    1.0000 </r>
       <r>    6.4419   -0.0000 </r>
       <r>    6.9572    0.0000 </r>
       <r>    8.1717    0.0000 </r>
       <r>    8.2469    0.0000 </r>
       <r>    8.8342    0.0000 </r>
       <r>    9.1284    0.0000 </r>
       <r>    9.4644    0.0000 </r>
       <r>    9.7977    0.0000 </r>
       <r>   10.0865    0.0000 </r>
       <r>   10.2981    0.0000 </r>
       <r>   10.7385    0.0000 </r>
       <r>   11.0785    0.0000 </r>
       <r>   11.2891    0.0000 </r>
       <r>   11.4242    0.0000 </r>
       <r>   11.6331    0.0000 </r>
       <r>   11.7222    0.0000 </r>
       <r>   12.0843    0.0000 </r>
       <r>   12.2681    0.0000 </r>
       <r>   12.5427    0.0000 </r>
       <r>   12.6572    0.0000 </r>
       <r>   12.9562    0.0000 </r>
       <r>   13.0623    0.0000 </r>
       <r>   13.6412    0.0000 </r>
       <r>   14.6906    0.0000 </r>
      </set>
      <set comment="kpoint 13">
       <r>  -68.6459    1.0000 </r>
       <r>  -68.6443    1.0000 </r>
       <r>  -68.6338    1.0000 </r>
       <r>  -68.6329    1.0000 </r>
       <r>  -68.6138    1.0000 </r>
       <r>  -68.6123    1.0000 </r>
       <r>  -68.5965    1.0000 </r>
       <r>  -68.5950    1.0000 </r>
       <r>  -68.5797    1.0000 </r>
       <r>  -68.5780    1.0000 </r>
       <r>  -68.5611    1.0000 </r>
       <r>  -68.5582    1.0000 </r>
       <r>  -12.3566    1.0000 </r>
       <r>  -11.4127    1.0000 </r>
       <r>  -10.9530    1.0000 </r>
       <r>  -10.6891    1.0000 </r>
       <r>  -10.4778    1.0000 </r>
       <r>  -10.3318    1.0000 </r>
       <r>   -5.7519    1.0000 </r>
       <r>   -4.7219    1.0000 </r>
       <r>   -2.5220    1.0000 </r>
       <r>   -2.1856    1.0000 </r>
       <r>   -1.9523    1.0000 </r>
       <r>   -1.5359    1.0000 </r>
       <r>   -1.3018    1.0000 </r>
       <r>   -1.0978    1.0000 </r>
       <r>   -0.8701    1.0000 </r>
       <r>   -0.7563    1.0000 </r>
       <r>   -0.5474    1.0000 </r>
       <r>   -0.4470    1.0000 </r>
       <r>   -0.2894    1.0000 </r>
       <r>   -0.1788    1.0000 </r>
       <r>   -0.1443    1.0000 </r>
       <r>   -0.1072    1.0000 </r>
       <r>   -0.0452    1.0000 </r>
       <r>    0.0224    1.0000 </r>
       <r>    1.2710    1.0000 </r>
       <r>    1.2989    1.0000 </r>
       <r>    1.3518    1.0000 </r>
       <r>    1.4289    1.0000 </r>
       <r>    1.4529    1.0000 </r>
       <r>    1.4797    1.0000 </r>
       <r>    1.5013    1.0000 </r>
       <r>    1.5884    1.0000 </r>
       <r>    1.7189    1.0000 </r>
       <r>    1.9314    1.0000 </r>
       <r>    2.0757    1.0000 </r>
       <r>    2.1450    1.0000 </r>
       <r>    2.2670    1.0000 </r>
       <r>    2.4038    1.0000 </r>
       <r>    2.5688    1.0000 </r>
       <r>    2.5976    1.0000 </r>
       <r>    2.8991    1.0000 </r>
       <r>    3.0092    1.0000 </r>
       <r>    3.3607    1.0000 </r>
       <r>    3.8995    1.0000 </r>
       <r>    6.3650   -0.0000 </r>
       <r>    6.8965   -0.0000 </r>
       <r>    7.5742    0.0000 </r>
       <r>    8.0837    0.0000 </r>
       <r>    8.5487    0.0000 </r>
       <r>    8.7978    0.0000 </r>
       <r>    9.2797    0.0000 </r>
       <r>    9.6284    0.0000 </r>
       <r>    9.9317    0.0000 </r>
       <r>   10.2759    0.0000 </r>
       <r>   10.6594    0.0000 </r>
       <r>   10.9286    0.0000 </r>
       <r>   10.9730    0.0000 </r>
       <r>   11.2797    0.0000 </r>
       <r>   11.5200    0.0000 </r>
       <r>   11.7849    0.0000 </r>
       <r>   12.2498    0.0000 </r>
       <r>   12.5555    0.0000 </r>
       <r>   13.0898    0.0000 </r>
       <r>   13.5301    0.0000 </r>
       <r>   14.2938    0.0000 </r>
       <r>   14.5640    0.0000 </r>
       <r>   15.1244    0.0000 </r>
       <r>   16.2657    0.0000 </r>
      </set>
      <set comment="kpoint 14">
       <r>  -68.6462    1.0000 </r>
       <r>  -68.6445    1.0000 </r>
       <r>  -68.6339    1.0000 </r>
       <r>  -68.6329    1.0000 </r>
       <r>  -68.6139    1.0000 </r>
       <r>  -68.6124    1.0000 </r>
       <r>  -68.5967    1.0000 </r>
       <r>  -68.5950    1.0000 </r>
       <r>  -68.5798    1.0000 </r>
       <r>  -68.5780    1.0000 </r>
       <r>  -68.5613    1.0000 </r>
       <r>  -68.5584    1.0000 </r>
       <r>  -12.5416    1.0000 </r>
       <r>  -11.3375    1.0000 </r>
       <r>  -10.8721    1.0000 </r>
       <r>  -10.6095    1.0000 </r>
       <r>  -10.3991    1.0000 </r>
       <r>  -10.2811    1.0000 </r>
       <r>   -5.8247    1.0000 </r>
       <r>   -4.9748    1.0000 </r>
       <r>   -2.6649    1.0000 </r>
       <r>   -2.4546    1.0000 </r>
       <r>   -2.0385    1.0000 </r>
       <r>   -1.5756    1.0000 </r>
       <r>   -1.1725    1.0000 </r>
       <r>   -0.9848    1.0000 </r>
       <r>   -0.7918    1.0000 </r>
       <r>   -0.6549    1.0000 </r>
       <r>   -0.5142    1.0000 </r>
       <r>   -0.3929    1.0000 </r>
       <r>   -0.2681    1.0000 </r>
       <r>   -0.2533    1.0000 </r>
       <r>   -0.1946    1.0000 </r>
       <r>   -0.1431    1.0000 </r>
       <r>   -0.0461    1.0000 </r>
       <r>    0.0133    1.0000 </r>
       <r>    1.2897    1.0000 </r>
       <r>    1.3116    1.0000 </r>
       <r>    1.3889    1.0000 </r>
       <r>    1.4092    1.0000 </r>
       <r>    1.4336    1.0000 </r>
       <r>    1.4560    1.0000 </r>
       <r>    1.4919    1.0000 </r>
       <r>    1.5652    1.0000 </r>
       <r>    1.6872    1.0000 </r>
       <r>    1.9160    1.0000 </r>
       <r>    1.9866    1.0000 </r>
       <r>    2.1466    1.0000 </r>
       <r>    2.3359    1.0000 </r>
       <r>    2.5670    1.0000 </r>
       <r>    2.6148    1.0000 </r>
       <r>    2.8281    1.0000 </r>
       <r>    2.9718    1.0000 </r>
       <r>    3.2492    1.0000 </r>
       <r>    3.6829    1.0000 </r>
       <r>    3.9446    1.0003 </r>
       <r>    6.1780   -0.0000 </r>
       <r>    6.6375   -0.0000 </r>
       <r>    7.7643    0.0000 </r>
       <r>    7.9727    0.0000 </r>
       <r>    8.2157    0.0000 </r>
       <r>    8.5622    0.0000 </r>
       <r>    9.3793    0.0000 </r>
       <r>    9.5766    0.0000 </r>
       <r>    9.9084    0.0000 </r>
       <r>   10.2518    0.0000 </r>
       <r>   10.5444    0.0000 </r>
       <r>   10.7871    0.0000 </r>
       <r>   10.8418    0.0000 </r>
       <r>   11.0687    0.0000 </r>
       <r>   11.5657    0.0000 </r>
       <r>   12.0220    0.0000 </r>
       <r>   12.5301    0.0000 </r>
       <r>   12.7512    0.0000 </r>
       <r>   12.9525    0.0000 </r>
       <r>   13.3102    0.0000 </r>
       <r>   13.4128    0.0000 </r>
       <r>   13.7412    0.0000 </r>
       <r>   13.8463    0.0000 </r>
       <r>   14.7267    0.0000 </r>
      </set>
      <set comment="kpoint 15">
       <r>  -68.6461    1.0000 </r>
       <r>  -68.6444    1.0000 </r>
       <r>  -68.6339    1.0000 </r>
       <r>  -68.6329    1.0000 </r>
       <r>  -68.6140    1.0000 </r>
       <r>  -68.6125    1.0000 </r>
       <r>  -68.5967    1.0000 </r>
       <r>  -68.5950    1.0000 </r>
       <r>  -68.5798    1.0000 </r>
       <r>  -68.5780    1.0000 </r>
       <r>  -68.5612    1.0000 </r>
       <r>  -68.5583    1.0000 </r>
       <r>  -12.4587    1.0000 </r>
       <r>  -11.4675    1.0000 </r>
       <r>  -10.8646    1.0000 </r>
       <r>  -10.6885    1.0000 </r>
       <r>  -10.3735    1.0000 </r>
       <r>  -10.2458    1.0000 </r>
       <r>   -5.7666    1.0000 </r>
       <r>   -4.8043    1.0000 </r>
       <r>   -2.4454    1.0000 </r>
       <r>   -2.2327    1.0000 </r>
       <r>   -1.8514    1.0000 </r>
       <r>   -1.7131    1.0000 </r>
       <r>   -1.4298    1.0000 </r>
       <r>   -1.1935    1.0000 </r>
       <r>   -0.8911    1.0000 </r>
       <r>   -0.7447    1.0000 </r>
       <r>   -0.6063    1.0000 </r>
       <r>   -0.5236    1.0000 </r>
       <r>   -0.3096    1.0000 </r>
       <r>   -0.2421    1.0000 </r>
       <r>   -0.1704    1.0000 </r>
       <r>   -0.1220    1.0000 </r>
       <r>   -0.0529    1.0000 </r>
       <r>    0.0592    1.0000 </r>
       <r>    1.3021    1.0000 </r>
       <r>    1.3360    1.0000 </r>
       <r>    1.3701    1.0000 </r>
       <r>    1.4326    1.0000 </r>
       <r>    1.4459    1.0000 </r>
       <r>    1.4793    1.0000 </r>
       <r>    1.5205    1.0000 </r>
       <r>    1.5465    1.0000 </r>
       <r>    1.6429    1.0000 </r>
       <r>    1.8706    1.0000 </r>
       <r>    1.9771    1.0000 </r>
       <r>    2.0490    1.0000 </r>
       <r>    2.1950    1.0000 </r>
       <r>    2.4764    1.0000 </r>
       <r>    2.5935    1.0000 </r>
       <r>    2.8388    1.0000 </r>
       <r>    2.9628    1.0000 </r>
       <r>    3.1319    1.0000 </r>
       <r>    3.5668    1.0000 </r>
       <r>    3.7249    1.0000 </r>
       <r>    6.4425   -0.0000 </r>
       <r>    6.9572    0.0000 </r>
       <r>    8.1715    0.0000 </r>
       <r>    8.2463    0.0000 </r>
       <r>    8.8336    0.0000 </r>
       <r>    9.1294    0.0000 </r>
       <r>    9.4664    0.0000 </r>
       <r>    9.7957    0.0000 </r>
       <r>   10.0846    0.0000 </r>
       <r>   10.3012    0.0000 </r>
       <r>   10.7393    0.0000 </r>
       <r>   11.0781    0.0000 </r>
       <r>   11.2901    0.0000 </r>
       <r>   11.4217    0.0000 </r>
       <r>   11.6310    0.0000 </r>
       <r>   11.7224    0.0000 </r>
       <r>   12.0853    0.0000 </r>
       <r>   12.2674    0.0000 </r>
       <r>   12.5428    0.0000 </r>
       <r>   12.6595    0.0000 </r>
       <r>   12.9540    0.0000 </r>
       <r>   13.0577    0.0000 </r>
       <r>   13.6560    0.0000 </r>
       <r>   14.6973    0.0000 </r>
      </set>
      <set comment="kpoint 16">
       <r>  -68.6460    1.0000 </r>
       <r>  -68.6443    1.0000 </r>
       <r>  -68.6337    1.0000 </r>
       <r>  -68.6328    1.0000 </r>
       <r>  -68.6138    1.0000 </r>
       <r>  -68.6123    1.0000 </r>
       <r>  -68.5965    1.0000 </r>
       <r>  -68.5949    1.0000 </r>
       <r>  -68.5797    1.0000 </r>
       <r>  -68.5779    1.0000 </r>
       <r>  -68.5611    1.0000 </r>
       <r>  -68.5582    1.0000 </r>
       <r>  -12.3270    1.0000 </r>
       <r>  -11.4756    1.0000 </r>
       <r>  -10.8649    1.0000 </r>
       <r>  -10.8560    1.0000 </r>
       <r>  -10.4079    1.0000 </r>
       <r>  -10.2858    1.0000 </r>
       <r>   -5.7479    1.0000 </r>
       <r>   -4.6917    1.0000 </r>
       <r>   -2.2415    1.0000 </r>
       <r>   -2.1388    1.0000 </r>
       <r>   -1.9276    1.0000 </r>
       <r>   -1.8494    1.0000 </r>
       <r>   -1.4532    1.0000 </r>
       <r>   -1.3978    1.0000 </r>
       <r>   -1.0401    1.0000 </r>
       <r>   -0.5208    1.0000 </r>
       <r>   -0.4632    1.0000 </r>
       <r>   -0.3495    1.0000 </r>
       <r>   -0.2484    1.0000 </r>
       <r>   -0.2161    1.0000 </r>
       <r>   -0.1601    1.0000 </r>
       <r>   -0.1125    1.0000 </r>
       <r>   -0.0868    1.0000 </r>
       <r>    0.0779    1.0000 </r>
       <r>    1.2612    1.0000 </r>
       <r>    1.3468    1.0000 </r>
       <r>    1.3980    1.0000 </r>
       <r>    1.4354    1.0000 </r>
       <r>    1.4531    1.0000 </r>
       <r>    1.5105    1.0000 </r>
       <r>    1.5353    1.0000 </r>
       <r>    1.5443    1.0000 </r>
       <r>    1.7538    1.0000 </r>
       <r>    1.8174    1.0000 </r>
       <r>    2.0398    1.0000 </r>
       <r>    2.1350    1.0000 </r>
       <r>    2.2847    1.0000 </r>
       <r>    2.3096    1.0000 </r>
       <r>    2.5222    1.0000 </r>
       <r>    2.7682    1.0000 </r>
       <r>    2.8983    1.0000 </r>
       <r>    3.2617    1.0000 </r>
       <r>    3.4954    1.0000 </r>
       <r>    3.8029    1.0000 </r>
       <r>    6.1834   -0.0000 </r>
       <r>    6.8412   -0.0000 </r>
       <r>    7.8273    0.0000 </r>
       <r>    8.0445    0.0000 </r>
       <r>    8.1901    0.0000 </r>
       <r>    8.7283    0.0000 </r>
       <r>    9.1534    0.0000 </r>
       <r>    9.3064    0.0000 </r>
       <r>   10.2191    0.0000 </r>
       <r>   10.4411    0.0000 </r>
       <r>   10.5931    0.0000 </r>
       <r>   11.0048    0.0000 </r>
       <r>   11.2401    0.0000 </r>
       <r>   11.4901    0.0000 </r>
       <r>   11.8121    0.0000 </r>
       <r>   12.1718    0.0000 </r>
       <r>   12.2061    0.0000 </r>
       <r>   12.5750    0.0000 </r>
       <r>   12.6886    0.0000 </r>
       <r>   13.1139    0.0000 </r>
       <r>   13.4151    0.0000 </r>
       <r>   13.8800    0.0000 </r>
       <r>   14.0053    0.0000 </r>
       <r>   14.5251    0.0000 </r>
      </set>
      <set comment="kpoint 17">
       <r>  -68.6458    1.0000 </r>
       <r>  -68.6442    1.0000 </r>
       <r>  -68.6337    1.0000 </r>
       <r>  -68.6330    1.0000 </r>
       <r>  -68.6137    1.0000 </r>
       <r>  -68.6124    1.0000 </r>
       <r>  -68.5966    1.0000 </r>
       <r>  -68.5950    1.0000 </r>
       <r>  -68.5796    1.0000 </r>
       <r>  -68.5780    1.0000 </r>
       <r>  -68.5611    1.0000 </r>
       <r>  -68.5582    1.0000 </r>
       <r>  -12.3739    1.0000 </r>
       <r>  -11.4738    1.0000 </r>
       <r>  -10.9359    1.0000 </r>
       <r>  -10.6560    1.0000 </r>
       <r>  -10.4201    1.0000 </r>
       <r>  -10.3026    1.0000 </r>
       <r>   -5.8009    1.0000 </r>
       <r>   -4.8367    1.0000 </r>
       <r>   -2.5259    1.0000 </r>
       <r>   -2.2455    1.0000 </r>
       <r>   -1.8716    1.0000 </r>
       <r>   -1.6430    1.0000 </r>
       <r>   -1.5048    1.0000 </r>
       <r>   -1.3064    1.0000 </r>
       <r>   -0.9019    1.0000 </r>
       <r>   -0.5325    1.0000 </r>
       <r>   -0.3785    1.0000 </r>
       <r>   -0.3495    1.0000 </r>
       <r>   -0.2245    1.0000 </r>
       <r>   -0.1802    1.0000 </r>
       <r>   -0.1584    1.0000 </r>
       <r>   -0.0784    1.0000 </r>
       <r>   -0.0260    1.0000 </r>
       <r>    0.0784    1.0000 </r>
       <r>    1.1893    1.0000 </r>
       <r>    1.3640    1.0000 </r>
       <r>    1.3974    1.0000 </r>
       <r>    1.4428    1.0000 </r>
       <r>    1.4629    1.0000 </r>
       <r>    1.5066    1.0000 </r>
       <r>    1.5193    1.0000 </r>
       <r>    1.5853    1.0000 </r>
       <r>    1.7407    1.0000 </r>
       <r>    1.8183    1.0000 </r>
       <r>    2.0364    1.0000 </r>
       <r>    2.2348    1.0000 </r>
       <r>    2.2692    1.0000 </r>
       <r>    2.3633    1.0000 </r>
       <r>    2.4876    1.0000 </r>
       <r>    2.6703    1.0000 </r>
       <r>    3.0541    1.0000 </r>
       <r>    3.4118    1.0000 </r>
       <r>    3.7298    1.0000 </r>
       <r>    3.8647    1.0000 </r>
       <r>    5.9307   -0.0000 </r>
       <r>    6.6128   -0.0000 </r>
       <r>    7.3524    0.0000 </r>
       <r>    7.9428    0.0000 </r>
       <r>    8.0666    0.0000 </r>
       <r>    8.7232    0.0000 </r>
       <r>    8.9067    0.0000 </r>
       <r>    9.1389    0.0000 </r>
       <r>    9.8443    0.0000 </r>
       <r>   10.3284    0.0000 </r>
       <r>   10.5555    0.0000 </r>
       <r>   10.9255    0.0000 </r>
       <r>   11.2239    0.0000 </r>
       <r>   11.4164    0.0000 </r>
       <r>   11.7489    0.0000 </r>
       <r>   12.0044    0.0000 </r>
       <r>   12.4965    0.0000 </r>
       <r>   12.8303    0.0000 </r>
       <r>   13.2072    0.0000 </r>
       <r>   14.1798    0.0000 </r>
       <r>   14.7148    0.0000 </r>
       <r>   15.1542    0.0000 </r>
       <r>   15.9128    0.0000 </r>
       <r>   16.5684    0.0000 </r>
      </set>
      <set comment="kpoint 18">
       <r>  -68.6461    1.0000 </r>
       <r>  -68.6444    1.0000 </r>
       <r>  -68.6339    1.0000 </r>
       <r>  -68.6330    1.0000 </r>
       <r>  -68.6139    1.0000 </r>
       <r>  -68.6124    1.0000 </r>
       <r>  -68.5967    1.0000 </r>
       <r>  -68.5951    1.0000 </r>
       <r>  -68.5798    1.0000 </r>
       <r>  -68.5780    1.0000 </r>
       <r>  -68.5612    1.0000 </r>
       <r>  -68.5583    1.0000 </r>
       <r>  -12.5001    1.0000 </r>
       <r>  -11.4260    1.0000 </r>
       <r>  -10.9472    1.0000 </r>
       <r>  -10.5832    1.0000 </r>
       <r>  -10.3741    1.0000 </r>
       <r>  -10.2078    1.0000 </r>
       <r>   -5.8287    1.0000 </r>
       <r>   -4.9407    1.0000 </r>
       <r>   -2.5720    1.0000 </r>
       <r>   -2.3670    1.0000 </r>
       <r>   -1.9167    1.0000 </r>
       <r>   -1.5956    1.0000 </r>
       <r>   -1.4170    1.0000 </r>
       <r>   -1.1197    1.0000 </r>
       <r>   -0.8161    1.0000 </r>
       <r>   -0.6761    1.0000 </r>
       <r>   -0.5333    1.0000 </r>
       <r>   -0.4670    1.0000 </r>
       <r>   -0.2511    1.0000 </r>
       <r>   -0.1959    1.0000 </r>
       <r>   -0.1695    1.0000 </r>
       <r>   -0.1197    1.0000 </r>
       <r>   -0.0367    1.0000 </r>
       <r>    0.0585    1.0000 </r>
       <r>    1.2807    1.0000 </r>
       <r>    1.3240    1.0000 </r>
       <r>    1.3448    1.0000 </r>
       <r>    1.4342    1.0000 </r>
       <r>    1.4513    1.0000 </r>
       <r>    1.4685    1.0000 </r>
       <r>    1.4936    1.0000 </r>
       <r>    1.5575    1.0000 </r>
       <r>    1.7267    1.0000 </r>
       <r>    1.8426    1.0000 </r>
       <r>    1.9696    1.0000 </r>
       <r>    2.0988    1.0000 </r>
       <r>    2.3394    1.0000 </r>
       <r>    2.4492    1.0000 </r>
       <r>    2.5399    1.0000 </r>
       <r>    2.8499    1.0000 </r>
       <r>    3.0511    1.0000 </r>
       <r>    3.2643    1.0000 </r>
       <r>    3.6732    1.0000 </r>
       <r>    3.7824    1.0000 </r>
       <r>    6.2612   -0.0000 </r>
       <r>    6.7999   -0.0000 </r>
       <r>    7.8126    0.0000 </r>
       <r>    8.1365    0.0000 </r>
       <r>    8.3369    0.0000 </r>
       <r>    8.9307    0.0000 </r>
       <r>    9.3388    0.0000 </r>
[...]
       <r>   11.7073    0.0000 </r>
       <r>   11.8949    0.0000 </r>
       <r>   12.2994    0.0000 </r>
       <r>   12.6583    0.0000 </r>
       <r>   13.0096    0.0000 </r>
       <r>   13.2309    0.0000 </r>
       <r>   13.6626    0.0000 </r>
       <r>   14.0704    0.0000 </r>
       <r>   14.3906    0.0000 </r>
       <r>   16.5133    0.0000 </r>
      </set>
      <set comment="kpoint 42">
       <r>  -68.6460    1.0000 </r>
       <r>  -68.6444    1.0000 </r>
       <r>  -68.6336    1.0000 </r>
       <r>  -68.6327    1.0000 </r>
       <r>  -68.6136    1.0000 </r>
       <r>  -68.6126    1.0000 </r>
       <r>  -68.5964    1.0000 </r>
       <r>  -68.5949    1.0000 </r>
       <r>  -68.5797    1.0000 </r>
       <r>  -68.5779    1.0000 </r>
       <r>  -68.5612    1.0000 </r>
       <r>  -68.5583    1.0000 </r>
       <r>  -12.1791    1.0000 </r>
       <r>  -11.7063    1.0000 </r>
       <r>  -10.7177    1.0000 </r>
       <r>  -10.6922    1.0000 </r>
       <r>  -10.5875    1.0000 </r>
       <r>  -10.3916    1.0000 </r>
       <r>   -5.4453    1.0000 </r>
       <r>   -5.0721    1.0000 </r>
       <r>   -2.5084    1.0000 </r>
       <r>   -2.3819    1.0000 </r>
       <r>   -1.9625    1.0000 </r>
       <r>   -1.3669    1.0000 </r>
       <r>   -1.3311    1.0000 </r>
       <r>   -1.0536    1.0000 </r>
       <r>   -0.8327    1.0000 </r>
       <r>   -0.7644    1.0000 </r>
       <r>   -0.4266    1.0000 </r>
       <r>   -0.3382    1.0000 </r>
       <r>   -0.2727    1.0000 </r>
       <r>   -0.2089    1.0000 </r>
       <r>   -0.1427    1.0000 </r>
       <r>   -0.1374    1.0000 </r>
       <r>   -0.0129    1.0000 </r>
       <r>    0.0266    1.0000 </r>
       <r>    1.1730    1.0000 </r>
       <r>    1.3711    1.0000 </r>
       <r>    1.3976    1.0000 </r>
       <r>    1.4530    1.0000 </r>
       <r>    1.4536    1.0000 </r>
       <r>    1.4990    1.0000 </r>
       <r>    1.5174    1.0000 </r>
       <r>    1.5496    1.0000 </r>
       <r>    1.7442    1.0000 </r>
       <r>    1.8215    1.0000 </r>
       <r>    1.9750    1.0000 </r>
       <r>    2.2267    1.0000 </r>
       <r>    2.3976    1.0000 </r>
       <r>    2.6120    1.0000 </r>
       <r>    2.6545    1.0000 </r>
       <r>    2.9168    1.0000 </r>
       <r>    3.0689    1.0000 </r>
       <r>    3.1167    1.0000 </r>
       <r>    3.2875    1.0000 </r>
       <r>    3.5836    1.0000 </r>
       <r>    6.2899   -0.0000 </r>
       <r>    6.3790   -0.0000 </r>
       <r>    7.3579    0.0000 </r>
       <r>    7.5238    0.0000 </r>
       <r>    8.3088    0.0000 </r>
       <r>    8.3343    0.0000 </r>
       <r>    9.1049    0.0000 </r>
       <r>    9.3600    0.0000 </r>
       <r>    9.7166    0.0000 </r>
       <r>    9.9490    0.0000 </r>
       <r>   10.5259    0.0000 </r>
       <r>   10.9872    0.0000 </r>
       <r>   11.4236    0.0000 </r>
       <r>   11.5664    0.0000 </r>
       <r>   12.0167    0.0000 </r>
       <r>   12.2837    0.0000 </r>
       <r>   12.4282    0.0000 </r>
       <r>   12.4797    0.0000 </r>
       <r>   13.0342    0.0000 </r>
       <r>   13.1498    0.0000 </r>
       <r>   14.1428    0.0000 </r>
       <r>   14.4357    0.0000 </r>
       <r>   15.1664    0.0000 </r>
       <r>   15.8722    0.0000 </r>
      </set>
     </set>
    </set>
   </array>
  </eigenvalues>
  <separator name="orbital magnetization" >
   <v name="MAGDIPOLOUT">      0.00000000      0.00000000      0.00000000</v>
  </separator>
  <dos>
   <i name="efermi">      4.22296969 </i>
   <total>
    <array>
     <dimension dim="1">gridpoints</dimension>
     <dimension dim="2">spin</dimension>
     <field>energy</field>
     <field>total</field>
     <field>integrated</field>
     <set>
      <set comment="spin 1">
       <r>   -72.8301     0.0000     0.0000 </r>
       <r>   -72.5238     0.0000     0.0000 </r>
       <r>   -72.2174     0.0000     0.0000 </r>
       <r>   -71.9110     0.0000     0.0000 </r>
       <r>   -71.6046     0.0000     0.0000 </r>
       <r>   -71.2982     0.0000     0.0000 </r>
       <r>   -70.9918     0.0000     0.0000 </r>
       <r>   -70.6855     0.0000     0.0000 </r>
       <r>   -70.3791     0.0000     0.0000 </r>
       <r>   -70.0727     0.0000     0.0000 </r>
       <r>   -69.7663     0.0000     0.0000 </r>
       <r>   -69.4599    -0.0000    -0.0000 </r>
       <r>   -69.1536    -0.0000    -0.0000 </r>
       <r>   -68.8472    -0.2157    -0.0661 </r>
       <r>   -68.5408    70.2253    21.4496 </r>
       <r>   -68.2344     8.3247    24.0001 </r>
       <r>   -67.9280    -0.0004    24.0000 </r>
       <r>   -67.6217     0.0000    24.0000 </r>
       <r>   -67.3153     0.0000    24.0000 </r>
       <r>   -67.0089     0.0000    24.0000 </r>
       <r>   -66.7025     0.0000    24.0000 </r>
       <r>   -66.3961     0.0000    24.0000 </r>
       <r>   -66.0898     0.0000    24.0000 </r>
       <r>   -65.7834     0.0000    24.0000 </r>
       <r>   -65.4770     0.0000    24.0000 </r>
       <r>   -65.1706     0.0000    24.0000 </r>
       <r>   -64.8642     0.0000    24.0000 </r>
       <r>   -64.5578     0.0000    24.0000 </r>
       <r>   -64.2515     0.0000    24.0000 </r>
       <r>   -63.9451     0.0000    24.0000 </r>
       <r>   -63.6387     0.0000    24.0000 </r>
       <r>   -63.3323     0.0000    24.0000 </r>
       <r>   -63.0259     0.0000    24.0000 </r>
       <r>   -62.7196     0.0000    24.0000 </r>
       <r>   -62.4132     0.0000    24.0000 </r>
       <r>   -62.1068     0.0000    24.0000 </r>
       <r>   -61.8004     0.0000    24.0000 </r>
       <r>   -61.4940     0.0000    24.0000 </r>
       <r>   -61.1877     0.0000    24.0000 </r>
       <r>   -60.8813     0.0000    24.0000 </r>
       <r>   -60.5749     0.0000    24.0000 </r>
       <r>   -60.2685     0.0000    24.0000 </r>
       <r>   -59.9621     0.0000    24.0000 </r>
       <r>   -59.6557     0.0000    24.0000 </r>
       <r>   -59.3494     0.0000    24.0000 </r>
       <r>   -59.0430     0.0000    24.0000 </r>
       <r>   -58.7366     0.0000    24.0000 </r>
       <r>   -58.4302     0.0000    24.0000 </r>
       <r>   -58.1238     0.0000    24.0000 </r>
       <r>   -57.8175     0.0000    24.0000 </r>
       <r>   -57.5111     0.0000    24.0000 </r>
       <r>   -57.2047     0.0000    24.0000 </r>
       <r>   -56.8983     0.0000    24.0000 </r>
       <r>   -56.5919     0.0000    24.0000 </r>
       <r>   -56.2856     0.0000    24.0000 </r>
       <r>   -55.9792     0.0000    24.0000 </r>
       <r>   -55.6728     0.0000    24.0000 </r>
       <r>   -55.3664     0.0000    24.0000 </r>
       <r>   -55.0600     0.0000    24.0000 </r>
       <r>   -54.7537     0.0000    24.0000 </r>
       <r>   -54.4473     0.0000    24.0000 </r>
       <r>   -54.1409     0.0000    24.0000 </r>
       <r>   -53.8345     0.0000    24.0000 </r>
       <r>   -53.5281     0.0000    24.0000 </r>
       <r>   -53.2217     0.0000    24.0000 </r>
       <r>   -52.9154     0.0000    24.0000 </r>
       <r>   -52.6090     0.0000    24.0000 </r>
       <r>   -52.3026     0.0000    24.0000 </r>
       <r>   -51.9962     0.0000    24.0000 </r>
       <r>   -51.6898     0.0000    24.0000 </r>
       <r>   -51.3835     0.0000    24.0000 </r>
       <r>   -51.0771     0.0000    24.0000 </r>
       <r>   -50.7707     0.0000    24.0000 </r>
       <r>   -50.4643     0.0000    24.0000 </r>
       <r>   -50.1579     0.0000    24.0000 </r>
       <r>   -49.8516     0.0000    24.0000 </r>
       <r>   -49.5452     0.0000    24.0000 </r>
       <r>   -49.2388     0.0000    24.0000 </r>
       <r>   -48.9324     0.0000    24.0000 </r>
       <r>   -48.6260     0.0000    24.0000 </r>
       <r>   -48.3197     0.0000    24.0000 </r>
       <r>   -48.0133     0.0000    24.0000 </r>
       <r>   -47.7069     0.0000    24.0000 </r>
       <r>   -47.4005     0.0000    24.0000 </r>
       <r>   -47.0941     0.0000    24.0000 </r>
       <r>   -46.7877     0.0000    24.0000 </r>
       <r>   -46.4814     0.0000    24.0000 </r>
       <r>   -46.1750     0.0000    24.0000 </r>
       <r>   -45.8686     0.0000    24.0000 </r>
       <r>   -45.5622     0.0000    24.0000 </r>
       <r>   -45.2558     0.0000    24.0000 </r>
       <r>   -44.9495     0.0000    24.0000 </r>
       <r>   -44.6431     0.0000    24.0000 </r>
       <r>   -44.3367     0.0000    24.0000 </r>
       <r>   -44.0303     0.0000    24.0000 </r>
       <r>   -43.7239     0.0000    24.0000 </r>
       <r>   -43.4176     0.0000    24.0000 </r>
       <r>   -43.1112     0.0000    24.0000 </r>
       <r>   -42.8048     0.0000    24.0000 </r>
       <r>   -42.4984     0.0000    24.0000 </r>
       <r>   -42.1920     0.0000    24.0000 </r>
       <r>   -41.8856     0.0000    24.0000 </r>
       <r>   -41.5793     0.0000    24.0000 </r>
       <r>   -41.2729     0.0000    24.0000 </r>
       <r>   -40.9665     0.0000    24.0000 </r>
       <r>   -40.6601     0.0000    24.0000 </r>
       <r>   -40.3537     0.0000    24.0000 </r>
       <r>   -40.0474     0.0000    24.0000 </r>
       <r>   -39.7410     0.0000    24.0000 </r>
       <r>   -39.4346     0.0000    24.0000 </r>
       <r>   -39.1282     0.0000    24.0000 </r>
       <r>   -38.8218     0.0000    24.0000 </r>
       <r>   -38.5155     0.0000    24.0000 </r>
       <r>   -38.2091     0.0000    24.0000 </r>
       <r>   -37.9027     0.0000    24.0000 </r>
       <r>   -37.5963     0.0000    24.0000 </r>
       <r>   -37.2899     0.0000    24.0000 </r>
       <r>   -36.9836     0.0000    24.0000 </r>
       <r>   -36.6772     0.0000    24.0000 </r>
       <r>   -36.3708     0.0000    24.0000 </r>
       <r>   -36.0644     0.0000    24.0000 </r>
       <r>   -35.7580     0.0000    24.0000 </r>
       <r>   -35.4516     0.0000    24.0000 </r>
       <r>   -35.1453     0.0000    24.0000 </r>
       <r>   -34.8389     0.0000    24.0000 </r>
       <r>   -34.5325     0.0000    24.0000 </r>
       <r>   -34.2261     0.0000    24.0000 </r>
       <r>   -33.9197     0.0000    24.0000 </r>
       <r>   -33.6134     0.0000    24.0000 </r>
       <r>   -33.3070     0.0000    24.0000 </r>
       <r>   -33.0006     0.0000    24.0000 </r>
       <r>   -32.6942     0.0000    24.0000 </r>
       <r>   -32.3878     0.0000    24.0000 </r>
       <r>   -32.0815     0.0000    24.0000 </r>
       <r>   -31.7751     0.0000    24.0000 </r>
       <r>   -31.4687     0.0000    24.0000 </r>
       <r>   -31.1623     0.0000    24.0000 </r>
       <r>   -30.8559     0.0000    24.0000 </r>
       <r>   -30.5496     0.0000    24.0000 </r>
       <r>   -30.2432     0.0000    24.0000 </r>
       <r>   -29.9368     0.0000    24.0000 </r>
       <r>   -29.6304     0.0000    24.0000 </r>
       <r>   -29.3240     0.0000    24.0000 </r>
       <r>   -29.0176     0.0000    24.0000 </r>
       <r>   -28.7113     0.0000    24.0000 </r>
       <r>   -28.4049     0.0000    24.0000 </r>
       <r>   -28.0985     0.0000    24.0000 </r>
       <r>   -27.7921     0.0000    24.0000 </r>
       <r>   -27.4857     0.0000    24.0000 </r>
       <r>   -27.1794     0.0000    24.0000 </r>
       <r>   -26.8730     0.0000    24.0000 </r>
       <r>   -26.5666     0.0000    24.0000 </r>
       <r>   -26.2602     0.0000    24.0000 </r>
       <r>   -25.9538     0.0000    24.0000 </r>
       <r>   -25.6475     0.0000    24.0000 </r>
       <r>   -25.3411     0.0000    24.0000 </r>
       <r>   -25.0347     0.0000    24.0000 </r>
       <r>   -24.7283     0.0000    24.0000 </r>
       <r>   -24.4219     0.0000    24.0000 </r>
       <r>   -24.1155     0.0000    24.0000 </r>
       <r>   -23.8092     0.0000    24.0000 </r>
       <r>   -23.5028     0.0000    24.0000 </r>
       <r>   -23.1964     0.0000    24.0000 </r>
       <r>   -22.8900     0.0000    24.0000 </r>
       <r>   -22.5836     0.0000    24.0000 </r>
       <r>   -22.2773     0.0000    24.0000 </r>
       <r>   -21.9709     0.0000    24.0000 </r>
       <r>   -21.6645     0.0000    24.0000 </r>
       <r>   -21.3581     0.0000    24.0000 </r>
       <r>   -21.0517     0.0000    24.0000 </r>
       <r>   -20.7454     0.0000    24.0000 </r>
       <r>   -20.4390     0.0000    24.0000 </r>
       <r>   -20.1326     0.0000    24.0000 </r>
       <r>   -19.8262     0.0000    24.0000 </r>
       <r>   -19.5198     0.0000    24.0000 </r>
       <r>   -19.2135     0.0000    24.0000 </r>
       <r>   -18.9071     0.0000    24.0000 </r>
       <r>   -18.6007     0.0000    24.0000 </r>
       <r>   -18.2943     0.0000    24.0000 </r>
       <r>   -17.9879     0.0000    24.0000 </r>
       <r>   -17.6815     0.0000    24.0000 </r>
       <r>   -17.3752     0.0000    24.0000 </r>
       <r>   -17.0688     0.0000    24.0000 </r>
       <r>   -16.7624     0.0000    24.0000 </r>
       <r>   -16.4560     0.0000    24.0000 </r>
       <r>   -16.1496     0.0000    24.0000 </r>
       <r>   -15.8433     0.0000    24.0000 </r>
       <r>   -15.5369     0.0000    24.0000 </r>
       <r>   -15.2305     0.0000    24.0000 </r>
       <r>   -14.9241     0.0000    24.0000 </r>
       <r>   -14.6177     0.0000    24.0000 </r>
       <r>   -14.3114     0.0000    24.0000 </r>
       <r>   -14.0050     0.0000    24.0000 </r>
       <r>   -13.6986    -0.0000    24.0000 </r>
       <r>   -13.3922    -0.0000    24.0000 </r>
       <r>   -13.0858    -0.0000    24.0000 </r>
       <r>   -12.7795    -0.0039    23.9988 </r>
       <r>   -12.4731     1.5498    24.4736 </r>
       <r>   -12.1667     3.5693    25.5672 </r>
       <r>   -11.8603     1.9073    26.1516 </r>
       <r>   -11.5539     2.1477    26.8096 </r>
       <r>   -11.2475     3.1920    27.7875 </r>
       <r>   -10.9412     2.5317    28.5632 </r>
       <r>   -10.6348     9.3315    31.4222 </r>
       <r>   -10.3284     9.3565    34.2889 </r>
       <r>   -10.0220     5.6030    36.0055 </r>
       <r>    -9.7156    -0.0180    36.0000 </r>
       <r>    -9.4093    -0.0000    36.0000 </r>
       <r>    -9.1029     0.0000    36.0000 </r>
       <r>    -8.7965     0.0000    36.0000 </r>
       <r>    -8.4901     0.0000    36.0000 </r>
       <r>    -8.1837     0.0000    36.0000 </r>
       <r>    -7.8774     0.0000    36.0000 </r>
       <r>    -7.5710     0.0000    36.0000 </r>
       <r>    -7.2646     0.0000    36.0000 </r>
       <r>    -6.9582    -0.0000    36.0000 </r>
       <r>    -6.6518    -0.0000    36.0000 </r>
       <r>    -6.3454    -0.0000    36.0000 </r>
       <r>    -6.0391     0.0573    36.0176 </r>
       <r>    -5.7327     3.4928    37.0877 </r>
       <r>    -5.4263     2.0500    37.7158 </r>
       <r>    -5.1199     1.8741    38.2900 </r>
       <r>    -4.8135     3.3070    39.3031 </r>
       <r>    -4.5072     2.2092    39.9800 </r>
       <r>    -4.2008     0.0653    40.0000 </r>
       <r>    -3.8944    -0.0000    40.0000 </r>
       <r>    -3.5880    -0.0000    40.0000 </r>
       <r>    -3.2816    -0.0000    40.0000 </r>
       <r>    -2.9753    -0.0004    39.9999 </r>
       <r>    -2.6689     0.3823    40.1170 </r>
       <r>    -2.3625     6.1512    42.0016 </r>
       <r>    -2.0561     6.6932    44.0523 </r>
       <r>    -1.7497     7.3427    46.3020 </r>
       <r>    -1.4434     6.4197    48.2689 </r>
       <r>    -1.1370     8.7355    50.9452 </r>
       <r>    -0.8306     9.0850    53.7287 </r>
       <r>    -0.5242    11.3649    57.2107 </r>
       <r>    -0.2178    18.0919    62.7537 </r>
       <r>     0.0886    29.0750    71.6617 </r>
       <r>     0.3949     1.1047    72.0002 </r>
       <r>     0.7013    -0.0007    72.0000 </r>
       <r>     1.0077    -0.0203    71.9938 </r>
       <r>     1.3141     7.4134    74.2651 </r>
       <r>     1.6205    44.8424    88.0039 </r>
       <r>     1.9268    13.7933    92.2299 </r>
       <r>     2.2332    13.1803    96.2681 </r>
       <r>     2.5396    12.8442   100.2034 </r>
       <r>     2.8460    11.1840   103.6299 </r>
       <r>     3.1524     9.0554   106.4043 </r>
       <r>     3.4587     7.9123   108.8285 </r>
       <r>     3.7651     6.9318   110.9523 </r>
       <r>     4.0715     3.1727   111.9244 </r>
       <r>     4.3779     0.2475   112.0002 </r>
       <r>     4.6843    -0.0006   112.0000 </r>
       <r>     4.9907    -0.0000   112.0000 </r>
       <r>     5.2970    -0.0001   112.0000 </r>
       <r>     5.6034     0.0771   112.0236 </r>
       <r>     5.9098     0.1730   112.0766 </r>
       <r>     6.2162     2.6393   112.8852 </r>
       <r>     6.5226     4.3649   114.2226 </r>
       <r>     6.8289     3.4432   115.2775 </r>
       <r>     7.1353     2.4246   116.0203 </r>
       <r>     7.4417     1.4334   116.4595 </r>
       <r>     7.7481     3.1911   117.4372 </r>
       <r>     8.0545     5.5551   119.1392 </r>
       <r>     8.3608     5.5505   120.8397 </r>
       <r>     8.6672     4.5927   122.2469 </r>
       <r>     8.9736     4.4691   123.6161 </r>
       <r>     9.2800     5.6082   125.3343 </r>
       <r>     9.5864     5.6906   127.0778 </r>
       <r>     9.8927     4.7771   128.5414 </r>
       <r>    10.1991     4.4667   129.9100 </r>
       <r>    10.5055     6.4975   131.9007 </r>
       <r>    10.8119     8.2803   134.4376 </r>
       <r>    11.1183     8.2623   136.9690 </r>
       <r>    11.4247     7.9609   139.4081 </r>
       <r>    11.7310     7.9201   141.8346 </r>
       <r>    12.0374     6.5713   143.8479 </r>
       <r>    12.3438     5.8658   145.6451 </r>
       <r>    12.6502     6.6296   147.6763 </r>
       <r>    12.9566     5.7778   149.4465 </r>
       <r>    13.2629     6.2014   151.3464 </r>
       <r>    13.5693     5.3387   152.9821 </r>
       <r>    13.8757     4.0785   154.2317 </r>
       <r>    14.1821     3.1963   155.2110 </r>
       <r>    14.4885     4.5874   156.6165 </r>
       <r>    14.7948     3.4719   157.6802 </r>
       <r>    15.1012     1.4185   158.1148 </r>
       <r>    15.4076     1.5865   158.6009 </r>
       <r>    15.7140     1.2094   158.9714 </r>
       <r>    16.0204     1.7014   159.4927 </r>
       <r>    16.3267     0.3286   159.5934 </r>
       <r>    16.6331     0.6830   159.8026 </r>
       <r>    16.9395     0.5198   159.9619 </r>
       <r>    17.2459     0.1244   160.0000 </r>
       <r>    17.5523    -0.0000   160.0000 </r>
       <r>    17.8587     0.0000   160.0000 </r>
       <r>    18.1650     0.0000   160.0000 </r>
       <r>    18.4714     0.0000   160.0000 </r>
       <r>    18.7778     0.0000   160.0000 </r>
       <r>    19.0842     0.0000   160.0000 </r>
      </set>
     </set>
    </array>
   </total>
  </dos>
 </calculation>
 <structure name="finalpos" >
  <crystal>
   <varray name="basis" >
    <v>       3.22479600      -5.64383000       0.03157200 </v>
    <v>       3.22479600       5.64383000       0.03157200 </v>
    <v>      -2.10194600       0.00000000       6.07553700 </v>
   </varray>
   <i name="volume">    221.90106089 </i>
   <varray name="rec_basis" >
    <v>       0.15452516      -0.08859232       0.05346088 </v>
    <v>       0.15452516       0.08859232       0.05346088 </v>
    <v>      -0.00160600       0.00000000       0.16403888 </v>
   </varray>
  </crystal>
  <varray name="positions" >
   <v>       0.61844300       0.12117100       0.11953300 </v>
   <v>       0.12117100       0.61844300       0.61953300 </v>
   <v>       0.96295700       0.79032200       0.12036848 </v>
   <v>       0.79032200       0.96295700       0.61881300 </v>
   <v>       0.43973200       0.26728100       0.59904700 </v>
   <v>       0.26728100       0.43973200       0.09904700 </v>
   <v>       0.07949800       0.91167500       0.49736300 </v>
   <v>       0.57140300       0.41236400       0.98018400 </v>
   <v>       0.73711100       0.25006200       0.49504900 </v>
   <v>       0.41236400       0.57140300       0.48018400 </v>
   <v>       0.91167500       0.07949800       0.99736300 </v>
   <v>       0.25006200       0.73711100       0.99504900 </v>
  </varray>
 </structure>
</modeling>
