       N       E                     dE             d eps       ncg     rms          ort
SDA:   1     0.755387036175E+02    0.75539E+02   -0.21325E+03  3360   0.533E+03 0.000E+00
DMP:   2    -0.836831881168E+01   -0.83907E+02   -0.14690E+03  3360   0.395E+03-0.739E+02
DMP:   3    -0.151795875422E+02   -0.68113E+01   -0.20353E+03  3360   0.692E+03-0.481E+03
DMP:   4    -0.226654784046E+02   -0.74859E+01   -0.10735E+03  3360   0.390E+03-0.319E+03
DMP:   5    -0.608269965066E+02   -0.38162E+02   -0.15064E+02  3360   0.705E+02-0.860E+02
DMP:   6    -0.659333982870E+02   -0.51064E+01   -0.81791E+01  3360   0.247E+02-0.111E+02
DMP:   7    -0.674732764700E+02   -0.15399E+01   -0.41358E+01  3360   0.147E+02-0.114E+02
DMP:   8    -0.690849331567E+02   -0.16117E+01   -0.77039E+00  3360   0.283E+01-0.238E+01
DMP:   9    -0.693946226406E+02   -0.30969E+00   -0.38655E+00  3360   0.111E+01-0.367E+00
DMP:  10    -0.694984701321E+02   -0.10385E+00   -0.15231E+00  3360   0.548E+00-0.437E+00
DMP:  11    -0.695680911341E+02   -0.69621E-01   -0.36884E-01  3360   0.105E+00-0.339E-01
DMP:  12    -0.695804209618E+02   -0.12330E-01   -0.22851E-01  3360   0.690E-01-0.310E-01
DMP:  13    -0.695900813837E+02   -0.96604E-02   -0.51156E-02  3360   0.161E-01-0.877E-02
DMP:  14    -0.695925323800E+02   -0.24510E-02   -0.37798E-02  3360   0.965E-02-0.526E-03
DMP:  15    -0.695940370970E+02   -0.15047E-02   -0.10371E-02  3360   0.333E-02-0.193E-02
DMP:  16    -0.695946074878E+02   -0.57039E-03   -0.40894E-03  3360   0.916E-03 0.278E-03
DMP:  17    -0.695947801917E+02   -0.17270E-03   -0.20875E-03  3360   0.580E-03-0.152E-03
DMP:  18    -0.695948971741E+02   -0.11698E-03   -0.55992E-04  3360   0.119E-03 0.549E-04
DMP:  19    -0.695949259150E+02   -0.28741E-04   -0.35235E-04  3360   0.883E-04-0.492E-06
DMP:  20    -0.695949456282E+02   -0.19713E-04   -0.11543E-04  3360   0.241E-04 0.124E-04
DMP:  21    -0.695949529888E+02   -0.73606E-05   -0.69986E-05  3360   0.140E-04 0.909E-05
   1 F= -.69594953E+02 E0= -.69595138E+02  d E =0.554069E-03
