 vasp.5.3.3 18Dez12 (build Nov 13 2015 09:58:40) complex                        
  
 executed on             LinuxIFC date 2017.10.18  13:18:31
 running on   48 total cores
 distrk:  each k-point on   16 cores,    3 groups
 distr:  one band on NCORES_PER_BAND=   1 cores,   16 groups


--------------------------------------------------------------------------------------------------------


 INCAR:
 POTCAR:    PAW_PBE Cu_pv 06Sep2000               
 POTCAR:    PAW_PBE Ge 05Jan2001                  
 POTCAR:    PAW_PBE S 17Jan2003                   

 ----------------------------------------------------------------------------- 
|                                                                             |
|           W    W    AA    RRRRR   N    N  II  N    N   GGGG   !!!           |
|           W    W   A  A   R    R  NN   N  II  NN   N  G    G  !!!           |
|           W    W  A    A  R    R  N N  N  II  N N  N  G       !!!           |
|           W WW W  AAAAAA  RRRRR   N  N N  II  N  N N  G  GGG   !            |
|           WW  WW  A    A  R   R   N   NN  II  N   NN  G    G                |
|           W    W  A    A  R    R  N    N  II  N    N   GGGG   !!!           |
|                                                                             |
|      For optimal performance we recommend that you set                      |
|        NPAR = 4 - approx SQRT( number of cores)                             |
|      (number of cores/NPAR must be integer)                                 |
|      This setting will greatly improve the performance of VASP for DFT.     |
|      The default NPAR=number of cores might be grossly inefficient          |
|      on modern multi-core architectures or massively parallel machines.     |
|      Do your own testing.                                                   |
|      Unfortunately you need to use the default for hybrid, GW and RPA       |
|      calculations.                                                          |
|                                                                             |
 ----------------------------------------------------------------------------- 


 ----------------------------------------------------------------------------- 
|                                                                             |
|           W    W    AA    RRRRR   N    N  II  N    N   GGGG   !!!           |
|           W    W   A  A   R    R  NN   N  II  NN   N  G    G  !!!           |
|           W    W  A    A  R    R  N N  N  II  N N  N  G       !!!           |
|           W WW W  AAAAAA  RRRRR   N  N N  II  N  N N  G  GGG   !            |
|           WW  WW  A    A  R   R   N   NN  II  N   NN  G    G                |
|           W    W  A    A  R    R  N    N  II  N    N   GGGG   !!!           |
|                                                                             |
|      You have enabled k-point parallelism (KPAR>1).                         |
|      This developmental code was originally  written by Paul Kent at ORNL,  |
|      and carefully double checked in Vienna.                                |
|      GW as well as linear response parallelism added by Martijn Marsman     |
|      and Georg Kresse.                                                      |
|      Carefully verify results versus KPAR=1.                                |
|      Report problems to Paul Kent and Vienna.                               |
|                                                                             |
 ----------------------------------------------------------------------------- 

 POTCAR:    PAW_PBE Cu_pv 06Sep2000               
   VRHFIN =Cu: d10 p1                                                           
   LEXCH  = PE                                                                  
   EATOM  =  4120.1201 eV,  302.8203 Ry                                         
                                                                                
   TITEL  = PAW_PBE Cu_pv 06Sep2000                                             
   LULTRA =        F    use ultrasoft PP ?                                      
   IUNSCR =        1    unscreen: 0-lin 1-nonlin 2-no                           
   RPACOR =    1.500    partial core radius                                     
   POMASS =   63.546; ZVAL   =   17.000    mass and valenz                      
   RCORE  =    2.000    outmost cutoff radius                                   
   RWIGS  =    2.000; RWIGS  =    1.058    wigner-seitz radius (au A)           
   ENMAX  =  368.648; ENMIN  =  276.486 eV                                      
   RCLOC  =    1.304    cutoff for local pot                                    
   LCOR   =        T    correct aug charges                                     
   LPAW   =        T    paw PP                                                  
   EAUG   =  758.233                                                            
   DEXC   =    0.000                                                            
   RMAX   =    2.046    core radius for proj-oper                               
   RAUG   =    1.300    factor for augmentation sphere                          
   RDEP   =    2.025    radius for radial grids                                 
   RDEPT  =    1.558    core radius for aug-charge                              
                                                                                
   Atomic configuration                                                         
    8 entries                                                                   
     n  l   j            E        occ.                                          
     1  0  0.50     -8850.2467   2.0000                                         
     2  0  0.50     -1062.3498   2.0000                                         
     2  1  1.50      -916.8226   6.0000                                         
     3  0  0.50      -114.6929   2.0000                                         
     3  1  1.50       -72.1325   6.0000                                         
     3  2  2.50        -5.0394  10.0000                                         
     4  0  0.50        -4.6097   1.0000                                         
     4  3  2.50        -1.3606   0.0000                                         
   Description                                                                  
     l       E           TYP  RCUT    TYP  RCUT                                 
     1    -72.1324777     23  1.700                                             
     1     -1.3605826     23  1.700                                             
     2     -5.0393776     23  2.000                                             
     2     -6.3999602     23  2.000                                             
     0     -4.6097062     23  1.800                                             
     0     14.1620818     23  1.800                                             
  local pseudopotential read in
  partial core-charges read in
  partial kinetic energy density read in
  atomic valenz-charges read in
  non local Contribution for L=           1  read in
    real space projection operators read in
  non local Contribution for L=           1  read in
    real space projection operators read in
  non local Contribution for L=           2  read in
    real space projection operators read in
  non local Contribution for L=           2  read in
    real space projection operators read in
  non local Contribution for L=           0  read in
    real space projection operators read in
  non local Contribution for L=           0  read in
    real space projection operators read in
    PAW grid and wavefunctions read in
 
   number of l-projection  operators is LMAX  =           6
   number of lm-projection operators is LMMAX =          18
 
 POTCAR:    PAW_PBE Ge 05Jan2001                  
   VRHFIN =Ge: s2p2                                                             
   LEXCH  = PE                                                                  
   EATOM  =   104.9960 eV,    7.7170 Ry                                         
                                                                                
   TITEL  = PAW_PBE Ge 05Jan2001                                                
   LULTRA =        F    use ultrasoft PP ?                                      
   IUNSCR =        1    unscreen: 0-lin 1-nonlin 2-no                           
   RPACOR =    2.170    partial core radius                                     
   POMASS =   72.610; ZVAL   =    4.000    mass and valenz                      
   RCORE  =    2.300    outmost cutoff radius                                   
   RWIGS  =    2.300; RWIGS  =    1.217    wigner-seitz radius (au A)           
   ENMAX  =  173.807; ENMIN  =  130.355 eV                                      
   ICORE  =        3    local potential                                         
   LCOR   =        T    correct aug charges                                     
   LPAW   =        T    paw PP                                                  
   EAUG   =  385.843                                                            
   DEXC   =    0.000                                                            
   RMAX   =    2.342    core radius for proj-oper                               
   RAUG   =    1.300    factor for augmentation sphere                          
   RDEP   =    2.318    radius for radial grids                                 
   RDEPT  =    2.103    core radius for aug-charge                              
                                                                                
   Atomic configuration                                                         
   10 entries                                                                   
     n  l   j            E        occ.                                          
     1  0  0.50    -10959.8463   2.0000                                         
     2  0  0.50     -1371.6056   2.0000                                         
     2  1  1.50     -1198.4791   6.0000                                         
     3  0  0.50      -168.4733   2.0000                                         
     3  1  1.50      -115.6019   6.0000                                         
     3  2  2.50       -29.3106  10.0000                                         
     4  0  0.50       -11.7309   2.0000                                         
     4  1  0.50        -3.8952   2.0000                                         
     4  2  1.50        -4.0817   0.0000                                         
     4  3  2.50        -4.0817   0.0000                                         
   Description                                                                  
     l       E           TYP  RCUT    TYP  RCUT                                 
     0    -11.7309493     23  2.300                                             
     0     -7.4578696     23  2.300                                             
     1     -3.8952261     23  2.300                                             
     1      6.1178114     23  2.300                                             
     2     -4.0817478     23  2.300                                             
     3     -1.3605826      7  2.300                                             
  local pseudopotential read in
  partial core-charges read in
  partial kinetic energy density read in
  atomic valenz-charges read in
  non local Contribution for L=           0  read in
    real space projection operators read in
  non local Contribution for L=           0  read in
    real space projection operators read in
  non local Contribution for L=           1  read in
    real space projection operators read in
  non local Contribution for L=           1  read in
    real space projection operators read in
  non local Contribution for L=           2  read in
    real space projection operators read in
    PAW grid and wavefunctions read in
 
   number of l-projection  operators is LMAX  =           5
   number of lm-projection operators is LMMAX =          13
 
 POTCAR:    PAW_PBE S 17Jan2003                   
   VRHFIN =S : s2p4                                                             
   LEXCH  = PE                                                                  
   EATOM  =   276.8230 eV,   20.3459 Ry                                         
                                                                                
   TITEL  = PAW_PBE S 17Jan2003                                                 
   LULTRA =        F    use ultrasoft PP ?                                      
   IUNSCR =        1    unscreen: 0-lin 1-nonlin 2-no                           
   RPACOR =    1.500    partial core radius                                     
   POMASS =   32.066; ZVAL   =    6.000    mass and valenz                      
   RCORE  =    1.900    outmost cutoff radius                                   
   RWIGS  =    2.200; RWIGS  =    1.164    wigner-seitz radius (au A)           
   ENMAX  =  280.000; ENMIN  =  194.016 eV                                      
   ICORE  =        2    local potential                                         
   LCOR   =        T    correct aug charges                                     
   LPAW   =        T    paw PP                                                  
   EAUG   =  335.092                                                            
   DEXC   =     .000                                                            
   RMAX   =    2.867    core radius for proj-oper                               
   RAUG   =    1.300    factor for augmentation sphere                          
   RDEP   =    1.954    radius for radial grids                                 
   QCUT   =   -4.360; QGAM   =    8.721    optimization parameters              
                                                                                
   Description                                                                  
     l     E      TYP  RCUT    TYP  RCUT                                        
     0   .000     23  1.900                                                     
     0   .000     23  1.900                                                     
     1   .000     23  1.900                                                     
     1   .000     23  1.900                                                     
     2   .000     23  1.900                                                     
  local pseudopotential read in
  partial core-charges read in
  atomic valenz-charges read in
  non local Contribution for L=           0  read in
    real space projection operators read in
  non local Contribution for L=           0  read in
    real space projection operators read in
  non local Contribution for L=           1  read in
    real space projection operators read in
  non local Contribution for L=           1  read in
    real space projection operators read in
    PAW grid and wavefunctions read in
 
   number of l-projection  operators is LMAX  =           4
   number of lm-projection operators is LMMAX =           8
 
  PAW_PBE Cu_pv 06Sep2000               :
 energy of atom  1       EATOM=-4120.1201
 kinetic energy error for atom=    0.0996 (will be added to EATOM!!)
  PAW_PBE Ge 05Jan2001                  :
 energy of atom  2       EATOM= -104.9960
 kinetic energy error for atom=    0.0003 (will be added to EATOM!!)
  PAW_PBE S 17Jan2003                   :
 energy of atom  3       EATOM= -276.8230
 kinetic energy error for atom=    0.0046 (will be added to EATOM!!)
 
 
 POSCAR: Cu Ge S                                 
  positions in direct lattice
  No initial velocities read in
 exchange correlation table for  LEXCH =        8
   RHO(1)=    0.500       N(1)  =     2000
   RHO(2)=  100.500       N(2)  =     4000
 


--------------------------------------------------------------------------------------------------------


 ion  position               nearest neighbor table
   1  0.618  0.121  0.120-   9 2.29  11 2.29  12 2.30   8 2.35
   2  0.121  0.618  0.620-  12 2.29   7 2.29   9 2.30  10 2.35
   3  0.963  0.790  0.119-  11 2.30  12 2.30   7 2.31   8 2.36
   4  0.790  0.963  0.619-   9 2.29   7 2.30  11 2.31  10 2.36
   5  0.440  0.267  0.599-   7 2.19   9 2.20  10 2.31   8 2.33
   6  0.267  0.440  0.099-  11 2.19  12 2.19   8 2.31  10 2.33
   7  0.079  0.912  0.497-   5 2.19   2 2.29   4 2.30   3 2.31
   8  0.571  0.412  0.980-   6 2.31   5 2.33   1 2.35   3 2.36
   9  0.739  0.250  0.495-   5 2.20   1 2.29   4 2.29   2 2.30
  10  0.412  0.571  0.480-   5 2.31   6 2.33   2 2.35   4 2.36
  11  0.912  0.079  0.997-   6 2.19   1 2.29   3 2.30   4 2.31
  12  0.250  0.737  0.995-   6 2.19   2 2.29   3 2.30   1 2.30
 
  Warning from LATTYP: Got some problem with cell dimensions!
  Tried to take original basis but could not verify dimensions!
  LATTYP: Found a base centered monoclinic cell.
 ALAT       =     6.4499010947
 B/A-ratio  =     1.7500516418
 C/A-ratio  =     1.9305142024
 COS(beta)  =    -0.4326083233
  
  Lattice vectors:
  
 A1 = (   3.2247960000,   5.6438300000,   0.0315720000)
 A2 = (   3.2247960000,  -5.6438300000,   0.0315720000)
 A3 = ( -10.7972380000,   0.0000000000,  -6.2018250000)


Analysis of symmetry for initial positions (statically):
=====================================================================
 Subroutine PRICEL returns:
 Original cell was already a primitive cell.
 

 Routine SETGRP: Setting up the symmetry group for a 
 base centered monoclinic supercell.


 Subroutine GETGRP returns: Found  1 space group operations
 (whereof  1 operations were pure point group operations)
 out of a pool of  4 trial point group operations.


The static configuration has the point symmetry C_1 .


Analysis of symmetry for dynamics (positions and initial velocities):
=====================================================================
 Subroutine PRICEL returns:
 Original cell was already a primitive cell.
 

 Routine SETGRP: Setting up the symmetry group for a 
 base centered monoclinic supercell.


 Subroutine GETGRP returns: Found  1 space group operations
 (whereof  1 operations were pure point group operations)
 out of a pool of  4 trial point group operations.


The dynamic configuration has the point symmetry C_1 .


 irot  :   1
 --------------------------------------------------------------------
 isymop:   1   0   0
           0   1   0
           0   0   1

 gtrans:     0.0000000     0.0000000     0.0000000

 ptrans:     0.0000000     0.0000000     0.0000000
 rotmap:
 (   1->   1)  (   2->   2)  (   3->   3)  (   4->   4)  (   5->   5) 
 (   6->   6)  (   7->   7)  (   8->   8)  (   9->   9)  (  10->  10) 
 (  11->  11)  (  12->  12) 
 
 
 KPOINTS: pymatgen 4.7.6+ generated KPOINTS with g

Automatic generation of k-mesh.
Space group operators:
 irot       det(A)        alpha          n_x          n_y          n_z        tau_x        tau_y        tau_z
    1     1.000000     0.000000     1.000000     0.000000     0.000000     0.000000     0.000000     0.000000
 
 Subroutine IBZKPT returns following result:
 ===========================================
 
 Found     42 irreducible k-points:
 
 Following reciprocal coordinates:
            Coordinates               Weight
  0.000000  0.000000  0.000000      1.000000
  0.250000  0.000000  0.000000      2.000000
  0.500000  0.000000  0.000000      1.000000
  0.000000  0.250000  0.000000      2.000000
  0.250000  0.250000  0.000000      2.000000
  0.500000  0.250000 -0.000000      2.000000
 -0.250000  0.250000  0.000000      2.000000
  0.000000  0.500000  0.000000      1.000000
  0.250000  0.500000 -0.000000      2.000000
  0.500000  0.500000  0.000000      1.000000
 -0.000000 -0.000000  0.200000      2.000000
  0.250000  0.000000  0.200000      2.000000
  0.500000  0.000000  0.200000      2.000000
 -0.250000 -0.000000  0.200000      2.000000
  0.000000  0.250000  0.200000      2.000000
  0.250000  0.250000  0.200000      2.000000
  0.500000  0.250000  0.200000      2.000000
 -0.250000  0.250000  0.200000      2.000000
  0.000000  0.500000  0.200000      2.000000
  0.250000  0.500000  0.200000      2.000000
  0.500000  0.500000  0.200000      2.000000
 -0.250000  0.500000  0.200000      2.000000
 -0.000000 -0.250000  0.200000      2.000000
  0.250000 -0.250000  0.200000      2.000000
  0.500000 -0.250000  0.200000      2.000000
 -0.250000 -0.250000  0.200000      2.000000
 -0.000000 -0.000000  0.400000      2.000000
  0.250000  0.000000  0.400000      2.000000
  0.500000  0.000000  0.400000      2.000000
 -0.250000  0.000000  0.400000      2.000000
  0.000000  0.250000  0.400000      2.000000
  0.250000  0.250000  0.400000      2.000000
  0.500000  0.250000  0.400000      2.000000
 -0.250000  0.250000  0.400000      2.000000
  0.000000  0.500000  0.400000      2.000000
  0.250000  0.500000  0.400000      2.000000
  0.500000  0.500000  0.400000      2.000000
 -0.250000  0.500000  0.400000      2.000000
  0.000000 -0.250000  0.400000      2.000000
  0.250000 -0.250000  0.400000      2.000000
  0.500000 -0.250000  0.400000      2.000000
 -0.250000 -0.250000  0.400000      2.000000
 
 Following cartesian coordinates:
            Coordinates               Weight
  0.000000  0.000000  0.000000      1.000000
  0.038631 -0.022148  0.013365      2.000000
  0.077263 -0.044296  0.026730      1.000000
  0.038631  0.022148  0.013365      2.000000
  0.077263  0.000000  0.026730      2.000000
  0.115894 -0.022148  0.040096      2.000000
  0.000000  0.044296  0.000000      2.000000
  0.077263  0.044296  0.026730      1.000000
  0.115894  0.022148  0.040096      2.000000
  0.154525  0.000000  0.053461      1.000000
 -0.000321  0.000000  0.032808      2.000000
  0.038310 -0.022148  0.046173      2.000000
  0.076941 -0.044296  0.059538      2.000000
 -0.038952  0.022148  0.019443      2.000000
  0.038310  0.022148  0.046173      2.000000
  0.076941  0.000000  0.059538      2.000000
  0.115573 -0.022148  0.072903      2.000000
 -0.000321  0.044296  0.032808      2.000000
  0.076941  0.044296  0.059538      2.000000
  0.115573  0.022148  0.072903      2.000000
  0.154204  0.000000  0.086269      2.000000
  0.038310  0.066444  0.046173      2.000000
 -0.038952 -0.022148  0.019443      2.000000
 -0.000321 -0.044296  0.032808      2.000000
  0.038310 -0.066444  0.046173      2.000000
 -0.077584  0.000000  0.006077      2.000000
 -0.000642  0.000000  0.065616      2.000000
  0.037989 -0.022148  0.078981      2.000000
  0.076620 -0.044296  0.092346      2.000000
 -0.039274  0.022148  0.052250      2.000000
  0.037989  0.022148  0.078981      2.000000
  0.076620  0.000000  0.092346      2.000000
  0.115251 -0.022148  0.105711      2.000000
 -0.000642  0.044296  0.065616      2.000000
  0.076620  0.044296  0.092346      2.000000
  0.115251  0.022148  0.105711      2.000000
  0.153883  0.000000  0.119076      2.000000
  0.037989  0.066444  0.078981      2.000000
 -0.039274 -0.022148  0.052250      2.000000
 -0.000642 -0.044296  0.065616      2.000000
  0.037989 -0.066444  0.078981      2.000000
 -0.077905  0.000000  0.038885      2.000000
 
 
 Subroutine IBZKPT_HF returns following result:
 ==============================================
 
 Found     80 k-points in 1st BZ
 the following     80 k-points will be used (e.g. in the exchange kernel)
 Following reciprocal coordinates:   # in IRBZ
  0.000000  0.000000  0.000000       1 t-inv F
  0.250000  0.000000  0.000000       2 t-inv F
  0.500000  0.000000  0.000000       3 t-inv F
  0.000000  0.250000  0.000000       4 t-inv F
  0.250000  0.250000  0.000000       5 t-inv F
  0.500000  0.250000 -0.000000       6 t-inv F
 -0.250000  0.250000  0.000000       7 t-inv F
  0.000000  0.500000  0.000000       8 t-inv F
  0.250000  0.500000 -0.000000       9 t-inv F
  0.500000  0.500000  0.000000      10 t-inv F
 -0.000000 -0.000000  0.200000      11 t-inv F
  0.250000  0.000000  0.200000      12 t-inv F
  0.500000  0.000000  0.200000      13 t-inv F
 -0.250000 -0.000000  0.200000      14 t-inv F
  0.000000  0.250000  0.200000      15 t-inv F
  0.250000  0.250000  0.200000      16 t-inv F
  0.500000  0.250000  0.200000      17 t-inv F
 -0.250000  0.250000  0.200000      18 t-inv F
  0.000000  0.500000  0.200000      19 t-inv F
  0.250000  0.500000  0.200000      20 t-inv F
  0.500000  0.500000  0.200000      21 t-inv F
 -0.250000  0.500000  0.200000      22 t-inv F
 -0.000000 -0.250000  0.200000      23 t-inv F
  0.250000 -0.250000  0.200000      24 t-inv F
  0.500000 -0.250000  0.200000      25 t-inv F
 -0.250000 -0.250000  0.200000      26 t-inv F
 -0.000000 -0.000000  0.400000      27 t-inv F
  0.250000  0.000000  0.400000      28 t-inv F
  0.500000  0.000000  0.400000      29 t-inv F
 -0.250000  0.000000  0.400000      30 t-inv F
  0.000000  0.250000  0.400000      31 t-inv F
  0.250000  0.250000  0.400000      32 t-inv F
  0.500000  0.250000  0.400000      33 t-inv F
 -0.250000  0.250000  0.400000      34 t-inv F
  0.000000  0.500000  0.400000      35 t-inv F
  0.250000  0.500000  0.400000      36 t-inv F
  0.500000  0.500000  0.400000      37 t-inv F
 -0.250000  0.500000  0.400000      38 t-inv F
  0.000000 -0.250000  0.400000      39 t-inv F
  0.250000 -0.250000  0.400000      40 t-inv F
  0.500000 -0.250000  0.400000      41 t-inv F
 -0.250000 -0.250000  0.400000      42 t-inv F
 -0.250000 -0.000000 -0.000000       2 t-inv T
 -0.000000 -0.250000 -0.000000       4 t-inv T
 -0.250000 -0.250000  0.000000       5 t-inv T
 -0.500000 -0.250000  0.000000       6 t-inv T
  0.250000 -0.250000  0.000000       7 t-inv T
 -0.250000 -0.500000  0.000000       9 t-inv T
  0.000000  0.000000 -0.200000      11 t-inv T
 -0.250000 -0.000000 -0.200000      12 t-inv T
 -0.500000 -0.000000 -0.200000      13 t-inv T
  0.250000  0.000000 -0.200000      14 t-inv T
 -0.000000 -0.250000 -0.200000      15 t-inv T
 -0.250000 -0.250000 -0.200000      16 t-inv T
 -0.500000 -0.250000 -0.200000      17 t-inv T
  0.250000 -0.250000 -0.200000      18 t-inv T
 -0.000000 -0.500000 -0.200000      19 t-inv T
 -0.250000 -0.500000 -0.200000      20 t-inv T
 -0.500000 -0.500000 -0.200000      21 t-inv T
  0.250000 -0.500000 -0.200000      22 t-inv T
  0.000000  0.250000 -0.200000      23 t-inv T
 -0.250000  0.250000 -0.200000      24 t-inv T
 -0.500000  0.250000 -0.200000      25 t-inv T
  0.250000  0.250000 -0.200000      26 t-inv T
  0.000000  0.000000 -0.400000      27 t-inv T
 -0.250000 -0.000000 -0.400000      28 t-inv T
 -0.500000 -0.000000 -0.400000      29 t-inv T
  0.250000 -0.000000 -0.400000      30 t-inv T
 -0.000000 -0.250000 -0.400000      31 t-inv T
 -0.250000 -0.250000 -0.400000      32 t-inv T
 -0.500000 -0.250000 -0.400000      33 t-inv T
  0.250000 -0.250000 -0.400000      34 t-inv T
 -0.000000 -0.500000 -0.400000      35 t-inv T
 -0.250000 -0.500000 -0.400000      36 t-inv T
 -0.500000 -0.500000 -0.400000      37 t-inv T
  0.250000 -0.500000 -0.400000      38 t-inv T
 -0.000000  0.250000 -0.400000      39 t-inv T
 -0.250000  0.250000 -0.400000      40 t-inv T
 -0.500000  0.250000 -0.400000      41 t-inv T
  0.250000  0.250000 -0.400000      42 t-inv T


--------------------------------------------------------------------------------------------------------




 Dimension of arrays:
   k-points           NKPTS =     42   k-points in BZ     NKDIM =     80   number of bands    NBANDS=     80
   number of dos      NEDOS =    301   number of ions     NIONS =     12
   non local maximal  LDIM  =      6   non local SUM 2l+1 LMDIM =     18
   total plane-waves  NPLWV =  32768
   max r-space proj   IRMAX =      1   max aug-charges    IRDMAX=   8224
   dimension x,y,z NGX =    32 NGY =   32 NGZ =   32
   dimension x,y,z NGXF=    64 NGYF=   64 NGZF=   64
   support grid    NGXF=    64 NGYF=   64 NGZF=   64
   ions per type =               4   2   6
 NGX,Y,Z   is equivalent  to a cutoff of   8.18,  8.18,  8.27 a.u.
 NGXF,Y,Z  is equivalent  to a cutoff of  16.37, 16.37, 16.55 a.u.


 I would recommend the setting:
   dimension x,y,z NGX =    32 NGY =   32 NGZ =   31
 SYSTEM =  CGS                                     
 POSCAR =  Cu Ge S                                 

 Startparameter for this run:
   NWRITE =      2    write-flag & timer
   PREC   = normal    normal or accurate (medium, high low for compatibility)
   ISTART =      1    job   : 0-new  1-cont  2-samecut
   ICHARG =      0    charge: 1-file 2-atom 10-const
   ISPIN  =      1    spin polarized calculation?
   LNONCOLLINEAR =      F non collinear calculations
   LSORBIT =      F    spin-orbit coupling
   INIWAV =      1    electr: 0-lowe 1-rand  2-diag
   LASPH  =      F    aspherical Exc in radial PAW
   METAGGA=      F    non-selfconsistent MetaGGA calc.

 Electronic Relaxation 1
   ENCUT  =  400.0 eV  29.40 Ry    5.42 a.u.  10.60 10.60 10.48*2*pi/ulx,y,z
   ENINI  =  400.0     initial cutoff
   ENAUG  =  758.2 eV  augmentation charge cutoff
   NELM   =     60;   NELMIN=  2; NELMDL=  0     # of ELM steps 
   EDIFF  = 0.1E-04   stopping-criterion for ELM
   LREAL  =      F    real-space projection
   NLSPLINE    = F    spline interpolate recip. space projectors
   LCOMPAT=      F    compatible to vasp.4.4
   GGA_COMPAT  = T    GGA compatible to vasp.4.4-vasp.4.6
   LMAXPAW     = -100 max onsite density
   LMAXMIX     =    2 max onsite mixed and CHGCAR
   VOSKOWN=      0    Vosko Wilk Nusair interpolation
   ROPT   =    0.00000   0.00000   0.00000
 Ionic relaxation
   EDIFFG = 0.1E-03   stopping-criterion for IOM
   NSW    =      0    number of steps for IOM
   NBLOCK =      1;   KBLOCK =      1    inner block; outer block 
   IBRION =     -1    ionic relax: 0-MD 1-quasi-New 2-CG
   NFREE  =      0    steps in history (QN), initial steepest desc. (CG)
   ISIF   =      0    stress and relaxation
   IWAVPR =     10    prediction:  0-non 1-charg 2-wave 3-comb
   ISYM   =      3    0-nonsym 1-usesym 2-fastsym
   LCORR  =      T    Harris-Foulkes like correction to forces

   POTIM  = 0.5000    time-step for ionic-motion
   TEIN   =    0.0    initial temperature
   TEBEG  =    0.0;   TEEND  =   0.0 temperature during run
   SMASS  =  -3.00    Nose mass-parameter (am)
   estimated Nose-frequenzy (Omega)   =  0.10E-29 period in steps =****** mass=  -0.966E-27a.u.
   SCALEE = 1.0000    scale energy and forces
   NPACO  =    256;   APACO  = 16.0  distance and # of slots for P.C.
   PSTRESS=    0.0 pullay stress

  Mass of Ions in am
   POMASS =  63.55 72.61 32.07
  Ionic Valenz
   ZVAL   =  17.00  4.00  6.00
  Atomic Wigner-Seitz radii
   RWIGS  =  -1.00 -1.00 -1.00
  virtual crystal weights 
   VCA    =   1.00  1.00  1.00
   NELECT =     112.0000    total number of electrons
   NUPDOWN=      -1.0000    fix difference up-down

 DOS related values:
   EMIN   =  10.00;   EMAX   =-10.00  energy-range for DOS
   EFERMI =   0.00
   ISMEAR =     1;   SIGMA  =   0.10  broadening in eV -4-tet -1-fermi 0-gaus

 Electronic relaxation 2 (details)
   IALGO  =     53    algorithm
   LDIAG  =      T    sub-space diagonalisation (order eigenvalues)
   LSUBROT=      T    optimize rotation matrix (better conditioning)
   TURBO    =      0    0=normal 1=particle mesh
   IRESTART =      0    0=no restart 2=restart with 2 vectors
   NREBOOT  =      0    no. of reboots
   NMIN     =      0    reboot dimension
   EREF     =   0.00    reference energy to select bands
   IMIX   =      4    mixing-type and parameters
     AMIX     =   0.40;   BMIX     =  1.00
     AMIX_MAG =   1.60;   BMIX_MAG =  1.00
     AMIN     =   0.10
     WC   =   100.;   INIMIX=   1;  MIXPRE=   1;  MAXMIX= -45

 Intra band minimization:
   WEIMIN = 0.0000     energy-eigenvalue tresh-hold
   EBREAK =  0.31E-07  absolut break condition
   DEPER  =   0.30     relativ break condition  

   TIME   =   0.40     timestep for ELM

  volume/ion in A,a.u.               =      18.49       124.79
  Fermi-wavevector in a.u.,A,eV,Ry     =   1.303450  2.463163 23.116052  1.698982
  Thomas-Fermi vector in A             =   2.434451
 
 Write flags
   LWAVE  =      T    write WAVECAR
   LCHARG =      T    write CHGCAR
   LVTOT  =      F    write LOCPOT, total local potential
   LVHAR  =      F    write LOCPOT, Hartree potential only
   LELF   =      F    write electronic localiz. function (ELF)
   LORBIT =      0    0 simple, 1 ext, 2 COOP (PROOUT)


 Dipole corrections
   LMONO  =      F    monopole corrections only (constant potential shift)
   LDIPOL =      F    correct potential (dipole corrections)
   IDIPOL =      0    1-x, 2-y, 3-z, 4-all directions 
   EPSILON=  1.0000000 bulk dielectric constant

 Exchange correlation treatment:
   GGA     =    PE    GGA type
   LEXCH   =     8    internal setting for exchange type
   VOSKOWN=      0    Vosko Wilk Nusair interpolation
   EXXOEP  =     0    0=HF, 1=EXX-LHF (local Hartree Fock) 2=EXX OEP
   LHFCALC =     T    Hartree Fock is set to
   LSYMGRAD=     F    symmetrize gradient (conserves proper symmetry)
   PRECFOCK=fast      Normal, Fast or Accurate (Low or Medium for compatibility)
   LRHFCALC=     F    long range Hartree Fock
   LRSCOR  =     F    long range correlation only (use DFT for short range part)
   LTHOMAS =     F    Thomas Fermi screening in HF
   LMODELHF=     F    short range full HF, long range fraction AEXX
   ENCUT4O =  -1.0   cutoff for four orbital integrals eV
   LMAXFOCK=     4    L truncation for augmentation on plane wave grid
   LMAXFOCKAE=  -1    L truncation for all-electron charge restoration on plane wave grid
   NMAXFOCKAE=   1    number of basis functions for all-electron charge restoration
   LFOCKAEDFT=     F  apply the AE augmentation even for DFT
   NKREDX  =     1    reduce k-point grid by
   NKREDY  =     1    reduce k-point grid by
   NKREDZ  =     1    reduce k-point grid by
   SHIFTRED=     F    shift reduced grid of Gamma
   HFKIDENT=     F    idential grid for each k-point
   ODDONLY =     F    use only odd q-grid points
   EVENONLY=     F    use only even q-grid points
   HFALPHA =   -1.0000 decay constant for conv. correction
   MCALPHA =    0.0000 extent of test-charge in conv. correction in multipole expansion
   AEXX    =    0.2500 exact exchange contribution
   HFSCREEN=    0.2000 screening length (either q_TF or 0.3 A-1)
   HFSCREENC=   0.2000 screening length for correlation (either q_TF or 0.3 A-1)
   HFRCUT  =    0.0000 spherical cutoff for potential kernel
   ALDAX   =    0.7500 LDA exchange part
   AGGAX   =    0.7500 GGA exchange part
   ALDAC   =    1.0000 LDA correlation
   AGGAC   =    1.0000 GGA correlation
   NBANDSGWLOW=     1    first orbital included in HF term
 Linear response parameters
   LEPSILON=     F    determine dielectric tensor
   LRPA    =     F    only Hartree local field effects (RPA)
   LNABLA  =     F    use nabla operator in PAW spheres
   LVEL    =     F    velocity operator in full k-point grid
   LINTERFAST=   F  fast interpolation
   KINTER  =     0    interpolate to denser k-point grid
   CSHIFT  =0.1000    complex shift for real part using Kramers Kronig
   OMEGAMAX=  -1.0    maximum frequency
   DEG_THRESHOLD= 0.2000000E-02 threshold for treating states as degnerate
   RTIME   =    0.100 relaxation time in fs

 Orbital magnetization related:
   ORBITALMAG=     F  switch on orbital magnetization
   LCHIMAG   =     F  perturbation theory with respect to B field
   DQ        =  0.001000  dq finite difference perturbation B field



--------------------------------------------------------------------------------------------------------


 Static calculation
 charge density and potential will be updated during run
 non-spin polarized calculation
 Conjugate gradient for all bands, subspace preconditioning
 perform sub-space diagonalisation
    before iterative eigenvector-optimisation
 modified Broyden-mixing scheme, WC =      100.0
 initial mixing is a Kerker type mixing with AMIX =  0.4000 and BMIX =      1.0000
 Hartree-type preconditioning will be used
 using additional bands           24
 reciprocal scheme for non local part
 use partial core corrections
 no Harris-corrections to forces 
 use gradient corrections 
 use of overlap-Matrix (Vanderbilt PP)
 Methfessel and Paxton  Order N= 1 SIGMA  =   0.10


--------------------------------------------------------------------------------------------------------


  energy-cutoff  :      400.00
  volume of cell :      221.90
      direct lattice vectors                 reciprocal lattice vectors
     3.224796000 -5.643830000  0.031572000     0.154525165 -0.088592321  0.053460880
     3.224796000  5.643830000  0.031572000     0.154525165  0.088592321  0.053460880
    -2.101946000  0.000000000  6.075537000    -0.001606004  0.000000000  0.164038877

  length of vectors
     6.500240234  6.500240234  6.428866683     0.185969598  0.185969598  0.164046738


 
 old parameters found on file WAVECAR:
  energy-cutoff  :      400.00
  volume of cell :      222.35
      direct lattice vectors                 reciprocal lattice vectors
     3.227235519 -5.642745207  0.030241751     0.154430495 -0.088609353  0.053450002
     3.227235519  5.642745207  0.030241751     0.154430495  0.088609353  0.053450002
    -2.106135241  0.000000000  6.085154262    -0.001534965  0.000000000  0.163803104

  length of vectors

 
 k-points in units of 2pi/SCALE and weight: pymatgen 4.7.6+ generated KPOINTS with g
   0.00000000  0.00000000  0.00000000       0.013
   0.03863129 -0.02214808  0.01336522       0.025
   0.07726258 -0.04429616  0.02673044       0.013
   0.03863129  0.02214808  0.01336522       0.025
   0.07726258  0.00000000  0.02673044       0.025
   0.11589387 -0.02214808  0.04009566       0.025
   0.00000000  0.04429616  0.00000000       0.025
   0.07726258  0.04429616  0.02673044       0.013
   0.11589387  0.02214808  0.04009566       0.025
   0.15452516  0.00000000  0.05346088       0.013
  -0.00032120  0.00000000  0.03280778       0.025
   0.03831009 -0.02214808  0.04617300       0.025
   0.07694138 -0.04429616  0.05953822       0.025
  -0.03895249  0.02214808  0.01944256       0.025
   0.03831009  0.02214808  0.04617300       0.025
   0.07694138  0.00000000  0.05953822       0.025
   0.11557267 -0.02214808  0.07290344       0.025
  -0.00032120  0.04429616  0.03280778       0.025
   0.07694138  0.04429616  0.05953822       0.025
   0.11557267  0.02214808  0.07290344       0.025
   0.15420396  0.00000000  0.08626865       0.025
   0.03831009  0.06644424  0.04617300       0.025
  -0.03895249 -0.02214808  0.01944256       0.025
  -0.00032120 -0.04429616  0.03280778       0.025
   0.03831009 -0.06644424  0.04617300       0.025
  -0.07758378  0.00000000  0.00607734       0.025
  -0.00064240  0.00000000  0.06561555       0.025
   0.03798889 -0.02214808  0.07898077       0.025
   0.07662018 -0.04429616  0.09234599       0.025
  -0.03927369  0.02214808  0.05225033       0.025
   0.03798889  0.02214808  0.07898077       0.025
   0.07662018  0.00000000  0.09234599       0.025
   0.11525147 -0.02214808  0.10571121       0.025
  -0.00064240  0.04429616  0.06561555       0.025
   0.07662018  0.04429616  0.09234599       0.025
   0.11525147  0.02214808  0.10571121       0.025
   0.15388276  0.00000000  0.11907643       0.025
   0.03798889  0.06644424  0.07898077       0.025
  -0.03927369 -0.02214808  0.05225033       0.025
  -0.00064240 -0.04429616  0.06561555       0.025
   0.03798889 -0.06644424  0.07898077       0.025
  -0.07790498  0.00000000  0.03888511       0.025
 
 k-points in reciprocal lattice and weights: pymatgen 4.7.6+ generated KPOINTS with g
   0.00000000  0.00000000  0.00000000       0.013
   0.25000000  0.00000000  0.00000000       0.025
   0.50000000  0.00000000  0.00000000       0.013
   0.00000000  0.25000000  0.00000000       0.025
   0.25000000  0.25000000  0.00000000       0.025
   0.50000000  0.25000000 -0.00000000       0.025
  -0.25000000  0.25000000  0.00000000       0.025
   0.00000000  0.50000000  0.00000000       0.013
   0.25000000  0.50000000 -0.00000000       0.025
   0.50000000  0.50000000  0.00000000       0.013
  -0.00000000 -0.00000000  0.20000000       0.025
   0.25000000  0.00000000  0.20000000       0.025
   0.50000000  0.00000000  0.20000000       0.025
  -0.25000000 -0.00000000  0.20000000       0.025
   0.00000000  0.25000000  0.20000000       0.025
   0.25000000  0.25000000  0.20000000       0.025
   0.50000000  0.25000000  0.20000000       0.025
  -0.25000000  0.25000000  0.20000000       0.025
   0.00000000  0.50000000  0.20000000       0.025
   0.25000000  0.50000000  0.20000000       0.025
   0.50000000  0.50000000  0.20000000       0.025
  -0.25000000  0.50000000  0.20000000       0.025
  -0.00000000 -0.25000000  0.20000000       0.025
   0.25000000 -0.25000000  0.20000000       0.025
   0.50000000 -0.25000000  0.20000000       0.025
  -0.25000000 -0.25000000  0.20000000       0.025
  -0.00000000 -0.00000000  0.40000000       0.025
   0.25000000  0.00000000  0.40000000       0.025
   0.50000000  0.00000000  0.40000000       0.025
  -0.25000000  0.00000000  0.40000000       0.025
   0.00000000  0.25000000  0.40000000       0.025
   0.25000000  0.25000000  0.40000000       0.025
   0.50000000  0.25000000  0.40000000       0.025
  -0.25000000  0.25000000  0.40000000       0.025
   0.00000000  0.50000000  0.40000000       0.025
   0.25000000  0.50000000  0.40000000       0.025
   0.50000000  0.50000000  0.40000000       0.025
  -0.25000000  0.50000000  0.40000000       0.025
   0.00000000 -0.25000000  0.40000000       0.025
   0.25000000 -0.25000000  0.40000000       0.025
   0.50000000 -0.25000000  0.40000000       0.025
  -0.25000000 -0.25000000  0.40000000       0.025
 
 position of ions in fractional coordinates (direct lattice) 
   0.61844300  0.12117100  0.11953300
   0.12117100  0.61844300  0.61953300
   0.96295700  0.79032200  0.11881300
   0.79032200  0.96295700  0.61881300
   0.43973200  0.26728100  0.59904700
   0.26728100  0.43973200  0.09904700
   0.07949800  0.91167500  0.49736300
   0.57140300  0.41236400  0.98018400
   0.73864940  0.25006200  0.49504900
   0.41236400  0.57140300  0.48018400
   0.91167500  0.07949800  0.99736300
   0.25006200  0.73711100  0.99504900
 
 position of ions in cartesian coordinates  (Angst):
   2.13385236 -2.80651863  0.74957826
   1.08287936  2.80651863  3.78734676
   5.40422860 -0.97432259  0.77720730
   4.35325560  0.97432259  3.81497580
   1.02080825 -0.97328413  3.66185403
   2.07178125  0.97328413  0.62408553
   2.15090056  4.69666552  3.05304062
   1.11215405 -0.89758908  5.98620365
   2.14782632 -2.75750425  3.03890411
   2.16312705  0.89758908  2.94843515
   1.09992756 -4.69666552  6.09080912
   1.09189228  2.74882176  6.07662404
 


--------------------------------------------------------------------------------------------------------


 k-point  1 :   0.0000 0.0000 0.0000  plane waves:    4051
 k-point  2 :   0.2500 0.0000 0.0000  plane waves:    4032
 k-point  3 :   0.5000 0.0000 0.0000  plane waves:    4030
 k-point  4 :   0.0000 0.2500 0.0000  plane waves:    4032
 k-point  5 :   0.2500 0.2500 0.0000  plane waves:    4038
 k-point  6 :   0.5000 0.2500-0.0000  plane waves:    4037
 k-point  7 :  -0.2500 0.2500 0.0000  plane waves:    4042
 k-point  8 :   0.0000 0.5000 0.0000  plane waves:    4030
 k-point  9 :   0.2500 0.5000-0.0000  plane waves:    4037
 k-point 10 :   0.5000 0.5000 0.0000  plane waves:    4026
 k-point 11 :  -0.0000-0.0000 0.2000  plane waves:    4046
 k-point 12 :   0.2500 0.0000 0.2000  plane waves:    4034
 k-point 13 :   0.5000 0.0000 0.2000  plane waves:    4025
 k-point 14 :  -0.2500-0.0000 0.2000  plane waves:    4044
 k-point 15 :   0.0000 0.2500 0.2000  plane waves:    4034
 k-point 16 :   0.2500 0.2500 0.2000  plane waves:    4017
 k-point 17 :   0.5000 0.2500 0.2000  plane waves:    4039
 k-point 18 :  -0.2500 0.2500 0.2000  plane waves:    4042
 k-point 19 :   0.0000 0.5000 0.2000  plane waves:    4025
 k-point 20 :   0.2500 0.5000 0.2000  plane waves:    4039
 k-point 21 :   0.5000 0.5000 0.2000  plane waves:    4030
 k-point 22 :  -0.2500 0.5000 0.2000  plane waves:    4030
 k-point 23 :  -0.0000-0.2500 0.2000  plane waves:    4044
 k-point 24 :   0.2500-0.2500 0.2000  plane waves:    4042
 k-point 25 :   0.5000-0.2500 0.2000  plane waves:    4030
 k-point 26 :  -0.2500-0.2500 0.2000  plane waves:    4020
 k-point 27 :  -0.0000-0.0000 0.4000  plane waves:    4027
 k-point 28 :   0.2500 0.0000 0.4000  plane waves:    4034
 k-point 29 :   0.5000 0.0000 0.4000  plane waves:    4013
 k-point 30 :  -0.2500 0.0000 0.4000  plane waves:    4042
 k-point 31 :   0.0000 0.2500 0.4000  plane waves:    4034
 k-point 32 :   0.2500 0.2500 0.4000  plane waves:    4009
 k-point 33 :   0.5000 0.2500 0.4000  plane waves:    4026
 k-point 34 :  -0.2500 0.2500 0.4000  plane waves:    4027
 k-point 35 :   0.0000 0.5000 0.4000  plane waves:    4013
 k-point 36 :   0.2500 0.5000 0.4000  plane waves:    4026
 k-point 37 :   0.5000 0.5000 0.4000  plane waves:    4037
 k-point 38 :  -0.2500 0.5000 0.4000  plane waves:    4022
 k-point 39 :   0.0000-0.2500 0.4000  plane waves:    4042
 k-point 40 :   0.2500-0.2500 0.4000  plane waves:    4027
 k-point 41 :   0.5000-0.2500 0.4000  plane waves:    4022
 k-point 42 :  -0.2500-0.2500 0.4000  plane waves:    4015

 maximum and minimum number of plane-waves per node :      4051     4009

 maximum number of plane-waves:      4051
 maximum index in each direction: 
   IXMAX=   10   IYMAX=   10   IZMAX=   10
   IXMIN=  -11   IYMIN=  -11   IZMIN=  -10

 WARNING: aliasing errors must be expected set NGX to  44 to avoid them
 WARNING: aliasing errors must be expected set NGY to  44 to avoid them
 WARNING: aliasing errors must be expected set NGZ to  42 to avoid them
 aliasing errors are usually negligible using standard VASP settings
 and one can safely disregard these warnings

 serial   3D FFT for wavefunctions
 parallel 3D FFT for charge:
    minimum data exchange during FFTs selected (reduces bandwidth)


 FFT grid for exact exchange (Hartree Fock) 
  NGX = 24; NGY = 24; NGZ = 24

 
 Radii for the augmentation spheres in the non-local exchange
 for species   1 augmentation radius   1.120 (default was   0.830)
       energy cutoff for augmentation   1600.0
 for species   2 augmentation radius   1.570 (default was   1.163)
       energy cutoff for augmentation   1600.0
 for species   3 augmentation radius   1.034 (default was   0.970)
       energy cutoff for augmentation   1600.0

 total amount of memory used by VASP on root node   151696. kBytes
========================================================================

   base      :      30000. kBytes
   nonl-proj :      74517. kBytes
   fftplans  :        702. kBytes
   grid      :       2400. kBytes
   one-center:        186. kBytes
   HF        :        194. kBytes
   nonlr-proj:       1121. kBytes
   wavefun   :      42576. kBytes
 
 Broyden mixing: mesh for mixing (old mesh)
   NGX = 21   NGY = 21   NGZ = 21
  (NGX  = 64   NGY  = 64   NGZ  = 64)
  gives a total of   9261 points

 charge density for first step will be calculated from the start-wavefunctions


--------------------------------------------------------------------------------------------------------


 Maximum index for augmentation-charges          485 (set IRDMAX)


--------------------------------------------------------------------------------------------------------


 initial charge from wavefunction
 First call to EWALD:  gamma=   0.293
 Maximum number of real-space cells 3x 3x 3
 Maximum number of reciprocal cells 3x 3x 3

 FEWALD executed in parallel
    FEWALD:  cpu time    0.00: real time    0.00


----------------------------------------- Iteration    1(   1)  ---------------------------------------


    POTLOK:  cpu time    0.05: real time    0.05
    SETDIJ:  cpu time    2.01: real time    2.01
 
    SUBROT:  cpu time    1.92: real time    1.92
    SUBROT:  cpu time    0.97: real time    0.97
    SUBROT:  cpu time    0.97: real time    0.97
    SUBROT:  cpu time    0.97: real time    0.97
    --------------------------------------------
    SUBRT+:  cpu time    4.84: real time    4.84

 Broyden mixing:
  rms(total) = 0.99300E-02    rms(broyden)= 0.99255E-02
  rms(prec ) = 0.18065E-01
  weight for this iteration     100.00

 eigenvalues of (default mixing * dielectric matrix)
  average eigenvalue GAMMA=   1.5802
  2.4471  0.8799  1.4135
 
    TRIAL :  cpu time  247.50: real time  247.32
    CORREC:  cpu time    0.00: real time    0.00
    CHARGE:  cpu time    0.10: real time    0.10
    --------------------------------------------
      LOOP:  cpu time  249.67: real time  249.49

 eigenvalue-minimisations  :     0
 total energy-change (2. order) : 0.7553870E+02  (-0.2132480E+03)
 number of electron     112.0001479 magnetization 
 augmentation part       38.9125320 magnetization 

 Free energy of the ion-electron system (eV)
  ---------------------------------------------------
  alpha Z        PSCENC =       339.31929130
  Ewald energy   TEWEN  =     -9063.19543166
  -1/2 Hartree   DENC   =     -8067.45134703
  -exchange  EXHF       =       327.44847549
  -V(xc)+E(xc)   XCENC  =       369.90374261
  PAW double counting   =     16899.13612351   -17391.94767172
  entropy T*S    EENTRO =        -0.00141318
  eigenvalues    EBANDS =     -1658.65816224
  atomic energy  EATOM  =     18320.98302006
  ---------------------------------------------------
  free energy    TOTEN  =        75.53870362 eV

  energy without entropy =       75.54011680  energy(sigma->0) =       75.53917468


--------------------------------------------------------------------------------------------------------




----------------------------------------- Iteration    1(   2)  ---------------------------------------


    POTLOK:  cpu time    0.05: real time    0.05
    SETDIJ:  cpu time    1.98: real time    1.98
 
    SUBROT:  cpu time    1.90: real time    1.90
    SUBROT:  cpu time    0.35: real time    0.35
    SUBROT:  cpu time    0.35: real time    0.35
    SUBROT:  cpu time    0.35: real time    0.35
    --------------------------------------------
    SUBRT+:  cpu time    2.96: real time    2.96

 Broyden mixing:
  rms(total) = 0.27716E-01    rms(broyden)= 0.27706E-01
  rms(prec ) = 0.50682E-01
  weight for this iteration     100.00

 eigenvalues of (default mixing * dielectric matrix)
  average eigenvalue GAMMA=   1.5376
  2.5448  1.2184  0.8497
 
    TRIAL :  cpu time  253.79: real time  253.60
    CORREC:  cpu time    0.00: real time    0.00
    CHARGE:  cpu time    0.06: real time    0.06
    --------------------------------------------
      LOOP:  cpu time  255.89: real time  255.72

 eigenvalue-minimisations  :     0
 total energy-change (2. order) :-0.8390702E+02  (-0.1469045E+03)
 number of electron     112.0001384 magnetization 
 augmentation part       35.4524407 magnetization 

 Free energy of the ion-electron system (eV)
  ---------------------------------------------------
  alpha Z        PSCENC =       339.31929130
  Ewald energy   TEWEN  =     -9063.19543166
  -1/2 Hartree   DENC   =     -8372.02488571
  -exchange  EXHF       =       338.95745087
  -V(xc)+E(xc)   XCENC  =       377.32802485
  PAW double counting   =     17403.02751898   -17942.21540684
  entropy T*S    EENTRO =        -0.00073461
  eigenvalues    EBANDS =     -1410.54648748
  atomic energy  EATOM  =     18320.98302006
  ---------------------------------------------------
  free energy    TOTEN  =        -8.36831881 eV

  energy without entropy =       -8.36758420  energy(sigma->0) =       -8.36807394


--------------------------------------------------------------------------------------------------------




----------------------------------------- Iteration    1(   3)  ---------------------------------------


    POTLOK:  cpu time    0.10: real time    0.10
    SETDIJ:  cpu time    2.00: real time    2.00
 
    SUBROT:  cpu time    0.72: real time    0.72
    SUBROT:  cpu time    0.33: real time    0.33
    SUBROT:  cpu time    0.34: real time    0.34
    SUBROT:  cpu time    0.33: real time    0.33
    --------------------------------------------
    SUBRT+:  cpu time    1.73: real time    1.74

 Broyden mixing:
  rms(total) = 0.28300E-01    rms(broyden)= 0.28289E-01
  rms(prec ) = 0.52615E-01
  weight for this iteration     100.00

 eigenvalues of (default mixing * dielectric matrix)
  average eigenvalue GAMMA=   1.7723
  1.0112  2.4987  1.8072
 
    TRIAL :  cpu time  257.03: real time  256.84
    CORREC:  cpu time    0.00: real time    0.00
    CHARGE:  cpu time    0.10: real time    0.11
    --------------------------------------------
      LOOP:  cpu time  259.24: real time  259.06

 eigenvalue-minimisations  :     0
 total energy-change (2. order) :-0.6811269E+01  (-0.2035348E+03)
 number of electron     112.0001509 magnetization 
 augmentation part       39.6835725 magnetization 

 Free energy of the ion-electron system (eV)
  ---------------------------------------------------
  alpha Z        PSCENC =       339.31929130
  Ewald energy   TEWEN  =     -9063.19543166
  -1/2 Hartree   DENC   =     -7479.32451750
  -exchange  EXHF       =       324.97812139
  -V(xc)+E(xc)   XCENC  =       357.38921637
  PAW double counting   =     15150.83787871   -15580.27431446
  entropy T*S    EENTRO =         0.00009496
  eigenvalues    EBANDS =     -2385.89211714
  atomic energy  EATOM  =     18320.98302006
  ---------------------------------------------------
  free energy    TOTEN  =       -15.17958754 eV

  energy without entropy =      -15.17968250  energy(sigma->0) =      -15.17961920


--------------------------------------------------------------------------------------------------------




----------------------------------------- Iteration    1(   4)  ---------------------------------------


    POTLOK:  cpu time    0.06: real time    0.06
    SETDIJ:  cpu time    2.00: real time    2.00
 
    SUBROT:  cpu time    0.89: real time    0.89
    SUBROT:  cpu time    0.34: real time    0.34
    SUBROT:  cpu time    0.35: real time    0.35
    SUBROT:  cpu time    0.35: real time    0.35
    SUBROT:  cpu time    0.37: real time    0.37
    --------------------------------------------
    SUBRT+:  cpu time    2.30: real time    2.31

 Broyden mixing:
  rms(total) = 0.11340E+00    rms(broyden)= 0.11321E+00
  rms(prec ) = 0.19990E+00
  weight for this iteration     100.00

 eigenvalues of (default mixing * dielectric matrix)
  average eigenvalue GAMMA=   1.2324
  2.5693  1.3155  0.6563  0.3883
 
    TRIAL :  cpu time  258.17: real time  258.08
    CORREC:  cpu time    0.00: real time    0.00
    CHARGE:  cpu time    0.10: real time    0.10
    --------------------------------------------
      LOOP:  cpu time  260.34: real time  260.25

 eigenvalue-minimisations  :     0
 total energy-change (2. order) :-0.7485891E+01  (-0.1073457E+03)
 number of electron     112.0001429 magnetization 
 augmentation part       37.2434166 magnetization 

 Free energy of the ion-electron system (eV)
  ---------------------------------------------------
  alpha Z        PSCENC =       339.31929130
  Ewald energy   TEWEN  =     -9063.19543166
  -1/2 Hartree   DENC   =     -8544.95586886
  -exchange  EXHF       =       342.98490252
  -V(xc)+E(xc)   XCENC  =       381.65012300
  PAW double counting   =     17633.09152717   -18213.82028529
  entropy T*S    EENTRO =         0.00037854
  eigenvalues    EBANDS =     -1218.72285160
  atomic energy  EATOM  =     18320.98302006
  ---------------------------------------------------
  free energy    TOTEN  =       -22.66547840 eV

  energy without entropy =      -22.66585694  energy(sigma->0) =      -22.66560458


--------------------------------------------------------------------------------------------------------




----------------------------------------- Iteration    1(   5)  ---------------------------------------


    POTLOK:  cpu time    0.07: real time    0.07
    SETDIJ:  cpu time    2.00: real time    2.00
 
    SUBROT:  cpu time    2.01: real time    2.01
    SUBROT:  cpu time    0.37: real time    0.37
    SUBROT:  cpu time    0.35: real time    0.35
    SUBROT:  cpu time    0.36: real time    0.36
    --------------------------------------------
    SUBRT+:  cpu time    3.09: real time    3.09

 Broyden mixing:
  rms(total) = 0.45032E-01    rms(broyden)= 0.45022E-01
  rms(prec ) = 0.91653E-01
  weight for this iteration     100.00

 eigenvalues of (default mixing * dielectric matrix)
  average eigenvalue GAMMA=   1.6805
  2.4618  0.9357  1.6441
 
    TRIAL :  cpu time  261.81: real time  261.60
    CORREC:  cpu time    0.00: real time    0.00
    CHARGE:  cpu time    0.10: real time    0.10
    --------------------------------------------
      LOOP:  cpu time  263.98: real time  263.78

 eigenvalue-minimisations  :     0
 total energy-change (2. order) :-0.3816152E+02  (-0.1506407E+02)
 number of electron     112.0001429 magnetization 
 augmentation part       37.2443731 magnetization 

 Free energy of the ion-electron system (eV)
  ---------------------------------------------------
  alpha Z        PSCENC =       339.31929130
  Ewald energy   TEWEN  =     -9063.19543166
  -1/2 Hartree   DENC   =     -8009.97033514
  -exchange  EXHF       =       336.37880905
  -V(xc)+E(xc)   XCENC  =       368.39916635
  PAW double counting   =     15870.76033842   -16340.24442409
  entropy T*S    EENTRO =         0.00064243
  eigenvalues    EBANDS =     -1883.25780933
  atomic energy  EATOM  =     18320.98302006
  ---------------------------------------------------
  free energy    TOTEN  =       -60.82699651 eV

  energy without entropy =      -60.82763894  energy(sigma->0) =      -60.82721065


--------------------------------------------------------------------------------------------------------




----------------------------------------- Iteration    1(   6)  ---------------------------------------


    POTLOK:  cpu time    0.09: real time    0.09
    SETDIJ:  cpu time    1.99: real time    1.99
 
    SUBROT:  cpu time    0.74: real time    0.74
    SUBROT:  cpu time    0.37: real time    0.37
    SUBROT:  cpu time    0.37: real time    0.37
    SUBROT:  cpu time    0.37: real time    0.37
    --------------------------------------------
    SUBRT+:  cpu time    1.86: real time    1.86

 Broyden mixing:
  rms(total) = 0.27462E-02    rms(broyden)= 0.27456E-02
  rms(prec ) = 0.45635E-02
  weight for this iteration     100.00

 eigenvalues of (default mixing * dielectric matrix)
  average eigenvalue GAMMA=   1.8142
  1.0121  1.9047  2.5259
 
    TRIAL :  cpu time  263.13: real time  262.92
    CORREC:  cpu time    0.00: real time    0.00
    CHARGE:  cpu time    0.11: real time    0.11
    --------------------------------------------
      LOOP:  cpu time  265.32: real time  265.12

 eigenvalue-minimisations  :     0
 total energy-change (2. order) :-0.5106402E+01  (-0.8179145E+01)
 number of electron     112.0001459 magnetization 
 augmentation part       38.2270074 magnetization 

 Free energy of the ion-electron system (eV)
  ---------------------------------------------------
  alpha Z        PSCENC =       339.31929130
  Ewald energy   TEWEN  =     -9063.19543166
  -1/2 Hartree   DENC   =     -8002.67625471
  -exchange  EXHF       =       337.13413425
  -V(xc)+E(xc)   XCENC  =       368.77641536
  PAW double counting   =     15770.87099524   -16239.90699565
  entropy T*S    EENTRO =         0.00066558
  eigenvalues    EBANDS =     -1897.23921491
  atomic energy  EATOM  =     18320.98302006
  ---------------------------------------------------
  free energy    TOTEN  =       -65.93339829 eV

  energy without entropy =      -65.93406386  energy(sigma->0) =      -65.93362015


--------------------------------------------------------------------------------------------------------




----------------------------------------- Iteration    1(   7)  ---------------------------------------


    POTLOK:  cpu time    0.05: real time    0.05
    SETDIJ:  cpu time    2.01: real time    2.01
 
    SUBROT:  cpu time    1.52: real time    1.52
    SUBROT:  cpu time    0.96: real time    0.96
    SUBROT:  cpu time    0.96: real time    0.96
    SUBROT:  cpu time    0.96: real time    0.96
    --------------------------------------------
    SUBRT+:  cpu time    4.41: real time    4.42

 Broyden mixing:
  rms(total) = 0.13300E-01    rms(broyden)= 0.13296E-01
  rms(prec ) = 0.23553E-01
  weight for this iteration     100.00

 eigenvalues of (default mixing * dielectric matrix)
  average eigenvalue GAMMA=   1.6030
  2.5017  0.8894  1.4180
 
    TRIAL :  cpu time  269.74: real time  269.54
    CORREC:  cpu time    0.00: real time    0.00
    CHARGE:  cpu time    0.05: real time    0.05
    --------------------------------------------
      LOOP:  cpu time  271.86: real time  271.66

 eigenvalue-minimisations  :     0
 total energy-change (2. order) :-0.1539878E+01  (-0.4135806E+01)
 number of electron     112.0001442 magnetization 
 augmentation part       37.7045107 magnetization 

 Free energy of the ion-electron system (eV)
  ---------------------------------------------------
  alpha Z        PSCENC =       339.31929130
  Ewald energy   TEWEN  =     -9063.19543166
  -1/2 Hartree   DENC   =     -8244.91833264
  -exchange  EXHF       =       341.60946519
  -V(xc)+E(xc)   XCENC  =       374.55547222
  PAW double counting   =     16206.83107389   -16710.22249614
  entropy T*S    EENTRO =         0.00042960
  eigenvalues    EBANDS =     -1632.43600427
  atomic energy  EATOM  =     18320.98302006
  ---------------------------------------------------
  free energy    TOTEN  =       -67.47327647 eV

  energy without entropy =      -67.47370607  energy(sigma->0) =      -67.47341967


--------------------------------------------------------------------------------------------------------




----------------------------------------- Iteration    1(   8)  ---------------------------------------


    POTLOK:  cpu time    0.06: real time    0.06
    SETDIJ:  cpu time    1.98: real time    1.98
 
    SUBROT:  cpu time    0.72: real time    0.72
    SUBROT:  cpu time    0.35: real time    0.35
    SUBROT:  cpu time    0.38: real time    0.38
    SUBROT:  cpu time    0.36: real time    0.36
    --------------------------------------------
    SUBRT+:  cpu time    1.81: real time    1.81

 Broyden mixing:
  rms(total) = 0.84500E-02    rms(broyden)= 0.84476E-02
  rms(prec ) = 0.14115E-01
  weight for this iteration     100.00

 eigenvalues of (default mixing * dielectric matrix)
  average eigenvalue GAMMA=   1.6703
  2.4572  0.9463  1.6074
 
    TRIAL :  cpu time  269.08: real time  268.88
    CORREC:  cpu time    0.00: real time    0.00
    CHARGE:  cpu time    0.09: real time    0.09
    --------------------------------------------
      LOOP:  cpu time  271.21: real time  271.02

 eigenvalue-minimisations  :     0
 total energy-change (2. order) :-0.1611657E+01  (-0.7703864E+00)
 number of electron     112.0001443 magnetization 
 augmentation part       37.7232908 magnetization 

 Free energy of the ion-electron system (eV)
  ---------------------------------------------------
  alpha Z        PSCENC =       339.31929130
  Ewald energy   TEWEN  =     -9063.19543166
  -1/2 Hartree   DENC   =     -8118.17048554
  -exchange  EXHF       =       339.50833599
  -V(xc)+E(xc)   XCENC  =       371.37611506
  PAW double counting   =     15915.35951859   -16396.74088339
  entropy T*S    EENTRO =         0.00070397
  eigenvalues    EBANDS =     -1777.52484318
  atomic energy  EATOM  =     18320.98302006
  ---------------------------------------------------
  free energy    TOTEN  =       -69.08493316 eV

  energy without entropy =      -69.08563713  energy(sigma->0) =      -69.08516781


--------------------------------------------------------------------------------------------------------




----------------------------------------- Iteration    1(   9)  ---------------------------------------


    POTLOK:  cpu time    0.10: real time    0.10
    SETDIJ:  cpu time    2.02: real time    2.02
 
    SUBROT:  cpu time    0.90: real time    0.90
    SUBROT:  cpu time    0.37: real time    0.36
    SUBROT:  cpu time    0.38: real time    0.38
    SUBROT:  cpu time    0.37: real time    0.37
    --------------------------------------------
    SUBRT+:  cpu time    2.01: real time    2.02

 Broyden mixing:
  rms(total) = 0.52494E-03    rms(broyden)= 0.52434E-03
  rms(prec ) = 0.83149E-03
  weight for this iteration     100.00

 eigenvalues of (default mixing * dielectric matrix)
  average eigenvalue GAMMA=   1.6935
  2.5237  1.0000  1.5568
 
    TRIAL :  cpu time  258.81: real time  258.61
    CORREC:  cpu time    0.00: real time    0.00
    CHARGE:  cpu time    0.06: real time    0.06
    --------------------------------------------
      LOOP:  cpu time  260.99: real time  260.80

 eigenvalue-minimisations  :     0
 total energy-change (2. order) :-0.3096895E+00  (-0.3865503E+00)
 number of electron     112.0001449 magnetization 
 augmentation part       37.9045120 magnetization 

 Free energy of the ion-electron system (eV)
  ---------------------------------------------------
  alpha Z        PSCENC =       339.31929130
  Ewald energy   TEWEN  =     -9063.19543166
  -1/2 Hartree   DENC   =     -8125.75964647
  -exchange  EXHF       =       339.58097368
  -V(xc)+E(xc)   XCENC  =       371.43815099
  PAW double counting   =     15911.62877180   -16392.90791494
  entropy T*S    EENTRO =         0.00083332
  eigenvalues    EBANDS =     -1770.48254136
  atomic energy  EATOM  =     18320.98302006
  ---------------------------------------------------
  free energy    TOTEN  =       -69.39462264 eV

  energy without entropy =      -69.39545596  energy(sigma->0) =      -69.39490041


--------------------------------------------------------------------------------------------------------




----------------------------------------- Iteration    1(  10)  ---------------------------------------


    POTLOK:  cpu time    0.10: real time    0.10
    SETDIJ:  cpu time    2.00: real time    2.00
 
    SUBROT:  cpu time    1.85: real time    1.85
    SUBROT:  cpu time    0.82: real time    0.82
    SUBROT:  cpu time    0.57: real time    0.57
    SUBROT:  cpu time    0.38: real time    0.39
    --------------------------------------------
    SUBRT+:  cpu time    3.63: real time    3.64

 Broyden mixing:
  rms(total) = 0.23063E-02    rms(broyden)= 0.23058E-02
  rms(prec ) = 0.38744E-02
  weight for this iteration     100.00

 eigenvalues of (default mixing * dielectric matrix)
  average eigenvalue GAMMA=   1.6817
  2.4756  0.9873  1.5821
 
    TRIAL :  cpu time  283.75: real time  283.54
    CORREC:  cpu time    0.00: real time    0.00
    CHARGE:  cpu time    0.11: real time    0.11
    --------------------------------------------
      LOOP:  cpu time  285.96: real time  285.80

 eigenvalue-minimisations  :     0
 total energy-change (2. order) :-0.1038475E+00  (-0.1523089E+00)
 number of electron     112.0001446 magnetization 
 augmentation part       37.8173976 magnetization 

 Free energy of the ion-electron system (eV)
  ---------------------------------------------------
  alpha Z        PSCENC =       339.31929130
  Ewald energy   TEWEN  =     -9063.19543166
  -1/2 Hartree   DENC   =     -8173.11784355
  -exchange  EXHF       =       340.38406951
  -V(xc)+E(xc)   XCENC  =       372.53498747
  PAW double counting   =     15993.46521361   -16481.47775364
  entropy T*S    EENTRO =         0.00070612
  eigenvalues    EBANDS =     -1718.39485655
  atomic energy  EATOM  =     18320.98302006
  ---------------------------------------------------
  free energy    TOTEN  =       -69.49847013 eV

  energy without entropy =      -69.49917625  energy(sigma->0) =      -69.49870551


--------------------------------------------------------------------------------------------------------




----------------------------------------- Iteration    1(  11)  ---------------------------------------


    POTLOK:  cpu time    0.10: real time    0.10
    SETDIJ:  cpu time    2.00: real time    2.00
 
    SUBROT:  cpu time    0.77: real time    0.77
    SUBROT:  cpu time    0.41: real time    0.41
    SUBROT:  cpu time    0.37: real time    0.37
    SUBROT:  cpu time    0.39: real time    0.39
    --------------------------------------------
    SUBRT+:  cpu time    1.95: real time    1.95

 Broyden mixing:
  rms(total) = 0.78180E-03    rms(broyden)= 0.78156E-03
  rms(prec ) = 0.15624E-02
  weight for this iteration     100.00

 eigenvalues of (default mixing * dielectric matrix)
  average eigenvalue GAMMA=   1.6658
  2.4951  0.9831  1.5191
 
    TRIAL :  cpu time  283.60: real time  283.38
    CORREC:  cpu time    0.00: real time    0.00
    CHARGE:  cpu time    0.11: real time    0.11
    --------------------------------------------
      LOOP:  cpu time  285.82: real time  285.60

 eigenvalue-minimisations  :     0
 total energy-change (2. order) :-0.6962100E-01  (-0.3688439E-01)
 number of electron     112.0001445 magnetization 
 augmentation part       37.7845836 magnetization 

 Free energy of the ion-electron system (eV)
  ---------------------------------------------------
  alpha Z        PSCENC =       339.31929130
  Ewald energy   TEWEN  =     -9063.19543166
  -1/2 Hartree   DENC   =     -8151.74823827
  -exchange  EXHF       =       340.05588704
  -V(xc)+E(xc)   XCENC  =       372.06201639
  PAW double counting   =     15941.46583919   -16426.44067659
  entropy T*S    EENTRO =         0.00059094
  eigenvalues    EBANDS =     -1742.07050472
  atomic energy  EATOM  =     18320.98302006
  ---------------------------------------------------
  free energy    TOTEN  =       -69.56809113 eV

  energy without entropy =      -69.56868207  energy(sigma->0) =      -69.56828811


--------------------------------------------------------------------------------------------------------




----------------------------------------- Iteration    1(  12)  ---------------------------------------


    POTLOK:  cpu time    0.15: real time    0.15
    SETDIJ:  cpu time    2.07: real time    2.07
 
    SUBROT:  cpu time    0.79: real time    0.79
    SUBROT:  cpu time    0.38: real time    0.38
    SUBROT:  cpu time    0.38: real time    0.38
    SUBROT:  cpu time    0.39: real time    0.39
    --------------------------------------------
    SUBRT+:  cpu time    1.95: real time    1.99

 Broyden mixing:
  rms(total) = 0.20985E-03    rms(broyden)= 0.20975E-03
  rms(prec ) = 0.45749E-03
  weight for this iteration     100.00

 eigenvalues of (default mixing * dielectric matrix)
  average eigenvalue GAMMA=   1.6418
  2.5063  0.9978  1.4213
 
    TRIAL :  cpu time  280.40: real time  280.22
    CORREC:  cpu time    0.00: real time    0.00
    CHARGE:  cpu time    0.08: real time    0.08
    --------------------------------------------
      LOOP:  cpu time  282.71: real time  282.54

 eigenvalue-minimisations  :     0
 total energy-change (2. order) :-0.1232983E-01  (-0.2285148E-01)
 number of electron     112.0001446 magnetization 
 augmentation part       37.8249056 magnetization 

 Free energy of the ion-electron system (eV)
  ---------------------------------------------------
  alpha Z        PSCENC =       339.31929130
  Ewald energy   TEWEN  =     -9063.19543166
  -1/2 Hartree   DENC   =     -8143.36908008
  -exchange  EXHF       =       339.93989364
  -V(xc)+E(xc)   XCENC  =       371.88706987
  PAW double counting   =     15919.60680548   -16403.49484952
  entropy T*S    EENTRO =         0.00053983
  eigenvalues    EBANDS =     -1751.25773099
  atomic energy  EATOM  =     18320.98302006
  ---------------------------------------------------
  free energy    TOTEN  =       -69.58042096 eV

  energy without entropy =      -69.58096079  energy(sigma->0) =      -69.58060091


--------------------------------------------------------------------------------------------------------




----------------------------------------- Iteration    1(  13)  ---------------------------------------


    POTLOK:  cpu time    0.10: real time    0.10
    SETDIJ:  cpu time    1.99: real time    1.99
 
    SUBROT:  cpu time    1.55: real time    1.55
    SUBROT:  cpu time    0.77: real time    0.77
    SUBROT:  cpu time    0.77: real time    0.77
    SUBROT:  cpu time    0.76: real time    0.76
    --------------------------------------------
    SUBRT+:  cpu time    3.85: real time    3.88

 Broyden mixing:
  rms(total) = 0.55579E-03    rms(broyden)= 0.55567E-03
  rms(prec ) = 0.94382E-03
  weight for this iteration     100.00

 eigenvalues of (default mixing * dielectric matrix)
  average eigenvalue GAMMA=   1.6912
  2.4807  0.9949  1.5980
 
    TRIAL :  cpu time  281.66: real time  281.46
    CORREC:  cpu time    0.00: real time    0.00
    CHARGE:  cpu time    0.11: real time    0.11
    --------------------------------------------
      LOOP:  cpu time  283.86: real time  283.67

 eigenvalue-minimisations  :     0
 total energy-change (2. order) :-0.9660422E-02  (-0.5115585E-02)
 number of electron     112.0001447 magnetization 
 augmentation part       37.8288137 magnetization 

 Free energy of the ion-electron system (eV)
  ---------------------------------------------------
  alpha Z        PSCENC =       339.31929130
  Ewald energy   TEWEN  =     -9063.19543166
  -1/2 Hartree   DENC   =     -8153.27075428
  -exchange  EXHF       =       340.11245836
  -V(xc)+E(xc)   XCENC  =       372.12109742
  PAW double counting   =     15935.80225376   -16421.18239039
  entropy T*S    EENTRO =         0.00052887
  eigenvalues    EBANDS =     -1740.28016578
  atomic energy  EATOM  =     18320.98302006
  ---------------------------------------------------
  free energy    TOTEN  =       -69.59008138 eV

  energy without entropy =      -69.59061025  energy(sigma->0) =      -69.59025767


--------------------------------------------------------------------------------------------------------




----------------------------------------- Iteration    1(  14)  ---------------------------------------


    POTLOK:  cpu time    0.05: real time    0.05
    SETDIJ:  cpu time    2.00: real time    2.00
 
    SUBROT:  cpu time    0.86: real time    0.86
    SUBROT:  cpu time    0.40: real time    0.40
    SUBROT:  cpu time    0.40: real time    0.40
    SUBROT:  cpu time    0.39: real time    0.39
    --------------------------------------------
    SUBRT+:  cpu time    2.06: real time    2.06

 Broyden mixing:
  rms(total) = 0.68150E-04    rms(broyden)= 0.68136E-04
  rms(prec ) = 0.13993E-03
  weight for this iteration     100.00

 eigenvalues of (default mixing * dielectric matrix)
  average eigenvalue GAMMA=   1.6681
  2.5159  0.9892  1.4992
 
    TRIAL :  cpu time  281.73: real time  281.51
    CORREC:  cpu time    0.00: real time    0.00
    CHARGE:  cpu time    0.09: real time    0.09
    --------------------------------------------
      LOOP:  cpu time  283.87: real time  283.66

 eigenvalue-minimisations  :     0
 total energy-change (2. order) :-0.2450996E-02  (-0.3779765E-02)
 number of electron     112.0001446 magnetization 
 augmentation part       37.8112586 magnetization 

 Free energy of the ion-electron system (eV)
  ---------------------------------------------------
  alpha Z        PSCENC =       339.31929130
  Ewald energy   TEWEN  =     -9063.19543166
  -1/2 Hartree   DENC   =     -8153.81004069
  -exchange  EXHF       =       340.11068940
  -V(xc)+E(xc)   XCENC  =       372.13059327
  PAW double counting   =     15933.75064302   -16419.29373161
  entropy T*S    EENTRO =         0.00054702
  eigenvalues    EBANDS =     -1739.58809434
  atomic energy  EATOM  =     18320.98302006
  ---------------------------------------------------
  free energy    TOTEN  =       -69.59253238 eV

  energy without entropy =      -69.59307940  energy(sigma->0) =      -69.59271472


--------------------------------------------------------------------------------------------------------




----------------------------------------- Iteration    1(  15)  ---------------------------------------


    POTLOK:  cpu time    0.21: real time    0.21
    SETDIJ:  cpu time    2.26: real time    2.26
 
    SUBROT:  cpu time    0.81: real time    0.82
    SUBROT:  cpu time    0.42: real time    0.42
    SUBROT:  cpu time    0.39: real time    0.39
    SUBROT:  cpu time    0.38: real time    0.38
    --------------------------------------------
    SUBRT+:  cpu time    2.00: real time    2.02

 Broyden mixing:
  rms(total) = 0.19450E-03    rms(broyden)= 0.19444E-03
  rms(prec ) = 0.33171E-03
  weight for this iteration     100.00

 eigenvalues of (default mixing * dielectric matrix)
  average eigenvalue GAMMA=   1.6820
  2.4724  0.9879  1.5855
 
    TRIAL :  cpu time  284.78: real time  284.60
    CORREC:  cpu time    0.00: real time    0.00
    CHARGE:  cpu time    0.09: real time    0.09
    --------------------------------------------
      LOOP:  cpu time  287.35: real time  287.16

 eigenvalue-minimisations  :     0
 total energy-change (2. order) :-0.1504717E-02  (-0.1037097E-02)
 number of electron     112.0001446 magnetization 
 augmentation part       37.8155856 magnetization 

 Free energy of the ion-electron system (eV)
  ---------------------------------------------------
  alpha Z        PSCENC =       339.31929130
  Ewald energy   TEWEN  =     -9063.19543166
  -1/2 Hartree   DENC   =     -8149.09790705
  -exchange  EXHF       =       340.02157536
  -V(xc)+E(xc)   XCENC  =       372.01933156
  PAW double counting   =     15921.69191692   -16406.62355263
  entropy T*S    EENTRO =         0.00055978
  eigenvalues    EBANDS =     -1744.71282797
  atomic energy  EATOM  =     18320.98302006
  ---------------------------------------------------
  free energy    TOTEN  =       -69.59403710 eV

  energy without entropy =      -69.59459687  energy(sigma->0) =      -69.59422369


--------------------------------------------------------------------------------------------------------




----------------------------------------- Iteration    1(  16)  ---------------------------------------


    POTLOK:  cpu time    0.10: real time    0.10
    SETDIJ:  cpu time    2.00: real time    2.00
 
    SUBROT:  cpu time    0.80: real time    0.80
    SUBROT:  cpu time    0.39: real time    0.39
    SUBROT:  cpu time    0.38: real time    0.39
    SUBROT:  cpu time    0.41: real time    0.41
    --------------------------------------------
    SUBRT+:  cpu time    1.99: real time    1.99

 Broyden mixing:
  rms(total) = 0.84771E-04    rms(broyden)= 0.84753E-04
  rms(prec ) = 0.14115E-03
  weight for this iteration     100.00

 eigenvalues of (default mixing * dielectric matrix)
  average eigenvalue GAMMA=   1.6842
  2.4864  0.9884  1.5776
 
    TRIAL :  cpu time  283.48: real time  283.29
    CORREC:  cpu time    0.00: real time    0.00
    CHARGE:  cpu time    0.09: real time    0.09
    --------------------------------------------
      LOOP:  cpu time  285.67: real time  285.49

 eigenvalue-minimisations  :     0
 total energy-change (2. order) :-0.5703908E-03  (-0.4089415E-03)
 number of electron     112.0001446 magnetization 
 augmentation part       37.8203977 magnetization 

 Free energy of the ion-electron system (eV)
  ---------------------------------------------------
  alpha Z        PSCENC =       339.31929130
  Ewald energy   TEWEN  =     -9063.19543166
  -1/2 Hartree   DENC   =     -8150.21768712
  -exchange  EXHF       =       340.04018629
  -V(xc)+E(xc)   XCENC  =       372.04654756
  PAW double counting   =     15922.55197520   -16407.67224513
  entropy T*S    EENTRO =         0.00056038
  eigenvalues    EBANDS =     -1743.45082377
  atomic energy  EATOM  =     18320.98302006
  ---------------------------------------------------
  free energy    TOTEN  =       -69.59460749 eV

[...]
     22      -2.2878      2.00000
     23      -1.9513      2.00000
     24      -1.6148      2.00000
     25      -1.2168      2.00000
     26      -1.0033      2.00000
     27      -0.9752      2.00000
     28      -0.7104      2.00000
     29      -0.5545      2.00000
     30      -0.3916      2.00000
     31      -0.2864      2.00000
     32      -0.2020      2.00000
     33      -0.1821      2.00000
     34      -0.1457      2.00000
     35      -0.0210      2.00000
     36       0.0168      2.00000
     37       1.2936      2.00000
     38       1.3064      2.00000
     39       1.3677      2.00000
     40       1.4094      2.00000
     41       1.4490      2.00000
     42       1.4650      2.00000
     43       1.5034      2.00000
     44       1.5491      2.00000
     45       1.7650      2.00000
     46       1.8944      2.00000
     47       1.9804      2.00000
     48       2.1517      2.00000
     49       2.3699      2.00000
     50       2.5760      2.00000
     51       2.7056      2.00000
     52       2.9088      2.00000
     53       3.0137      2.00000
     54       3.2246      2.00000
     55       3.4030      2.00000
     56       3.6587      2.00000
     57       6.3764     -0.00000
     58       6.5071     -0.00000
     59       7.7178      0.00000
     60       7.8977      0.00000
     61       8.2833      0.00000
     62       8.5725      0.00000
     63       9.3264      0.00000
     64       9.8454      0.00000
     65      10.0206      0.00000
     66      10.3476      0.00000
     67      10.5892      0.00000
     68      10.7866      0.00000
     69      10.9790      0.00000
     70      11.2585      0.00000
     71      11.3042      0.00000
     72      11.7036      0.00000
     73      12.2522      0.00000
     74      12.4655      0.00000
     75      13.0952      0.00000
     76      13.4591      0.00000
     77      13.7960      0.00000
     78      14.6685      0.00000
     79      14.9901      0.00000
     80      15.7231      0.00000

 k-point  40 :       0.2500   -0.2500    0.4000
  band No.  band energies     occupation 
      1     -68.6498      2.00000
      2     -68.6441      2.00000
      3     -68.6380      2.00000
      4     -68.6340      2.00000
      5     -68.6173      2.00000
      6     -68.6115      2.00000
      7     -68.6008      2.00000
      8     -68.5945      2.00000
      9     -68.5814      2.00000
     10     -68.5781      2.00000
     11     -68.5657      2.00000
     12     -68.5611      2.00000
     13     -12.2165      2.00000
     14     -11.8152      2.00000
     15     -10.8197      2.00000
     16     -10.6687      2.00000
     17     -10.3464      2.00000
     18     -10.2747      2.00000
     19      -5.4479      2.00000
     20      -5.1163      2.00000
     21      -2.4291      2.00000
     22      -2.1528      2.00000
     23      -2.0153      2.00000
     24      -1.5210      2.00000
     25      -1.3540      2.00000
     26      -1.1641      2.00000
     27      -0.9346      2.00000
     28      -0.8149      2.00000
     29      -0.5877      2.00000
     30      -0.5377      2.00000
     31      -0.2807      2.00000
     32      -0.2395      2.00000
     33      -0.1387      2.00000
     34      -0.0951      2.00000
     35      -0.0262      2.00000
     36       0.0304      2.00000
     37       1.3109      2.00000
     38       1.3435      2.00000
     39       1.3618      2.00000
     40       1.3961      2.00000
     41       1.4504      2.00000
     42       1.4799      2.00000
     43       1.4968      2.00000
     44       1.5632      2.00000
     45       1.8014      2.00000
     46       1.8457      2.00000
     47       1.9597      2.00000
     48       2.1087      2.00000
     49       2.2945      2.00000
     50       2.5320      2.00000
     51       2.6401      2.00000
     52       2.7693      2.00000
     53       2.9332      2.00000
     54       3.1625      2.00000
     55       3.3041      2.00000
     56       3.5752      2.00000
     57       6.5523     -0.00000
     58       6.7105     -0.00000
     59       7.9635      0.00000
     60       7.9980      0.00000
     61       8.7266      0.00000
     62       9.0919      0.00000
     63       9.4544      0.00000
     64       9.8258      0.00000
     65      10.2984      0.00000
     66      10.3672      0.00000
     67      10.7818      0.00000
     68      10.8473      0.00000
     69      11.1231      0.00000
     70      11.2716      0.00000
     71      11.3703      0.00000
     72      11.6205      0.00000
     73      12.0495      0.00000
     74      12.2921      0.00000
     75      12.6450      0.00000
     76      13.1287      0.00000
     77      13.2874      0.00000
     78      14.2331      0.00000
     79      15.6257      0.00000
     80      15.8293      0.00000

 k-point  41 :       0.5000   -0.2500    0.4000
  band No.  band energies     occupation 
      1     -68.6497      2.00000
      2     -68.6440      2.00000
      3     -68.6378      2.00000
      4     -68.6338      2.00000
      5     -68.6173      2.00000
      6     -68.6115      2.00000
      7     -68.6006      2.00000
      8     -68.5943      2.00000
      9     -68.5814      2.00000
     10     -68.5782      2.00000
     11     -68.5657      2.00000
     12     -68.5610      2.00000
     13     -12.0756      2.00000
     14     -11.7731      2.00000
     15     -10.8464      2.00000
     16     -10.7525      2.00000
     17     -10.5309      2.00000
     18     -10.3140      2.00000
     19      -5.4211      2.00000
     20      -4.9410      2.00000
     21      -2.3985      2.00000
     22      -2.1288      2.00000
     23      -1.8621      2.00000
     24      -1.7225      2.00000
     25      -1.4443      2.00000
     26      -1.1175      2.00000
     27      -0.8824      2.00000
     28      -0.6473      2.00000
     29      -0.6030      2.00000
     30      -0.4504      2.00000
     31      -0.2651      2.00000
     32      -0.1850      2.00000
     33      -0.1236      2.00000
     34      -0.0621      2.00000
     35      -0.0219      2.00000
     36       0.0216      2.00000
     37       1.2603      2.00000
     38       1.3146      2.00000
     39       1.4088      2.00000
     40       1.4347      2.00000
     41       1.4826      2.00000
     42       1.4915      2.00000
     43       1.5131      2.00000
     44       1.5723      2.00000
     45       1.7575      2.00000
     46       1.8421      2.00000
     47       2.1170      2.00000
     48       2.1843      2.00000
     49       2.3671      2.00000
     50       2.4605      2.00000
     51       2.4932      2.00000
     52       2.6971      2.00000
     53       2.8220      2.00000
     54       3.0891      2.00000
     55       3.2904      2.00000
     56       3.5295      2.00000
     57       6.4815     -0.00000
     58       6.5842     -0.00000
     59       7.4496      0.00000
     60       7.7157      0.00000
     61       8.5879      0.00000
     62       8.7427      0.00000
     63       9.2937      0.00000
     64       9.5325      0.00000
     65       9.9547      0.00000
     66      10.1872      0.00000
     67      10.6824      0.00000
     68      11.1121      0.00000
     69      11.2492      0.00000
     70      11.5662      0.00000
     71      11.7113      0.00000
     72      11.8950      0.00000
     73      12.3012      0.00000
     74      12.6615      0.00000
     75      13.0115      0.00000
     76      13.2293      0.00000
     77      13.6607      0.00000
     78      14.0625      0.00000
     79      14.3891      0.00000
     80      16.5179      0.00000

 k-point  42 :      -0.2500   -0.2500    0.4000
  band No.  band energies     occupation 
      1     -68.6499      2.00000
      2     -68.6442      2.00000
      3     -68.6378      2.00000
      4     -68.6338      2.00000
      5     -68.6173      2.00000
      6     -68.6115      2.00000
      7     -68.6006      2.00000
      8     -68.5943      2.00000
      9     -68.5814      2.00000
     10     -68.5782      2.00000
     11     -68.5658      2.00000
     12     -68.5612      2.00000
     13     -12.1752      2.00000
     14     -11.7028      2.00000
     15     -10.7147      2.00000
     16     -10.6893      2.00000
     17     -10.5857      2.00000
     18     -10.3881      2.00000
     19      -5.4484      2.00000
     20      -5.0728      2.00000
     21      -2.5073      2.00000
     22      -2.3791      2.00000
     23      -1.9625      2.00000
     24      -1.3688      2.00000
     25      -1.3310      2.00000
     26      -1.0503      2.00000
     27      -0.8305      2.00000
     28      -0.7599      2.00000
     29      -0.4251      2.00000
     30      -0.3410      2.00000
     31      -0.2728      2.00000
     32      -0.2125      2.00000
     33      -0.1454      2.00000
     34      -0.1417      2.00000
     35      -0.0155      2.00000
     36       0.0257      2.00000
     37       1.1711      2.00000
     38       1.3696      2.00000
     39       1.3957      2.00000
     40       1.4512      2.00000
     41       1.4521      2.00000
     42       1.4971      2.00000
     43       1.5151      2.00000
     44       1.5475      2.00000
     45       1.7442      2.00000
     46       1.8212      2.00000
     47       1.9729      2.00000
     48       2.2275      2.00000
     49       2.3961      2.00000
     50       2.6111      2.00000
     51       2.6575      2.00000
     52       2.9155      2.00000
     53       3.0693      2.00000
     54       3.1165      2.00000
     55       3.2915      2.00000
     56       3.5848      2.00000
     57       6.2847     -0.00000
     58       6.3723     -0.00000
     59       7.3536      0.00000
     60       7.5201      0.00000
     61       8.3017      0.00000
     62       8.3316      0.00000
     63       9.1034      0.00000
     64       9.3603      0.00000
     65       9.7192      0.00000
     66       9.9434      0.00000
     67      10.5235      0.00000
     68      10.9897      0.00000
     69      11.4291      0.00000
     70      11.5644      0.00000
     71      12.0157      0.00000
     72      12.2818      0.00000
     73      12.4296      0.00000
     74      12.4801      0.00000
     75      13.0361      0.00000
     76      13.1565      0.00000
     77      14.1419      0.00000
     78      14.4324      0.00000
     79      15.1658      0.00000
     80      15.8632      0.00000


--------------------------------------------------------------------------------------------------------


 soft charge-density along one line, spin component           1
         0         1         2         3         4         5         6         7         8         9
 total charge-density along one line
 
 pseudopotential strength for first ion, spin component:           1
-65.423   0.002   0.006   7.363   0.000  -0.003   0.001   0.008
  0.002 -65.392  -0.005   0.000   7.352   0.001  -0.001  -0.024
  0.006  -0.005 -65.383  -0.003   0.001   7.349  -0.037  -0.001
  7.363   0.000  -0.003   6.111   0.000   0.001   0.002  -0.004
  0.000   7.352   0.001   0.000   6.113  -0.000   0.000   0.007
 -0.003   0.001   7.349   0.001  -0.000   6.114   0.009   0.000
  0.001  -0.001  -0.037   0.002   0.000   0.009  -2.979  -0.003
  0.008  -0.024  -0.001  -0.004   0.007   0.000  -0.003  -2.984
  0.022   0.044   0.009  -0.005  -0.009  -0.003  -0.003   0.008
 -0.001  -0.017   0.008   0.000   0.004  -0.004   0.004   0.007
  0.026   0.000  -0.034  -0.007  -0.000   0.007  -0.000   0.007
  0.001  -0.001  -0.036   0.002   0.000   0.008  -3.625  -0.003
  0.008  -0.024  -0.001  -0.004   0.007   0.000  -0.003  -3.630
  0.022   0.043   0.009  -0.005  -0.008  -0.002  -0.003   0.008
 -0.001  -0.017   0.008   0.000   0.004  -0.004   0.004   0.007
  0.025   0.000  -0.034  -0.007  -0.000   0.006  -0.000   0.007
  0.007  -0.005   0.004  -0.001   0.001  -0.001  -0.002   0.000
  0.016  -0.010   0.009  -0.002   0.001  -0.002  -0.003   0.001
 total augmentation occupancy for first ion, spin component:           1
  2.000  -0.000   0.000  -0.003  -0.000   0.000   0.007  -0.005   0.001  -0.001  -0.005  -0.007   0.005  -0.001   0.001   0.004
 -0.000   2.000  -0.000  -0.000  -0.003   0.000  -0.001   0.005   0.004   0.001   0.000   0.001  -0.005  -0.005  -0.001  -0.000
  0.000  -0.000   2.000   0.000   0.000  -0.003  -0.000  -0.000  -0.001  -0.005  -0.004   0.001   0.000   0.001   0.005   0.005
 -0.003  -0.000   0.000   0.095   0.006  -0.005  -0.334   0.233  -0.073   0.011   0.017   0.281  -0.197   0.057  -0.007  -0.011
 -0.000  -0.003   0.000   0.006   0.103   0.001   0.019  -0.045  -0.446   0.013   0.011  -0.013   0.035   0.378  -0.009  -0.009
  0.000   0.000  -0.003  -0.005   0.001   0.099   0.098  -0.002  -0.014   0.236   0.354  -0.077   0.001   0.011  -0.202  -0.297
  0.007  -0.001  -0.000  -0.334   0.019   0.098   4.008  -0.793   0.099   0.216   0.146  -1.736   0.744  -0.091  -0.182  -0.141
 -0.005   0.005  -0.000   0.233  -0.045  -0.002  -0.793   3.508   0.282   0.160   0.298   0.743  -1.268  -0.205  -0.115  -0.207
  0.001   0.004  -0.001  -0.073  -0.446  -0.014   0.099   0.282   4.697  -0.034  -0.116  -0.091  -0.206  -2.404   0.029   0.086
 -0.001   0.001  -0.005   0.011   0.013   0.236   0.216   0.160  -0.034   3.635   0.798  -0.182  -0.116   0.029  -1.354  -0.760
 -0.005   0.000  -0.004   0.017   0.011   0.354   0.146   0.298  -0.116   0.798   3.996  -0.141  -0.207   0.086  -0.760  -1.742
 -0.007   0.001   0.001   0.281  -0.013  -0.077  -1.736   0.743  -0.091  -0.182  -0.141   1.442  -0.695   0.083   0.153   0.136
  0.005  -0.005   0.000  -0.197   0.035   0.001   0.744  -1.268  -0.206  -0.116  -0.207  -0.695   1.004   0.144   0.079   0.133
 -0.001  -0.005   0.001   0.057   0.378   0.011  -0.091  -0.205  -2.404   0.029   0.086   0.083   0.144   2.087  -0.023  -0.062
  0.001  -0.001   0.005  -0.007  -0.009  -0.202  -0.182  -0.115   0.029  -1.354  -0.760   0.153   0.079  -0.023   1.059   0.722
  0.004  -0.000   0.005  -0.011  -0.009  -0.297  -0.141  -0.207   0.086  -0.760  -1.742   0.136   0.133  -0.062   0.722   1.461
 -0.025   0.017  -0.013  -0.020   0.011  -0.006   0.079  -0.096  -0.025  -0.009   0.025  -0.062   0.084   0.037   0.008   0.006
  0.012  -0.008   0.006   0.001  -0.000  -0.000  -0.008   0.003  -0.004   0.005  -0.019   0.004  -0.005  -0.002  -0.001   0.003


------------------------ aborting loop because EDIFF is reached ----------------------------------------


    FORLOC:  cpu time    0.00: real time    0.00
    FORHF :  cpu time  553.17: real time  552.66
    FORNL :  cpu time    0.39: real time    0.39
    FORCOR:  cpu time    2.05: real time    2.05

 VOLUME and BASIS-vectors are now :
 -----------------------------------------------------------------------------
  energy-cutoff  :      400.00
  volume of cell :      221.90
      direct lattice vectors                 reciprocal lattice vectors
     3.224796000 -5.643830000  0.031572000     0.154525165 -0.088592321  0.053460880
     3.224796000  5.643830000  0.031572000     0.154525165  0.088592321  0.053460880
    -2.101946000  0.000000000  6.075537000    -0.001606004  0.000000000  0.164038877

  length of vectors
     6.500240234  6.500240234  6.428866683     0.185969598  0.185969598  0.164046738


 FORCES acting on ions:
    Electron-Ion                     Ewald-Force                    Non-Local-Force
 -----------------------------------------------------------------------------------------------
   -.140E+02 -.982E+02 0.116E+02   0.128E+02 0.958E+02 -.998E+01   0.102E+01 0.212E+01 -.147E+01
   -.158E+02 0.965E+02 0.109E+02   0.145E+02 -.940E+02 -.930E+01   0.112E+01 -.211E+01 -.137E+01
   0.254E+02 -.167E+02 0.445E+01   -.221E+02 0.166E+02 -.318E+01   -.285E+01 0.156E+00 -.111E+01
   0.268E+02 0.178E+02 0.387E+01   -.235E+02 -.175E+02 -.262E+01   -.289E+01 -.253E+00 -.108E+01
   -.114E+02 -.310E+02 -.109E+02   0.107E+02 0.296E+02 0.977E+01   0.737E+00 0.126E+01 0.110E+01
   -.110E+02 0.316E+02 -.112E+02   0.103E+02 -.302E+02 0.101E+02   0.683E+00 -.134E+01 0.113E+01
   -.135E+03 -.972E+01 -.492E+02   0.132E+03 0.976E+01 0.483E+02   0.279E+01 -.460E-01 0.731E+00
   0.703E+02 -.126E+03 0.963E+02   -.686E+02 0.123E+03 -.942E+02   -.156E+01 0.229E+01 -.188E+01
   0.668E+02 -.133E+03 -.490E+02   -.653E+02 0.130E+03 0.481E+02   -.143E+01 0.231E+01 0.897E+00
   0.702E+02 0.126E+03 0.962E+02   -.685E+02 -.124E+03 -.941E+02   -.155E+01 -.231E+01 -.187E+01
   -.135E+03 0.997E+01 -.491E+02   0.132E+03 -.100E+02 0.483E+02   0.279E+01 0.201E-01 0.730E+00
   0.665E+02 0.132E+03 -.498E+02   -.650E+02 -.130E+03 0.489E+02   -.135E+01 -.218E+01 0.883E+00
 -----------------------------------------------------------------------------------------------
   0.272E+01 0.103E+00 0.377E+01   0.000E+00 -.284E-13 -.711E-13   -.248E+01 -.951E-01 -.332E+01
 
 
 POSITION                                       TOTAL-FORCE (eV/Angst)
 -----------------------------------------------------------------------------------
      2.13385     -2.80652      0.74958        -0.001610     -0.001727      0.005436
      1.08288      2.80652      3.78735         0.007307      0.001781      0.002533
      5.40423     -0.97432      0.77721         0.002690     -0.000343      0.000943
      4.35326      0.97432      3.81498        -0.002245     -0.010279      0.003600
      1.02081     -0.97328      3.66185         0.055896     -0.079387     -0.025129
      2.07178      0.97328      0.62409        -0.001321     -0.004882     -0.001157
      2.15090      4.69667      3.05304         0.006365     -0.011041     -0.002540
      1.11215     -0.89759      5.98620         0.000058     -0.010792      0.000740
      2.14783     -2.75750      3.03890        -0.079079      0.129140      0.013057
      2.16313      0.89759      2.94844         0.006892     -0.004276      0.001492
      1.09993     -4.69667      6.09081         0.003165     -0.006611     -0.002463
      1.09189      2.74882      6.07662         0.001881     -0.001582      0.003488
 -----------------------------------------------------------------------------------
    total drift:                               -0.058940     -0.001041     -0.053910


--------------------------------------------------------------------------------------------------------



  FREE ENERGIE OF THE ION-ELECTRON SYSTEM (eV)
  ---------------------------------------------------
  free  energy   TOTEN  =       -69.59495299 eV

  energy  without entropy=      -69.59550706  energy(sigma->0) =      -69.59513768
 


--------------------------------------------------------------------------------------------------------


    POTLOK:  cpu time    2.19: real time    2.19


--------------------------------------------------------------------------------------------------------


 writing wavefunctions
     LOOP+:  cpu time 6335.33: real time 6332.72
    4ORBIT:  cpu time    0.00: real time    0.00

 total amount of memory used by VASP on root node   155701. kBytes
========================================================================

   base      :      30000. kBytes
   nonl-proj :      74517. kBytes
   fftplans  :        702. kBytes
   grid      :       2400. kBytes
   one-center:        186. kBytes
   HF        :        194. kBytes
   nonlr-proj:       5126. kBytes
   wavefun   :      42576. kBytes
 
  
  
 General timing and accounting informations for this job:
 ========================================================
  
                  Total CPU time used (sec):     6374.615
                            User time (sec):     6367.962
                          System time (sec):        6.653
                         Elapsed time (sec):     6372.694
  
                   Maximum memory used (kb):      297480.
                   Average memory used (kb):           0.
  
                          Minor page faults:        78606
                          Major page faults:            0
                 Voluntary context switches:         3779
