<?xml version="1.0" encoding="ISO-8859-1"?>
<modeling>
 <generator>
  <i name="program" type="string">vasp </i>
  <i name="version" type="string">5.3.3  </i>
  <i name="subversion" type="string">18Dez12 (build Nov 13 2015 09:58:40) complex                          parallel </i>
  <i name="platform" type="string">LinuxIFC </i>
  <i name="date" type="string">2017 10 18 </i>
  <i name="time" type="string">13:18:31 </i>
 </generator>
 <incar>
  <i type="string" name="SYSTEM"> CGS</i>
  <i type="string" name="PREC">normal</i>
  <i type="string" name="ALGO"> D</i>
  <i type="logical" name="LDIAG"> T  </i>
  <i name="EDIFF">      0.00001000</i>
  <i name="ENCUT">    400.00000000</i>
  <i name="TIME">      0.40000000</i>
  <i type="int" name="ISMEAR">     1</i>
  <i name="SIGMA">      0.10000000</i>
  <i type="logical" name="LHFCALC"> T  </i>
  <i type="string" name="GGA"> PE</i>
  <i name="HFSCREEN">      0.20000000</i>
  <i name="AEXX">      0.25000000</i>
  <i type="string" name="PRECFOCK">fast</i>
 </incar>
 <kpoints>
  <generation param="Gamma">
   <v type="int" name="divisions">       4        4        5 </v>
   <v name="usershift">      0.00000000       0.00000000       0.00000000 </v>
   <v name="genvec1">      0.25000000       0.00000000       0.00000000 </v>
   <v name="genvec2">      0.00000000       0.25000000       0.00000000 </v>
   <v name="genvec3">      0.00000000       0.00000000       0.20000000 </v>
   <v name="shift">      0.00000000       0.00000000       0.00000000 </v>
  </generation>
  <varray name="kpointlist" >
   <v>       0.00000000       0.00000000       0.00000000 </v>
   <v>       0.25000000       0.00000000       0.00000000 </v>
   <v>       0.50000000       0.00000000       0.00000000 </v>
   <v>       0.00000000       0.25000000       0.00000000 </v>
   <v>       0.25000000       0.25000000       0.00000000 </v>
   <v>       0.50000000       0.25000000      -0.00000000 </v>
   <v>      -0.25000000       0.25000000       0.00000000 </v>
   <v>       0.00000000       0.50000000       0.00000000 </v>
   <v>       0.25000000       0.50000000      -0.00000000 </v>
   <v>       0.50000000       0.50000000       0.00000000 </v>
   <v>      -0.00000000      -0.00000000       0.20000000 </v>
   <v>       0.25000000       0.00000000       0.20000000 </v>
   <v>       0.50000000       0.00000000       0.20000000 </v>
   <v>      -0.25000000      -0.00000000       0.20000000 </v>
   <v>       0.00000000       0.25000000       0.20000000 </v>
   <v>       0.25000000       0.25000000       0.20000000 </v>
   <v>       0.50000000       0.25000000       0.20000000 </v>
   <v>      -0.25000000       0.25000000       0.20000000 </v>
   <v>       0.00000000       0.50000000       0.20000000 </v>
   <v>       0.25000000       0.50000000       0.20000000 </v>
   <v>       0.50000000       0.50000000       0.20000000 </v>
   <v>      -0.25000000       0.50000000       0.20000000 </v>
   <v>      -0.00000000      -0.25000000       0.20000000 </v>
   <v>       0.25000000      -0.25000000       0.20000000 </v>
   <v>       0.50000000      -0.25000000       0.20000000 </v>
   <v>      -0.25000000      -0.25000000       0.20000000 </v>
   <v>      -0.00000000      -0.00000000       0.40000000 </v>
   <v>       0.25000000       0.00000000       0.40000000 </v>
   <v>       0.50000000       0.00000000       0.40000000 </v>
   <v>      -0.25000000       0.00000000       0.40000000 </v>
   <v>       0.00000000       0.25000000       0.40000000 </v>
   <v>       0.25000000       0.25000000       0.40000000 </v>
   <v>       0.50000000       0.25000000       0.40000000 </v>
   <v>      -0.25000000       0.25000000       0.40000000 </v>
   <v>       0.00000000       0.50000000       0.40000000 </v>
   <v>       0.25000000       0.50000000       0.40000000 </v>
   <v>       0.50000000       0.50000000       0.40000000 </v>
   <v>      -0.25000000       0.50000000       0.40000000 </v>
   <v>       0.00000000      -0.25000000       0.40000000 </v>
   <v>       0.25000000      -0.25000000       0.40000000 </v>
   <v>       0.50000000      -0.25000000       0.40000000 </v>
   <v>      -0.25000000      -0.25000000       0.40000000 </v>
  </varray>
  <varray name="weights" >
   <v>       0.01250000 </v>
   <v>       0.02500000 </v>
   <v>       0.01250000 </v>
   <v>       0.02500000 </v>
   <v>       0.02500000 </v>
   <v>       0.02500000 </v>
   <v>       0.02500000 </v>
   <v>       0.01250000 </v>
   <v>       0.02500000 </v>
   <v>       0.01250000 </v>
   <v>       0.02500000 </v>
   <v>       0.02500000 </v>
   <v>       0.02500000 </v>
   <v>       0.02500000 </v>
   <v>       0.02500000 </v>
   <v>       0.02500000 </v>
   <v>       0.02500000 </v>
   <v>       0.02500000 </v>
   <v>       0.02500000 </v>
   <v>       0.02500000 </v>
   <v>       0.02500000 </v>
   <v>       0.02500000 </v>
   <v>       0.02500000 </v>
   <v>       0.02500000 </v>
   <v>       0.02500000 </v>
   <v>       0.02500000 </v>
   <v>       0.02500000 </v>
   <v>       0.02500000 </v>
   <v>       0.02500000 </v>
   <v>       0.02500000 </v>
   <v>       0.02500000 </v>
   <v>       0.02500000 </v>
   <v>       0.02500000 </v>
   <v>       0.02500000 </v>
   <v>       0.02500000 </v>
   <v>       0.02500000 </v>
   <v>       0.02500000 </v>
   <v>       0.02500000 </v>
   <v>       0.02500000 </v>
   <v>       0.02500000 </v>
   <v>       0.02500000 </v>
   <v>       0.02500000 </v>
  </varray>
 </kpoints>
 <parameters>
  <separator name="general" >
   <i type="string" name="SYSTEM">CGS</i>
   <i type="logical" name="LCOMPAT"> F  </i>
  </separator>
  <separator name="electronic" >
   <i type="string" name="PREC">normal</i>
   <i name="ENMAX">    400.00000000</i>
   <i name="ENAUG">    758.23300000</i>
   <i name="EDIFF">      0.00001000</i>
   <i type="int" name="IALGO">    53</i>
   <i type="int" name="IWAVPR">    10</i>
   <i type="int" name="NBANDS">    80</i>
   <i name="NELECT">    112.00000000</i>
   <i type="int" name="TURBO">     0</i>
   <i type="int" name="IRESTART">     0</i>
   <i type="int" name="NREBOOT">     0</i>
   <i type="int" name="NMIN">     0</i>
   <i name="EREF">      0.00000000</i>
   <separator name="electronic smearing" >
    <i type="int" name="ISMEAR">     1</i>
    <i name="SIGMA">      0.10000000</i>
    <i name="KSPACING">      0.50000000</i>
    <i type="logical" name="KGAMMA"> T  </i>
   </separator>
   <separator name="electronic projectors" >
    <i type="logical" name="LREAL"> F  </i>
    <v name="ROPT">      0.00000000      0.00000000      0.00000000</v>
    <i type="int" name="LMAXPAW">  -100</i>
    <i type="int" name="LMAXMIX">     2</i>
    <i type="logical" name="NLSPLINE"> F  </i>
   </separator>
   <separator name="electronic startup" >
    <i type="int" name="ISTART">     1</i>
    <i type="int" name="ICHARG">     0</i>
    <i type="int" name="INIWAV">     1</i>
   </separator>
   <separator name="electronic spin" >
    <i type="int" name="ISPIN">     1</i>
    <i type="logical" name="LNONCOLLINEAR"> F  </i>
    <v name="MAGMOM">      1.00000000      1.00000000      1.00000000      1.00000000      1.00000000      1.00000000      1.00000000      1.00000000      1.00000000      1.00000000      1.00000000      1.00000000</v>
    <i name="NUPDOWN">     -1.00000000</i>
    <i type="logical" name="LSORBIT"> F  </i>
    <v name="SAXIS">      0.00000000      0.00000000      1.00000000</v>
    <i type="logical" name="LSPIRAL"> F  </i>
    <v name="QSPIRAL">      0.00000000      0.00000000      0.00000000</v>
    <i type="logical" name="LZEROZ"> F  </i>
   </separator>
   <separator name="electronic exchange-correlation" >
    <i type="logical" name="LASPH"> F  </i>
    <i type="logical" name="LMETAGGA"> F  </i>
   </separator>
   <separator name="electronic convergence" >
    <i type="int" name="NELM">    60</i>
    <i type="int" name="NELMDL">     0</i>
    <i type="int" name="NELMIN">     2</i>
    <i name="ENINI">    400.00000000</i>
    <separator name="electronic convergence detail" >
     <i type="logical" name="LDIAG"> T  </i>
     <i type="logical" name="LSUBROT"> T  </i>
     <i name="WEIMIN">      0.00000000</i>
     <i name="EBREAK">      0.00000003</i>
     <i name="DEPER">      0.30000000</i>
     <i type="int" name="NRMM">     4</i>
     <i name="TIME">      0.40000000</i>
    </separator>
   </separator>
   <separator name="electronic mixer" >
    <i name="AMIX">      0.40000000</i>
    <i name="BMIX">      1.00000000</i>
    <i name="AMIN">      0.10000000</i>
    <i name="AMIX_MAG">      1.60000000</i>
    <i name="BMIX_MAG">      1.00000000</i>
    <separator name="electronic mixer details" >
     <i type="int" name="IMIX">     4</i>
     <i type="int" name="MAXMIX">   -45</i>
     <i name="WC">    100.00000000</i>
     <i type="int" name="INIMIX">     1</i>
     <i type="int" name="MIXPRE">     1</i>
     <i type="int" name="MREMOVE">     5</i>
    </separator>
   </separator>
   <separator name="electronic dipolcorrection" >
    <i type="logical" name="LDIPOL"> F  </i>
    <i type="logical" name="LMONO"> F  </i>
    <i type="int" name="IDIPOL">     0</i>
    <i name="EPSILON">      1.00000000</i>
    <v name="DIPOL">   -100.00000000   -100.00000000   -100.00000000</v>
    <i name="EFIELD">      0.00000000</i>
   </separator>
  </separator>
  <separator name="grids" >
   <i type="int" name="NGX">    32</i>
   <i type="int" name="NGY">    32</i>
   <i type="int" name="NGZ">    32</i>
   <i type="int" name="NGXF">    64</i>
   <i type="int" name="NGYF">    64</i>
   <i type="int" name="NGZF">    64</i>
   <i type="logical" name="ADDGRID"> F  </i>
  </separator>
  <separator name="ionic" >
   <i type="int" name="NSW">     0</i>
   <i type="int" name="IBRION">    -1</i>
   <i type="int" name="ISIF">     0</i>
   <i name="PSTRESS">      0.00000000</i>
   <i name="EDIFFG">      0.00010000</i>
   <i type="int" name="NFREE">     0</i>
   <i name="POTIM">      0.50000000</i>
   <i name="SMASS">     -3.00000000</i>
   <i name="SCALEE">      1.00000000</i>
  </separator>
  <separator name="ionic md" >
   <i name="TEBEG">      0.00010000</i>
   <i name="TEEND">      0.00010000</i>
   <i type="int" name="NBLOCK">     1</i>
   <i type="int" name="KBLOCK">     1</i>
   <i type="int" name="NPACO">   256</i>
   <i name="APACO">     16.00000000</i>
  </separator>
  <separator name="symmetry" >
   <i type="int" name="ISYM">     3</i>
   <i name="SYMPREC">      0.00001000</i>
  </separator>
  <separator name="dos" >
   <i type="logical" name="LORBIT"> F  </i>
   <v name="RWIGS">     -1.00000000     -1.00000000     -1.00000000</v>
   <i type="int" name="NEDOS">   301</i>
   <i name="EMIN">     10.00000000</i>
   <i name="EMAX">    -10.00000000</i>
   <i name="EFERMI">      0.00000000</i>
  </separator>
  <separator name="writing" >
   <i type="int" name="NWRITE">     2</i>
   <i type="logical" name="LWAVE"> T  </i>
   <i type="logical" name="LCHARG"> T  </i>
   <i type="logical" name="LPARD"> F  </i>
   <i type="logical" name="LVTOT"> F  </i>
   <i type="logical" name="LVHAR"> F  </i>
   <i type="logical" name="LELF"> F  </i>
   <i type="logical" name="LOPTICS"> F  </i>
   <v name="STM">      0.00000000      0.00000000      0.00000000      0.00000000      0.00000000      0.00000000      0.00000000</v>
  </separator>
  <separator name="performance" >
   <i type="int" name="NPAR">    16</i>
   <i type="int" name="NSIM">     4</i>
   <i type="int" name="NBLK">    -1</i>
   <i type="logical" name="LPLANE"> T  </i>
   <i type="logical" name="LSCALAPACK"> T  </i>
   <i type="logical" name="LSCAAWARE"> F  </i>
   <i type="logical" name="LSCALU"> F  </i>
   <i type="logical" name="LASYNC"> F  </i>
   <i type="logical" name="LORBITALREAL"> F  </i>
  </separator>
  <separator name="miscellaneous" >
   <i type="int" name="IDIOT">     3</i>
   <i type="logical" name="LMUSIC"> F  </i>
   <v name="POMASS">     63.54600000     72.61000000     32.06600000</v>
   <v name="DARWINR">      0.00000000      0.00000000      0.00000000</v>
   <v name="DARWINV">      1.00000000      1.00000000      1.00000000</v>
   <i type="logical" name="LCORR"> T  </i>
  </separator>
  <i type="logical" name="GGA_COMPAT"> T  </i>
  <i type="logical" name="LBERRY"> F  </i>
  <i type="int" name="ICORELEVEL">     0</i>
  <i type="logical" name="LDAU"> F  </i>
  <i type="int" name="I_CONSTRAINED_M">     0</i>
  <separator name="electronic exchange-correlation" >
   <i type="string" name="GGA">PE</i>
   <i type="int" name="VOSKOWN">     0</i>
   <i type="logical" name="LHFCALC"> T  </i>
   <i type="string" name="PRECFOCK">fast</i>
   <i type="logical" name="LSYMGRAD"> F  </i>
   <i type="logical" name="LHFONE"> F  </i>
   <i type="logical" name="LRHFCALC"> F  </i>
   <i type="logical" name="LTHOMAS"> F  </i>
   <i type="logical" name="LMODELHF"> F  </i>
   <i name="ENCUT4O">     -1.00000000</i>
   <i type="int" name="EXXOEP">     0</i>
   <i type="int" name="FOURORBIT">     0</i>
   <i name="AEXX">      0.25000000</i>
   <i name="HFALPHA">     -1.00000000</i>
   <i name="MCALPHA">      0.00000000</i>
   <i name="ALDAX">      0.75000000</i>
   <i name="AGGAX">      0.75000000</i>
   <i name="ALDAC">      1.00000000</i>
   <i name="AGGAC">      1.00000000</i>
   <i type="int" name="NKREDX">     1</i>
   <i type="int" name="NKREDY">     1</i>
   <i type="int" name="NKREDZ">     1</i>
   <i type="logical" name="SHIFTRED"> F  </i>
   <i type="logical" name="ODDONLY"> F  </i>
   <i type="logical" name="EVENONLY"> F  </i>
   <i type="int" name="LMAXFOCK">     4</i>
   <i type="int" name="NMAXFOCKAE">     1</i>
   <i type="logical" name="LFOCKAEDFT"> F  </i>
   <i name="HFSCREEN">      0.20000000</i>
   <i name="HFSCREENC">      0.20000000</i>
   <i type="int" name="NBANDSGWLOW">     1</i>
  </separator>
  <separator name="vdW DFT" >
   <i type="logical" name="LUSE_VDW"> F  </i>
   <i name="Zab_VDW">     -0.84910000</i>
   <i name="PARAM1">      0.12340000</i>
   <i name="PARAM2">      1.00000000</i>
   <i name="PARAM3">      0.00000000</i>
  </separator>
  <separator name="model GW" >
   <i type="int" name="MODEL_GW">     0</i>
   <i name="MODEL_EPS0">     11.09505304</i>
   <i name="MODEL_ALPHA">      1.00000000</i>
  </separator>
  <separator name="linear response parameters" >
   <i type="logical" name="LEPSILON"> F  </i>
   <i type="logical" name="LRPA"> F  </i>
   <i type="logical" name="LNABLA"> F  </i>
   <i type="logical" name="LVEL"> F  </i>
   <i type="int" name="KINTER">     0</i>
   <i name="CSHIFT">      0.10000000</i>
   <i name="OMEGAMAX">     -1.00000000</i>
   <i name="DEG_THRESHOLD">      0.00200000</i>
  </separator>
  <separator name="orbital magnetization" >
   <i type="logical" name="NUCIND"> F  </i>
   <v name="MAGPOS">      0.00000000      0.00000000      0.00000000</v>
   <i type="logical" name="LNICSALL"> T  </i>
   <i type="logical" name="ORBITALMAG"> F  </i>
   <i type="logical" name="LMAGBLOCH"> F  </i>
   <i type="logical" name="LCHIMAG"> F  </i>
   <i type="logical" name="LGAUGE"> T  </i>
   <i type="int" name="MAGATOM">     0</i>
   <v name="MAGDIPOL">      0.00000000      0.00000000      0.00000000</v>
   <v name="AVECCONST">      0.00000000      0.00000000      0.00000000</v>
  </separator>
  <separator name="response functions" >
   <i type="logical" name="LADDER"> F  </i>
   <i type="logical" name="LFXC"> F  </i>
   <i type="logical" name="LHARTREE"> T  </i>
   <i type="int" name="IBSE">     0</i>
   <i type="logical" name="LTCTE"> F  </i>
   <i type="logical" name="LTETE"> F  </i>
   <i type="logical" name="LTRIPLET"> F  </i>
   <i type="logical" name="LFXCEPS"> F  </i>
   <i type="logical" name="L2ORDER"> F  </i>
   <i type="logical" name="LUSEW"> F  </i>
   <i name="ENCUTGW">     -2.00000000</i>
   <i name="ENCUTGWSOFT">     -2.00000000</i>
   <i name="ENCUTLF">     -1.00000000</i>
   <i type="int" name="LMAXMP2">    -1</i>
   <i name="SCISSOR">      0.00000000</i>
   <i type="int" name="NOMEGA">     0</i>
   <i type="int" name="NOMEGAR">     0</i>
   <i type="int" name="NBANDSGW">    -1</i>
   <i type="int" name="NBANDSO">    -1</i>
   <i type="int" name="NBANDSV">    -1</i>
   <i type="int" name="NELM">     1</i>
   <i type="int" name="DIM">     3</i>
   <i type="int" name="ANTIRES">     0</i>
   <i name="OMEGAMAX">    -30.00000000</i>
   <i name="OMEGATL">   -200.00000000</i>
   <i type="int" name="OMEGAGRID">     0</i>
   <i name="CSHIFT">     -0.10000000</i>
   <i type="logical" name="SELFENERGY"> F  </i>
   <i type="logical" name="LSPECTRAL"> F  </i>
   <i type="logical" name="ODDONLYGW"> F  </i>
   <i type="logical" name="EVENONLYGW"> F  </i>
   <i type="int" name="NKREDLFX">     1</i>
   <i type="int" name="NKREDLFY">     1</i>
   <i type="int" name="NKREDLFZ">     1</i>
   <i type="int" name="MAXMEM">  1800</i>
   <i type="int" name="TELESCOPE">     0</i>
  </separator>
 </parameters>
 <atominfo>
  <atoms>      12 </atoms>
  <types>       3 </types>
  <array name="atoms" >
   <dimension dim="1">ion</dimension>
   <field type="string">element</field>
   <field type="int">atomtype</field>
   <set>
    <rc><c>Cu</c><c>   1</c></rc>
    <rc><c>Cu</c><c>   1</c></rc>
    <rc><c>Cu</c><c>   1</c></rc>
    <rc><c>Cu</c><c>   1</c></rc>
    <rc><c>Ge</c><c>   2</c></rc>
    <rc><c>Ge</c><c>   2</c></rc>
    <rc><c>S </c><c>   3</c></rc>
    <rc><c>S </c><c>   3</c></rc>
    <rc><c>S </c><c>   3</c></rc>
    <rc><c>S </c><c>   3</c></rc>
    <rc><c>S </c><c>   3</c></rc>
    <rc><c>S </c><c>   3</c></rc>
   </set>
  </array>
  <array name="atomtypes" >
   <dimension dim="1">type</dimension>
   <field type="int">atomspertype</field>
   <field type="string">element</field>
   <field>mass</field>
   <field>valence</field>
   <field type="string">pseudopotential</field>
   <set>
    <rc><c>   4</c><c>Cu</c><c>     63.54600000</c><c>     17.00000000</c><c>  PAW_PBE Cu_pv 06Sep2000               </c></rc>
    <rc><c>   2</c><c>Ge</c><c>     72.61000000</c><c>      4.00000000</c><c>  PAW_PBE Ge 05Jan2001                  </c></rc>
    <rc><c>   6</c><c>S </c><c>     32.06600000</c><c>      6.00000000</c><c>  PAW_PBE S 17Jan2003                   </c></rc>
   </set>
  </array>
 </atominfo>
 <structure name="initialpos" >
  <crystal>
   <varray name="basis" >
    <v>       3.22479600      -5.64383000       0.03157200 </v>
    <v>       3.22479600       5.64383000       0.03157200 </v>
    <v>      -2.10194600       0.00000000       6.07553700 </v>
   </varray>
   <i name="volume">    221.90106089 </i>
   <varray name="rec_basis" >
    <v>       0.15452516      -0.08859232       0.05346088 </v>
    <v>       0.15452516       0.08859232       0.05346088 </v>
    <v>      -0.00160600       0.00000000       0.16403888 </v>
   </varray>
  </crystal>
  <varray name="positions" >
   <v>       0.61844300       0.12117100       0.11953300 </v>
   <v>       0.12117100       0.61844300       0.61953300 </v>
   <v>       0.96295700       0.79032200       0.11881300 </v>
   <v>       0.79032200       0.96295700       0.61881300 </v>
   <v>       0.43973200       0.26728100       0.59904700 </v>
   <v>       0.26728100       0.43973200       0.09904700 </v>
   <v>       0.07949800       0.91167500       0.49736300 </v>
   <v>       0.57140300       0.41236400       0.98018400 </v>
   <v>       0.73864940       0.25006200       0.49504900 </v>
   <v>       0.41236400       0.57140300       0.48018400 </v>
   <v>       0.91167500       0.07949800       0.99736300 </v>
   <v>       0.25006200       0.73711100       0.99504900 </v>
  </varray>
 </structure>
 <calculation>
  <scstep>
   <time name="total">  249.67  249.49</time>
   <energy>
    <i name="alphaZ">    339.31929130 </i>
    <i name="ewald">  -9063.19543166 </i>
    <i name="hartreedc">  -8067.45134703 </i>
    <i name="XCdc">    369.90374261 </i>
    <i name="pawpsdc">  16899.13612351 </i>
    <i name="pawaedc"> -17391.94767172 </i>
    <i name="eentropy">     -0.00141318 </i>
    <i name="bandstr">  -1658.65816224 </i>
    <i name="atom">  18320.98302006 </i>
    <i name="e_fr_energy">     75.53870362 </i>
    <i name="e_wo_entrp">     75.54011680 </i>
    <i name="e_0_energy">     75.53917468 </i>
   </energy>
  </scstep>
  <scstep>
   <time name="total">  255.89  255.72</time>
   <energy>
    <i name="e_fr_energy">     -8.36831881 </i>
    <i name="e_wo_entrp">     -8.36758420 </i>
    <i name="e_0_energy">     -8.36807394 </i>
   </energy>
  </scstep>
  <scstep>
   <time name="total">  259.24  259.06</time>
   <energy>
    <i name="e_fr_energy">    -15.17958754 </i>
    <i name="e_wo_entrp">    -15.17968250 </i>
    <i name="e_0_energy">    -15.17961920 </i>
   </energy>
  </scstep>
  <scstep>
   <time name="total">  260.34  260.25</time>
   <energy>
    <i name="e_fr_energy">    -22.66547840 </i>
    <i name="e_wo_entrp">    -22.66585694 </i>
    <i name="e_0_energy">    -22.66560458 </i>
   </energy>
  </scstep>
  <scstep>
   <time name="total">  263.98  263.78</time>
   <energy>
    <i name="e_fr_energy">    -60.82699651 </i>
    <i name="e_wo_entrp">    -60.82763894 </i>
    <i name="e_0_energy">    -60.82721065 </i>
   </energy>
  </scstep>
  <scstep>
   <time name="total">  265.32  265.12</time>
   <energy>
    <i name="e_fr_energy">    -65.93339829 </i>
    <i name="e_wo_entrp">    -65.93406386 </i>
    <i name="e_0_energy">    -65.93362015 </i>
   </energy>
  </scstep>
  <scstep>
   <time name="total">  271.86  271.66</time>
   <energy>
    <i name="e_fr_energy">    -67.47327647 </i>
    <i name="e_wo_entrp">    -67.47370607 </i>
    <i name="e_0_energy">    -67.47341967 </i>
   </energy>
  </scstep>
  <scstep>
   <time name="total">  271.21  271.02</time>
   <energy>
    <i name="e_fr_energy">    -69.08493316 </i>
    <i name="e_wo_entrp">    -69.08563713 </i>
    <i name="e_0_energy">    -69.08516781 </i>
   </energy>
  </scstep>
  <scstep>
   <time name="total">  260.99  260.80</time>
   <energy>
    <i name="e_fr_energy">    -69.39462264 </i>
    <i name="e_wo_entrp">    -69.39545596 </i>
    <i name="e_0_energy">    -69.39490041 </i>
   </energy>
  </scstep>
  <scstep>
   <time name="total">  285.96  285.80</time>
   <energy>
    <i name="e_fr_energy">    -69.49847013 </i>
    <i name="e_wo_entrp">    -69.49917625 </i>
    <i name="e_0_energy">    -69.49870551 </i>
   </energy>
  </scstep>
  <scstep>
   <time name="total">  285.82  285.60</time>
   <energy>
    <i name="e_fr_energy">    -69.56809113 </i>
    <i name="e_wo_entrp">    -69.56868207 </i>
    <i name="e_0_energy">    -69.56828811 </i>
   </energy>
  </scstep>
  <scstep>
   <time name="total">  282.71  282.54</time>
   <energy>
    <i name="e_fr_energy">    -69.58042096 </i>
    <i name="e_wo_entrp">    -69.58096079 </i>
    <i name="e_0_energy">    -69.58060091 </i>
   </energy>
  </scstep>
  <scstep>
   <time name="total">  283.86  283.67</time>
   <energy>
    <i name="e_fr_energy">    -69.59008138 </i>
    <i name="e_wo_entrp">    -69.59061025 </i>
    <i name="e_0_energy">    -69.59025767 </i>
   </energy>
  </scstep>
  <scstep>
   <time name="total">  283.87  283.66</time>
   <energy>
    <i name="e_fr_energy">    -69.59253238 </i>
    <i name="e_wo_entrp">    -69.59307940 </i>
    <i name="e_0_energy">    -69.59271472 </i>
   </energy>
  </scstep>
  <scstep>
   <time name="total">  287.35  287.16</time>
   <energy>
    <i name="e_fr_energy">    -69.59403710 </i>
    <i name="e_wo_entrp">    -69.59459687 </i>
    <i name="e_0_energy">    -69.59422369 </i>
   </energy>
  </scstep>
  <scstep>
   <time name="total">  285.67  285.49</time>
   <energy>
    <i name="e_fr_energy">    -69.59460749 </i>
    <i name="e_wo_entrp">    -69.59516787 </i>
    <i name="e_0_energy">    -69.59479428 </i>
   </energy>
  </scstep>
  <scstep>
   <time name="total">  289.17  288.95</time>
   <energy>
    <i name="e_fr_energy">    -69.59478019 </i>
    <i name="e_wo_entrp">    -69.59533751 </i>
    <i name="e_0_energy">    -69.59496596 </i>
   </energy>
  </scstep>
  <scstep>
   <time name="total">  287.24  287.07</time>
   <energy>
    <i name="e_fr_energy">    -69.59489717 </i>
    <i name="e_wo_entrp">    -69.59545155 </i>
    <i name="e_0_energy">    -69.59508196 </i>
   </energy>
  </scstep>
  <scstep>
   <time name="total">  281.66  281.45</time>
   <energy>
    <i name="e_fr_energy">    -69.59492592 </i>
    <i name="e_wo_entrp">    -69.59547897 </i>
    <i name="e_0_energy">    -69.59511027 </i>
   </energy>
  </scstep>
  <scstep>
   <time name="total">  281.26  281.06</time>
   <energy>
    <i name="e_fr_energy">    -69.59494563 </i>
    <i name="e_wo_entrp">    -69.59549911 </i>
    <i name="e_0_energy">    -69.59513012 </i>
   </energy>
  </scstep>
  <scstep>
   <time name="total">  282.52  282.61</time>
   <energy>
    <i name="alphaZ">    339.31929130 </i>
    <i name="ewald">  -9063.19543166 </i>
    <i name="hartreedc">  -8150.80985278 </i>
    <i name="XCdc">    372.06210494 </i>
    <i name="pawpsdc">  15921.13014174 </i>
    <i name="pawaedc"> -16406.35109210 </i>
    <i name="eentropy">      0.00055407 </i>
    <i name="bandstr">  -1742.78547003 </i>
    <i name="atom">  18320.98302006 </i>
    <i name="e_fr_energy">    -69.59495299 </i>
    <i name="e_wo_entrp">    -69.59550706 </i>
    <i name="e_0_energy">    -69.59513768 </i>
   </energy>
  </scstep>
  <structure>
   <crystal>
    <varray name="basis" >
     <v>       3.22479600      -5.64383000       0.03157200 </v>
     <v>       3.22479600       5.64383000       0.03157200 </v>
     <v>      -2.10194600       0.00000000       6.07553700 </v>
    </varray>
    <i name="volume">    221.90106089 </i>
    <varray name="rec_basis" >
     <v>       0.15452516      -0.08859232       0.05346088 </v>
     <v>       0.15452516       0.08859232       0.05346088 </v>
     <v>      -0.00160600       0.00000000       0.16403888 </v>
    </varray>
   </crystal>
   <varray name="positions" >
    <v>       0.61844300       0.12117100       0.11953300 </v>
    <v>       0.12117100       0.61844300       0.61953300 </v>
    <v>       0.96295700       0.79032200       0.11881300 </v>
    <v>       0.79032200       0.96295700       0.61881300 </v>
    <v>       0.43973200       0.26728100       0.59904700 </v>
    <v>       0.26728100       0.43973200       0.09904700 </v>
    <v>       0.07949800       0.91167500       0.49736300 </v>
    <v>       0.57140300       0.41236400       0.98018400 </v>
    <v>       0.73864940       0.25006200       0.49504900 </v>
    <v>       0.41236400       0.57140300       0.48018400 </v>
    <v>       0.91167500       0.07949800       0.99736300 </v>
    <v>       0.25006200       0.73711100       0.99504900 </v>
   </varray>
  </structure>
  <varray name="forces" >
   <v>      -0.00160988      -0.00172659       0.00543551 </v>
   <v>       0.00730746       0.00178053       0.00253336 </v>
   <v>       0.00269020      -0.00034299       0.00094315 </v>
   <v>      -0.00224456      -0.01027942       0.00360015 </v>
   <v>       0.05589627      -0.07938729      -0.02512866 </v>
   <v>      -0.00132145      -0.00488205      -0.00115660 </v>
   <v>       0.00636495      -0.01104102      -0.00254011 </v>
   <v>       0.00005760      -0.01079242       0.00073969 </v>
   <v>      -0.07907925       0.12914029       0.01305710 </v>
   <v>       0.00689206      -0.00427588       0.00149165 </v>
   <v>       0.00316541      -0.00661103      -0.00246322 </v>
   <v>       0.00188119      -0.00158213       0.00348799 </v>
  </varray>
  <energy>
   <i name="e_fr_energy">    -69.59495299 </i>
   <i name="e_wo_entrp">    -69.59513768 </i>
   <i name="e_0_energy">      0.00055407 </i>
  </energy>
  <time name="totalsc"> 6335.33 6332.72</time>
  <eigenvalues>
   <array>
    <dimension dim="1">band</dimension>
    <dimension dim="2">kpoint</dimension>
    <dimension dim="3">spin</dimension>
    <field>eigene</field>
    <field>occ</field>
    <set>
     <set comment="spin 1">
      <set comment="kpoint 1">
       <r>  -68.6500    1.0000 </r>
       <r>  -68.6443    1.0000 </r>
       <r>  -68.6381    1.0000 </r>
       <r>  -68.6340    1.0000 </r>
       <r>  -68.6175    1.0000 </r>
       <r>  -68.6116    1.0000 </r>
       <r>  -68.6008    1.0000 </r>
       <r>  -68.5945    1.0000 </r>
       <r>  -68.5815    1.0000 </r>
       <r>  -68.5783    1.0000 </r>
       <r>  -68.5659    1.0000 </r>
       <r>  -68.5612    1.0000 </r>
       <r>  -12.7177    1.0000 </r>
       <r>  -11.1239    1.0000 </r>
       <r>  -10.9155    1.0000 </r>
       <r>  -10.6032    1.0000 </r>
       <r>  -10.2476    1.0000 </r>
       <r>  -10.2321    1.0000 </r>
       <r>   -5.9869    1.0000 </r>
       <r>   -4.9809    1.0000 </r>
       <r>   -2.7590    1.0000 </r>
       <r>   -2.2073    1.0000 </r>
       <r>   -2.0682    1.0000 </r>
       <r>   -1.9204    1.0000 </r>
       <r>   -1.5770    1.0000 </r>
       <r>   -0.9878    1.0000 </r>
       <r>   -0.9523    1.0000 </r>
       <r>   -0.6826    1.0000 </r>
       <r>   -0.4049    1.0000 </r>
       <r>   -0.2765    1.0000 </r>
       <r>   -0.2650    1.0000 </r>
       <r>   -0.2366    1.0000 </r>
       <r>   -0.1913    1.0000 </r>
       <r>   -0.1587    1.0000 </r>
       <r>   -0.0435    1.0000 </r>
       <r>    0.0305    1.0000 </r>
       <r>    1.3482    1.0000 </r>
       <r>    1.3613    1.0000 </r>
       <r>    1.4127    1.0000 </r>
       <r>    1.4557    1.0000 </r>
       <r>    1.4692    1.0000 </r>
       <r>    1.4723    1.0000 </r>
       <r>    1.5187    1.0000 </r>
       <r>    1.5298    1.0000 </r>
       <r>    1.5739    1.0000 </r>
       <r>    1.7109    1.0000 </r>
       <r>    1.8918    1.0000 </r>
       <r>    1.9280    1.0000 </r>
       <r>    2.0574    1.0000 </r>
       <r>    2.6496    1.0000 </r>
       <r>    2.7289    1.0000 </r>
       <r>    3.0948    1.0000 </r>
       <r>    3.2182    1.0000 </r>
       <r>    4.0104    1.0047 </r>
       <r>    4.0415    1.0129 </r>
       <r>    4.1766    0.8649 </r>
       <r>    5.5316   -0.0000 </r>
       <r>    6.3512   -0.0000 </r>
       <r>    7.6283    0.0000 </r>
       <r>    7.9855    0.0000 </r>
       <r>    8.6060    0.0000 </r>
       <r>    8.7911    0.0000 </r>
       <r>    9.5589    0.0000 </r>
       <r>    9.7400    0.0000 </r>
       <r>    9.8144    0.0000 </r>
       <r>   10.4217    0.0000 </r>
       <r>   10.5882    0.0000 </r>
       <r>   10.6878    0.0000 </r>
       <r>   10.7212    0.0000 </r>
       <r>   11.2844    0.0000 </r>
       <r>   11.7146    0.0000 </r>
       <r>   12.3979    0.0000 </r>
       <r>   12.4510    0.0000 </r>
       <r>   12.7258    0.0000 </r>
       <r>   13.3205    0.0000 </r>
       <r>   13.3906    0.0000 </r>
       <r>   13.8285    0.0000 </r>
       <r>   13.8881    0.0000 </r>
       <r>   14.1446    0.0000 </r>
       <r>   14.1833    0.0000 </r>
      </set>
      <set comment="kpoint 2">
       <r>  -68.6500    1.0000 </r>
       <r>  -68.6443    1.0000 </r>
       <r>  -68.6380    1.0000 </r>
       <r>  -68.6340    1.0000 </r>
       <r>  -68.6174    1.0000 </r>
       <r>  -68.6115    1.0000 </r>
       <r>  -68.6008    1.0000 </r>
       <r>  -68.5945    1.0000 </r>
       <r>  -68.5815    1.0000 </r>
       <r>  -68.5782    1.0000 </r>
       <r>  -68.5659    1.0000 </r>
       <r>  -68.5612    1.0000 </r>
       <r>  -12.5926    1.0000 </r>
       <r>  -11.1193    1.0000 </r>
       <r>  -10.9831    1.0000 </r>
       <r>  -10.6776    1.0000 </r>
       <r>  -10.3634    1.0000 </r>
       <r>  -10.2734    1.0000 </r>
       <r>   -5.9352    1.0000 </r>
       <r>   -4.7715    1.0000 </r>
       <r>   -2.6451    1.0000 </r>
       <r>   -2.2507    1.0000 </r>
       <r>   -2.0842    1.0000 </r>
       <r>   -1.6881    1.0000 </r>
       <r>   -1.3409    1.0000 </r>
       <r>   -1.0003    1.0000 </r>
       <r>   -0.7696    1.0000 </r>
       <r>   -0.6242    1.0000 </r>
       <r>   -0.5540    1.0000 </r>
       <r>   -0.4392    1.0000 </r>
       <r>   -0.3644    1.0000 </r>
       <r>   -0.2426    1.0000 </r>
       <r>   -0.1969    1.0000 </r>
       <r>   -0.1675    1.0000 </r>
       <r>   -0.0528    1.0000 </r>
       <r>    0.0368    1.0000 </r>
       <r>    1.2774    1.0000 </r>
       <r>    1.3332    1.0000 </r>
       <r>    1.3529    1.0000 </r>
       <r>    1.3911    1.0000 </r>
       <r>    1.4257    1.0000 </r>
       <r>    1.4700    1.0000 </r>
       <r>    1.4954    1.0000 </r>
       <r>    1.5303    1.0000 </r>
       <r>    1.7233    1.0000 </r>
       <r>    1.8580    1.0000 </r>
       <r>    2.0547    1.0000 </r>
       <r>    2.0929    1.0000 </r>
       <r>    2.2310    1.0000 </r>
       <r>    2.4137    1.0000 </r>
       <r>    2.5569    1.0000 </r>
       <r>    2.8268    1.0000 </r>
       <r>    2.9474    1.0000 </r>
       <r>    3.2432    1.0000 </r>
       <r>    3.6664    1.0000 </r>
       <r>    4.0432    1.0135 </r>
       <r>    6.1652   -0.0000 </r>
       <r>    6.9005   -0.0000 </r>
       <r>    8.1365    0.0000 </r>
       <r>    8.2668    0.0000 </r>
       <r>    8.5840    0.0000 </r>
       <r>    9.0110    0.0000 </r>
       <r>    9.2418    0.0000 </r>
       <r>    9.5310    0.0000 </r>
       <r>    9.8598    0.0000 </r>
       <r>   10.3787    0.0000 </r>
       <r>   10.6348    0.0000 </r>
       <r>   10.8111    0.0000 </r>
       <r>   10.9454    0.0000 </r>
       <r>   11.1950    0.0000 </r>
       <r>   11.6548    0.0000 </r>
       <r>   11.7712    0.0000 </r>
       <r>   12.1151    0.0000 </r>
       <r>   12.4449    0.0000 </r>
       <r>   12.6180    0.0000 </r>
       <r>   13.0092    0.0000 </r>
       <r>   13.5065    0.0000 </r>
       <r>   13.8738    0.0000 </r>
       <r>   14.2121    0.0000 </r>
       <r>   14.7127    0.0000 </r>
      </set>
      <set comment="kpoint 3">
       <r>  -68.6499    1.0000 </r>
       <r>  -68.6441    1.0000 </r>
       <r>  -68.6380    1.0000 </r>
       <r>  -68.6339    1.0000 </r>
       <r>  -68.6173    1.0000 </r>
       <r>  -68.6115    1.0000 </r>
       <r>  -68.6007    1.0000 </r>
       <r>  -68.5945    1.0000 </r>
       <r>  -68.5815    1.0000 </r>
       <r>  -68.5782    1.0000 </r>
       <r>  -68.5657    1.0000 </r>
       <r>  -68.5611    1.0000 </r>
       <r>  -12.4331    1.0000 </r>
       <r>  -11.2430    1.0000 </r>
       <r>  -10.9561    1.0000 </r>
       <r>  -10.7646    1.0000 </r>
       <r>  -10.4257    1.0000 </r>
       <r>  -10.3530    1.0000 </r>
       <r>   -5.8729    1.0000 </r>
       <r>   -4.5475    1.0000 </r>
       <r>   -2.4936    1.0000 </r>
       <r>   -2.2426    1.0000 </r>
       <r>   -1.9447    1.0000 </r>
       <r>   -1.4640    1.0000 </r>
       <r>   -1.2247    1.0000 </r>
       <r>   -1.0977    1.0000 </r>
       <r>   -0.9008    1.0000 </r>
       <r>   -0.8621    1.0000 </r>
       <r>   -0.6011    1.0000 </r>
       <r>   -0.5362    1.0000 </r>
       <r>   -0.2740    1.0000 </r>
       <r>   -0.2089    1.0000 </r>
       <r>   -0.2043    1.0000 </r>
       <r>   -0.1464    1.0000 </r>
       <r>   -0.0373    1.0000 </r>
       <r>    0.0787    1.0000 </r>
       <r>    1.2521    1.0000 </r>
       <r>    1.3240    1.0000 </r>
       <r>    1.3467    1.0000 </r>
       <r>    1.3967    1.0000 </r>
       <r>    1.4678    1.0000 </r>
       <r>    1.4765    1.0000 </r>
       <r>    1.4981    1.0000 </r>
       <r>    1.5537    1.0000 </r>
       <r>    1.7520    1.0000 </r>
       <r>    1.7911    1.0000 </r>
       <r>    1.9650    1.0000 </r>
       <r>    2.1456    1.0000 </r>
       <r>    2.3182    1.0000 </r>
       <r>    2.3605    1.0000 </r>
       <r>    2.5552    1.0000 </r>
       <r>    2.6700    1.0000 </r>
       <r>    2.9380    1.0000 </r>
       <r>    3.0802    1.0000 </r>
       <r>    3.2524    1.0000 </r>
       <r>    3.8639    1.0000 </r>
       <r>    6.3791   -0.0000 </r>
       <r>    7.0927    0.0000 </r>
       <r>    7.9744    0.0000 </r>
       <r>    8.2048    0.0000 </r>
       <r>    8.5186    0.0000 </r>
       <r>    8.8192    0.0000 </r>
       <r>    9.3268    0.0000 </r>
       <r>    9.8952    0.0000 </r>
       <r>   10.0032    0.0000 </r>
       <r>   10.5137    0.0000 </r>
       <r>   10.6931    0.0000 </r>
       <r>   10.7929    0.0000 </r>
       <r>   11.1435    0.0000 </r>
       <r>   11.4063    0.0000 </r>
       <r>   11.6106    0.0000 </r>
       <r>   11.7733    0.0000 </r>
       <r>   11.9497    0.0000 </r>
       <r>   12.5069    0.0000 </r>
       <r>   12.7766    0.0000 </r>
       <r>   13.0016    0.0000 </r>
       <r>   13.3927    0.0000 </r>
       <r>   13.5423    0.0000 </r>
       <r>   13.9407    0.0000 </r>
       <r>   14.2710    0.0000 </r>
      </set>
      <set comment="kpoint 4">
       <r>  -68.6500    1.0000 </r>
       <r>  -68.6443    1.0000 </r>
       <r>  -68.6380    1.0000 </r>
       <r>  -68.6340    1.0000 </r>
       <r>  -68.6174    1.0000 </r>
       <r>  -68.6115    1.0000 </r>
       <r>  -68.6008    1.0000 </r>
       <r>  -68.5945    1.0000 </r>
       <r>  -68.5815    1.0000 </r>
       <r>  -68.5782    1.0000 </r>
       <r>  -68.5659    1.0000 </r>
       <r>  -68.5612    1.0000 </r>
       <r>  -12.5927    1.0000 </r>
       <r>  -11.1195    1.0000 </r>
       <r>  -10.9834    1.0000 </r>
       <r>  -10.6770    1.0000 </r>
       <r>  -10.3608    1.0000 </r>
       <r>  -10.2759    1.0000 </r>
       <r>   -5.9355    1.0000 </r>
       <r>   -4.7714    1.0000 </r>
       <r>   -2.6446    1.0000 </r>
       <r>   -2.2517    1.0000 </r>
       <r>   -2.0847    1.0000 </r>
       <r>   -1.6864    1.0000 </r>
       <r>   -1.3455    1.0000 </r>
       <r>   -0.9990    1.0000 </r>
       <r>   -0.7675    1.0000 </r>
       <r>   -0.6245    1.0000 </r>
       <r>   -0.5561    1.0000 </r>
       <r>   -0.4422    1.0000 </r>
       <r>   -0.3613    1.0000 </r>
       <r>   -0.2423    1.0000 </r>
       <r>   -0.1979    1.0000 </r>
       <r>   -0.1699    1.0000 </r>
       <r>   -0.0478    1.0000 </r>
       <r>    0.0371    1.0000 </r>
       <r>    1.2771    1.0000 </r>
       <r>    1.3347    1.0000 </r>
       <r>    1.3537    1.0000 </r>
       <r>    1.3896    1.0000 </r>
       <r>    1.4251    1.0000 </r>
       <r>    1.4705    1.0000 </r>
       <r>    1.4974    1.0000 </r>
       <r>    1.5278    1.0000 </r>
       <r>    1.7231    1.0000 </r>
       <r>    1.8602    1.0000 </r>
       <r>    2.0556    1.0000 </r>
       <r>    2.0941    1.0000 </r>
       <r>    2.2298    1.0000 </r>
       <r>    2.4136    1.0000 </r>
       <r>    2.5543    1.0000 </r>
       <r>    2.8269    1.0000 </r>
       <r>    2.9516    1.0000 </r>
       <r>    3.2455    1.0000 </r>
       <r>    3.6646    1.0000 </r>
       <r>    4.0430    1.0134 </r>
       <r>    6.1635   -0.0000 </r>
       <r>    6.8977   -0.0000 </r>
       <r>    8.1369    0.0000 </r>
       <r>    8.2617    0.0000 </r>
       <r>    8.5865    0.0000 </r>
       <r>    9.0116    0.0000 </r>
       <r>    9.2355    0.0000 </r>
       <r>    9.5314    0.0000 </r>
       <r>    9.8680    0.0000 </r>
       <r>   10.3804    0.0000 </r>
       <r>   10.6328    0.0000 </r>
       <r>   10.8146    0.0000 </r>
       <r>   10.9434    0.0000 </r>
       <r>   11.1918    0.0000 </r>
       <r>   11.6515    0.0000 </r>
       <r>   11.7725    0.0000 </r>
       <r>   12.1192    0.0000 </r>
       <r>   12.4382    0.0000 </r>
       <r>   12.6195    0.0000 </r>
       <r>   13.0105    0.0000 </r>
       <r>   13.5202    0.0000 </r>
       <r>   13.9012    0.0000 </r>
       <r>   14.2740    0.0000 </r>
       <r>   14.8410    0.0000 </r>
      </set>
      <set comment="kpoint 5">
       <r>  -68.6500    1.0000 </r>
       <r>  -68.6443    1.0000 </r>
       <r>  -68.6379    1.0000 </r>
       <r>  -68.6339    1.0000 </r>
       <r>  -68.6175    1.0000 </r>
       <r>  -68.6117    1.0000 </r>
       <r>  -68.6007    1.0000 </r>
       <r>  -68.5944    1.0000 </r>
       <r>  -68.5816    1.0000 </r>
       <r>  -68.5784    1.0000 </r>
       <r>  -68.5659    1.0000 </r>
       <r>  -68.5612    1.0000 </r>
       <r>  -12.4370    1.0000 </r>
       <r>  -11.1836    1.0000 </r>
       <r>  -10.9422    1.0000 </r>
       <r>  -10.8786    1.0000 </r>
       <r>  -10.3896    1.0000 </r>
       <r>  -10.3453    1.0000 </r>
       <r>   -5.8782    1.0000 </r>
       <r>   -4.5208    1.0000 </r>
       <r>   -2.4171    1.0000 </r>
       <r>   -2.2439    1.0000 </r>
       <r>   -1.7911    1.0000 </r>
       <r>   -1.6791    1.0000 </r>
       <r>   -1.3563    1.0000 </r>
       <r>   -1.2979    1.0000 </r>
       <r>   -1.0822    1.0000 </r>
       <r>   -0.6824    1.0000 </r>
       <r>   -0.5246    1.0000 </r>
       <r>   -0.2979    1.0000 </r>
       <r>   -0.2835    1.0000 </r>
       <r>   -0.2270    1.0000 </r>
       <r>   -0.1870    1.0000 </r>
       <r>   -0.1313    1.0000 </r>
       <r>   -0.0950    1.0000 </r>
       <r>    0.0777    1.0000 </r>
       <r>    1.2917    1.0000 </r>
       <r>    1.3098    1.0000 </r>
       <r>    1.4134    1.0000 </r>
       <r>    1.4249    1.0000 </r>
       <r>    1.4617    1.0000 </r>
       <r>    1.4807    1.0000 </r>
       <r>    1.4943    1.0000 </r>
       <r>    1.5683    1.0000 </r>
       <r>    1.6708    1.0000 </r>
       <r>    1.8791    1.0000 </r>
       <r>    1.9382    1.0000 </r>
       <r>    2.1346    1.0000 </r>
       <r>    2.2789    1.0000 </r>
       <r>    2.3207    1.0000 </r>
       <r>    2.5604    1.0000 </r>
       <r>    2.6509    1.0000 </r>
       <r>    2.9053    1.0000 </r>
       <r>    2.9458    1.0000 </r>
       <r>    3.7000    1.0000 </r>
       <r>    3.8337    1.0000 </r>
       <r>    6.1636   -0.0000 </r>
       <r>    6.9830    0.0000 </r>
       <r>    8.0031    0.0000 </r>
       <r>    8.3199    0.0000 </r>
       <r>    8.4318    0.0000 </r>
       <r>    8.5689    0.0000 </r>
       <r>    9.1455    0.0000 </r>
       <r>    9.2480    0.0000 </r>
       <r>   10.3618    0.0000 </r>
       <r>   10.4912    0.0000 </r>
       <r>   10.9232    0.0000 </r>
       <r>   11.1871    0.0000 </r>
       <r>   11.3289    0.0000 </r>
       <r>   11.5563    0.0000 </r>
       <r>   11.8199    0.0000 </r>
       <r>   11.9688    0.0000 </r>
       <r>   12.3158    0.0000 </r>
       <r>   12.5007    0.0000 </r>
       <r>   12.7128    0.0000 </r>
       <r>   12.9091    0.0000 </r>
       <r>   13.3383    0.0000 </r>
       <r>   13.4456    0.0000 </r>
       <r>   14.2569    0.0000 </r>
       <r>   14.3692    0.0000 </r>
      </set>
      <set comment="kpoint 6">
       <r>  -68.6498    1.0000 </r>
       <r>  -68.6441    1.0000 </r>
       <r>  -68.6380    1.0000 </r>
       <r>  -68.6340    1.0000 </r>
       <r>  -68.6173    1.0000 </r>
       <r>  -68.6114    1.0000 </r>
       <r>  -68.6008    1.0000 </r>
       <r>  -68.5945    1.0000 </r>
       <r>  -68.5814    1.0000 </r>
       <r>  -68.5782    1.0000 </r>
       <r>  -68.5657    1.0000 </r>
       <r>  -68.5611    1.0000 </r>
       <r>  -12.4376    1.0000 </r>
       <r>  -11.3472    1.0000 </r>
       <r>  -10.9374    1.0000 </r>
       <r>  -10.7384    1.0000 </r>
       <r>  -10.3849    1.0000 </r>
       <r>  -10.2689    1.0000 </r>
       <r>   -5.9492    1.0000 </r>
       <r>   -4.6424    1.0000 </r>
       <r>   -2.3914    1.0000 </r>
       <r>   -2.2247    1.0000 </r>
       <r>   -2.0544    1.0000 </r>
       <r>   -1.6387    1.0000 </r>
       <r>   -1.3591    1.0000 </r>
       <r>   -1.2819    1.0000 </r>
       <r>   -1.0223    1.0000 </r>
       <r>   -0.5106    1.0000 </r>
       <r>   -0.4840    1.0000 </r>
       <r>   -0.3313    1.0000 </r>
       <r>   -0.2851    1.0000 </r>
       <r>   -0.2146    1.0000 </r>
       <r>   -0.1522    1.0000 </r>
       <r>   -0.1379    1.0000 </r>
       <r>   -0.0171    1.0000 </r>
       <r>    0.1089    1.0000 </r>
       <r>    1.2440    1.0000 </r>
       <r>    1.3150    1.0000 </r>
       <r>    1.3795    1.0000 </r>
       <r>    1.4346    1.0000 </r>
       <r>    1.4595    1.0000 </r>
       <r>    1.4908    1.0000 </r>
       <r>    1.4951    1.0000 </r>
       <r>    1.5487    1.0000 </r>
       <r>    1.7483    1.0000 </r>
       <r>    1.8270    1.0000 </r>
       <r>    1.9191    1.0000 </r>
       <r>    2.1325    1.0000 </r>
       <r>    2.2203    1.0000 </r>
       <r>    2.3832    1.0000 </r>
       <r>    2.5610    1.0000 </r>
       <r>    2.7920    1.0000 </r>
       <r>    2.9791    1.0000 </r>
       <r>    3.3134    1.0000 </r>
       <r>    3.6086    1.0000 </r>
       <r>    3.7502    1.0000 </r>
       <r>    6.0816   -0.0000 </r>
       <r>    6.9338   -0.0000 </r>
       <r>    7.6096    0.0000 </r>
       <r>    8.0694    0.0000 </r>
       <r>    8.4040    0.0000 </r>
       <r>    8.6122    0.0000 </r>
       <r>    8.9799    0.0000 </r>
       <r>    9.1518    0.0000 </r>
       <r>   10.0883    0.0000 </r>
       <r>   10.3369    0.0000 </r>
       <r>   10.7335    0.0000 </r>
       <r>   11.1053    0.0000 </r>
       <r>   11.4574    0.0000 </r>
       <r>   11.6012    0.0000 </r>
       <r>   11.7977    0.0000 </r>
       <r>   12.0875    0.0000 </r>
       <r>   12.4780    0.0000 </r>
       <r>   12.9258    0.0000 </r>
       <r>   13.0356    0.0000 </r>
       <r>   13.8287    0.0000 </r>
       <r>   14.1941    0.0000 </r>
       <r>   14.6555    0.0000 </r>
       <r>   15.4252    0.0000 </r>
       <r>   15.6410    0.0000 </r>
      </set>
      <set comment="kpoint 7">
       <r>  -68.6500    1.0000 </r>
       <r>  -68.6443    1.0000 </r>
       <r>  -68.6380    1.0000 </r>
       <r>  -68.6340    1.0000 </r>
       <r>  -68.6173    1.0000 </r>
       <r>  -68.6115    1.0000 </r>
       <r>  -68.6008    1.0000 </r>
       <r>  -68.5945    1.0000 </r>
       <r>  -68.5814    1.0000 </r>
       <r>  -68.5782    1.0000 </r>
       <r>  -68.5659    1.0000 </r>
       <r>  -68.5612    1.0000 </r>
       <r>  -12.5958    1.0000 </r>
       <r>  -11.2439    1.0000 </r>
       <r>  -10.9920    1.0000 </r>
       <r>  -10.5706    1.0000 </r>
       <r>  -10.3617    1.0000 </r>
       <r>  -10.1778    1.0000 </r>
       <r>   -6.0116    1.0000 </r>
       <r>   -4.8939    1.0000 </r>
       <r>   -2.6459    1.0000 </r>
       <r>   -2.3120    1.0000 </r>
       <r>   -1.9685    1.0000 </r>
       <r>   -1.6453    1.0000 </r>
       <r>   -1.4957    1.0000 </r>
       <r>   -1.1816    1.0000 </r>
       <r>   -0.7900    1.0000 </r>
       <r>   -0.5854    1.0000 </r>
       <r>   -0.4483    1.0000 </r>
       <r>   -0.3355    1.0000 </r>
       <r>   -0.2959    1.0000 </r>
       <r>   -0.2348    1.0000 </r>
       <r>   -0.1770    1.0000 </r>
       <r>   -0.1359    1.0000 </r>
       <r>   -0.0112    1.0000 </r>
       <r>    0.0681    1.0000 </r>
       <r>    1.2577    1.0000 </r>
       <r>    1.3184    1.0000 </r>
       <r>    1.3638    1.0000 </r>
       <r>    1.4210    1.0000 </r>
       <r>    1.4293    1.0000 </r>
       <r>    1.4740    1.0000 </r>
       <r>    1.5015    1.0000 </r>
       <r>    1.5422    1.0000 </r>
       <r>    1.7232    1.0000 </r>
       <r>    1.8106    1.0000 </r>
       <r>    1.9942    1.0000 </r>
       <r>    2.0716    1.0000 </r>
       <r>    2.4144    1.0000 </r>
       <r>    2.4646    1.0000 </r>
       <r>    2.5294    1.0000 </r>
       <r>    2.8720    1.0000 </r>
       <r>    3.1439    1.0000 </r>
       <r>    3.2297    1.0000 </r>
       <r>    3.7861    1.0000 </r>
       <r>    4.0748    1.0273 </r>
       <r>    5.9746   -0.0000 </r>
       <r>    6.6858   -0.0000 </r>
       <r>    7.5278    0.0000 </r>
       <r>    8.2227    0.0000 </r>
       <r>    8.6108    0.0000 </r>
       <r>    8.9121    0.0000 </r>
       <r>    9.3008    0.0000 </r>
       <r>    9.4286    0.0000 </r>
       <r>    9.8034    0.0000 </r>
       <r>   10.2712    0.0000 </r>
       <r>   10.5464    0.0000 </r>
       <r>   10.8301    0.0000 </r>
       <r>   10.9761    0.0000 </r>
       <r>   11.3832    0.0000 </r>
       <r>   11.4785    0.0000 </r>
       <r>   11.7331    0.0000 </r>
       <r>   12.0962    0.0000 </r>
       <r>   12.6621    0.0000 </r>
       <r>   12.9401    0.0000 </r>
       <r>   13.1031    0.0000 </r>
       <r>   13.3514    0.0000 </r>
       <r>   13.5242    0.0000 </r>
       <r>   14.4772    0.0000 </r>
       <r>   14.7561    0.0000 </r>
      </set>
      <set comment="kpoint 8">
       <r>  -68.6498    1.0000 </r>
       <r>  -68.6441    1.0000 </r>
       <r>  -68.6380    1.0000 </r>
       <r>  -68.6339    1.0000 </r>
       <r>  -68.6174    1.0000 </r>
       <r>  -68.6115    1.0000 </r>
       <r>  -68.6007    1.0000 </r>
       <r>  -68.5945    1.0000 </r>
       <r>  -68.5814    1.0000 </r>
       <r>  -68.5782    1.0000 </r>
       <r>  -68.5658    1.0000 </r>
       <r>  -68.5610    1.0000 </r>
       <r>  -12.4333    1.0000 </r>
       <r>  -11.2432    1.0000 </r>
       <r>  -10.9566    1.0000 </r>
       <r>  -10.7638    1.0000 </r>
       <r>  -10.4197    1.0000 </r>
       <r>  -10.3586    1.0000 </r>
       <r>   -5.8734    1.0000 </r>
       <r>   -4.5472    1.0000 </r>
       <r>   -2.4933    1.0000 </r>
       <r>   -2.2431    1.0000 </r>
       <r>   -1.9433    1.0000 </r>
       <r>   -1.4641    1.0000 </r>
       <r>   -1.2259    1.0000 </r>
       <r>   -1.1013    1.0000 </r>
       <r>   -0.9064    1.0000 </r>
       <r>   -0.8638    1.0000 </r>
       <r>   -0.5995    1.0000 </r>
       <r>   -0.5374    1.0000 </r>
       <r>   -0.2745    1.0000 </r>
       <r>   -0.2052    1.0000 </r>
       <r>   -0.2026    1.0000 </r>
       <r>   -0.1488    1.0000 </r>
       <r>   -0.0324    1.0000 </r>
       <r>    0.0789    1.0000 </r>
       <r>    1.2526    1.0000 </r>
       <r>    1.3272    1.0000 </r>
       <r>    1.3463    1.0000 </r>
       <r>    1.3943    1.0000 </r>
       <r>    1.4701    1.0000 </r>
       <r>    1.4777    1.0000 </r>
       <r>    1.4980    1.0000 </r>
       <r>    1.5502    1.0000 </r>
       <r>    1.7524    1.0000 </r>
       <r>    1.7883    1.0000 </r>
       <r>    1.9672    1.0000 </r>
       <r>    2.1481    1.0000 </r>
       <r>    2.3202    1.0000 </r>
       <r>    2.3615    1.0000 </r>
       <r>    2.5609    1.0000 </r>
       <r>    2.6719    1.0000 </r>
       <r>    2.9365    1.0000 </r>
       <r>    3.0825    1.0000 </r>
       <r>    3.2487    1.0000 </r>
       <r>    3.8631    1.0000 </r>
       <r>    6.3779   -0.0000 </r>
       <r>    7.0884    0.0000 </r>
       <r>    7.9813    0.0000 </r>
       <r>    8.2003    0.0000 </r>
       <r>    8.5009    0.0000 </r>
       <r>    8.8145    0.0000 </r>
       <r>    9.3268    0.0000 </r>
       <r>    9.8856    0.0000 </r>
       <r>   10.0136    0.0000 </r>
       <r>   10.5236    0.0000 </r>
       <r>   10.6910    0.0000 </r>
       <r>   10.7983    0.0000 </r>
       <r>   11.1392    0.0000 </r>
       <r>   11.4081    0.0000 </r>
       <r>   11.6130    0.0000 </r>
       <r>   11.7831    0.0000 </r>
       <r>   11.9465    0.0000 </r>
       <r>   12.5080    0.0000 </r>
       <r>   12.8298    0.0000 </r>
       <r>   13.0288    0.0000 </r>
       <r>   13.5482    0.0000 </r>
       <r>   13.6847    0.0000 </r>
       <r>   14.5542    0.0000 </r>
       <r>   15.2511    0.0000 </r>
      </set>
      <set comment="kpoint 9">
       <r>  -68.6498    1.0000 </r>
       <r>  -68.6441    1.0000 </r>
       <r>  -68.6380    1.0000 </r>
       <r>  -68.6340    1.0000 </r>
       <r>  -68.6173    1.0000 </r>
       <r>  -68.6114    1.0000 </r>
       <r>  -68.6008    1.0000 </r>
       <r>  -68.5945    1.0000 </r>
       <r>  -68.5814    1.0000 </r>
       <r>  -68.5782    1.0000 </r>
       <r>  -68.5658    1.0000 </r>
       <r>  -68.5611    1.0000 </r>
       <r>  -12.4377    1.0000 </r>
       <r>  -11.3472    1.0000 </r>
       <r>  -10.9379    1.0000 </r>
       <r>  -10.7379    1.0000 </r>
       <r>  -10.3833    1.0000 </r>
       <r>  -10.2704    1.0000 </r>
       <r>   -5.9495    1.0000 </r>
       <r>   -4.6424    1.0000 </r>
       <r>   -2.3904    1.0000 </r>
       <r>   -2.2246    1.0000 </r>
       <r>   -2.0541    1.0000 </r>
       <r>   -1.6413    1.0000 </r>
       <r>   -1.3623    1.0000 </r>
       <r>   -1.2813    1.0000 </r>
       <r>   -1.0225    1.0000 </r>
       <r>   -0.5105    1.0000 </r>
       <r>   -0.4831    1.0000 </r>
       <r>   -0.3326    1.0000 </r>
       <r>   -0.2841    1.0000 </r>
       <r>   -0.2155    1.0000 </r>
       <r>   -0.1538    1.0000 </r>
       <r>   -0.1396    1.0000 </r>
       <r>   -0.0121    1.0000 </r>
       <r>    0.1100    1.0000 </r>
       <r>    1.2453    1.0000 </r>
       <r>    1.3127    1.0000 </r>
       <r>    1.3817    1.0000 </r>
       <r>    1.4358    1.0000 </r>
       <r>    1.4600    1.0000 </r>
       <r>    1.4909    1.0000 </r>
       <r>    1.4952    1.0000 </r>
       <r>    1.5469    1.0000 </r>
       <r>    1.7491    1.0000 </r>
       <r>    1.8254    1.0000 </r>
       <r>    1.9209    1.0000 </r>
       <r>    2.1328    1.0000 </r>
       <r>    2.2190    1.0000 </r>
       <r>    2.3862    1.0000 </r>
       <r>    2.5636    1.0000 </r>
       <r>    2.7911    1.0000 </r>
       <r>    2.9803    1.0000 </r>
       <r>    3.3131    1.0000 </r>
       <r>    3.6060    1.0000 </r>
       <r>    3.7494    1.0000 </r>
       <r>    6.0803   -0.0000 </r>
       <r>    6.9315   -0.0000 </r>
       <r>    7.6100    0.0000 </r>
       <r>    8.0664    0.0000 </r>
       <r>    8.4044    0.0000 </r>
       <r>    8.6110    0.0000 </r>
       <r>    8.9851    0.0000 </r>
       <r>    9.1496    0.0000 </r>
       <r>   10.0871    0.0000 </r>
       <r>   10.3358    0.0000 </r>
       <r>   10.7338    0.0000 </r>
       <r>   11.1101    0.0000 </r>
       <r>   11.4589    0.0000 </r>
       <r>   11.5812    0.0000 </r>
       <r>   11.7849    0.0000 </r>
       <r>   12.0293    0.0000 </r>
       <r>   12.5072    0.0000 </r>
       <r>   12.6622    0.0000 </r>
       <r>   12.9152    0.0000 </r>
       <r>   13.2145    0.0000 </r>
       <r>   14.2160    0.0000 </r>
       <r>   14.7187    0.0000 </r>
       <r>   15.1828    0.0000 </r>
       <r>   15.9021    0.0000 </r>
      </set>
      <set comment="kpoint 10">
       <r>  -68.6496    1.0000 </r>
       <r>  -68.6439    1.0000 </r>
       <r>  -68.6378    1.0000 </r>
       <r>  -68.6338    1.0000 </r>
       <r>  -68.6172    1.0000 </r>
       <r>  -68.6114    1.0000 </r>
       <r>  -68.6006    1.0000 </r>
       <r>  -68.5943    1.0000 </r>
       <r>  -68.5813    1.0000 </r>
       <r>  -68.5781    1.0000 </r>
       <r>  -68.5656    1.0000 </r>
       <r>  -68.5609    1.0000 </r>
       <r>  -12.4299    1.0000 </r>
       <r>  -11.4946    1.0000 </r>
       <r>  -10.9129    1.0000 </r>
       <r>  -10.6182    1.0000 </r>
       <r>  -10.3917    1.0000 </r>
       <r>  -10.1979    1.0000 </r>
       <r>   -6.0274    1.0000 </r>
       <r>   -4.8112    1.0000 </r>
       <r>   -2.3115    1.0000 </r>
       <r>   -2.2620    1.0000 </r>
       <r>   -2.0902    1.0000 </r>
       <r>   -1.7023    1.0000 </r>
       <r>   -1.2449    1.0000 </r>
       <r>   -1.1089    1.0000 </r>
       <r>   -0.8425    1.0000 </r>
       <r>   -0.7778    1.0000 </r>
       <r>   -0.7283    1.0000 </r>
       <r>   -0.2449    1.0000 </r>
       <r>   -0.2013    1.0000 </r>
       <r>   -0.1831    1.0000 </r>
       <r>   -0.1529    1.0000 </r>
       <r>   -0.0441    1.0000 </r>
       <r>   -0.0058    1.0000 </r>
       <r>    0.1804    1.0000 </r>
       <r>    1.2641    1.0000 </r>
       <r>    1.3162    1.0000 </r>
       <r>    1.3742    1.0000 </r>
       <r>    1.4119    1.0000 </r>
       <r>    1.4302    1.0000 </r>
       <r>    1.4903    1.0000 </r>
       <r>    1.5071    1.0000 </r>
       <r>    1.5481    1.0000 </r>
       <r>    1.7846    1.0000 </r>
       <r>    1.8441    1.0000 </r>
       <r>    1.9959    1.0000 </r>
       <r>    2.1506    1.0000 </r>
       <r>    2.2511    1.0000 </r>
       <r>    2.3354    1.0000 </r>
       <r>    2.5604    1.0000 </r>
       <r>    2.7644    1.0000 </r>
       <r>    2.7737    1.0000 </r>
       <r>    3.3699    1.0000 </r>
       <r>    3.7644    1.0000 </r>
       <r>    4.0133    1.0053 </r>
       <r>    5.8483   -0.0000 </r>
       <r>    6.7657   -0.0000 </r>
       <r>    7.0742    0.0000 </r>
       <r>    8.4161    0.0000 </r>
       <r>    8.5607    0.0000 </r>
       <r>    8.7680    0.0000 </r>
       <r>    9.1382    0.0000 </r>
       <r>    9.2327    0.0000 </r>
       <r>    9.9593    0.0000 </r>
       <r>   10.2847    0.0000 </r>
       <r>   10.7272    0.0000 </r>
       <r>   10.8267    0.0000 </r>
       <r>   10.8791    0.0000 </r>
       <r>   11.2751    0.0000 </r>
       <r>   11.7531    0.0000 </r>
       <r>   11.9159    0.0000 </r>
       <r>   11.9729    0.0000 </r>
       <r>   12.3693    0.0000 </r>
       <r>   12.5384    0.0000 </r>
       <r>   13.4566    0.0000 </r>
       <r>   14.2878    0.0000 </r>
       <r>   14.6744    0.0000 </r>
       <r>   16.7447    0.0000 </r>
       <r>   16.7551    0.0000 </r>
      </set>
      <set comment="kpoint 11">
       <r>  -68.6500    1.0000 </r>
       <r>  -68.6443    1.0000 </r>
       <r>  -68.6380    1.0000 </r>
       <r>  -68.6340    1.0000 </r>
       <r>  -68.6174    1.0000 </r>
       <r>  -68.6116    1.0000 </r>
       <r>  -68.6008    1.0000 </r>
       <r>  -68.5945    1.0000 </r>
       <r>  -68.5815    1.0000 </r>
       <r>  -68.5783    1.0000 </r>
       <r>  -68.5659    1.0000 </r>
       <r>  -68.5612    1.0000 </r>
       <r>  -12.6144    1.0000 </r>
       <r>  -11.4211    1.0000 </r>
       <r>  -10.7758    1.0000 </r>
       <r>  -10.6080    1.0000 </r>
       <r>  -10.2465    1.0000 </r>
       <r>  -10.2339    1.0000 </r>
       <r>   -5.8331    1.0000 </r>
       <r>   -5.0448    1.0000 </r>
       <r>   -2.5983    1.0000 </r>
       <r>   -2.3708    1.0000 </r>
       <r>   -1.9604    1.0000 </r>
       <r>   -1.7725    1.0000 </r>
       <r>   -1.4434    1.0000 </r>
       <r>   -1.1271    1.0000 </r>
       <r>   -1.0683    1.0000 </r>
       <r>   -0.7715    1.0000 </r>
       <r>   -0.4721    1.0000 </r>
       <r>   -0.2950    1.0000 </r>
       <r>   -0.2419    1.0000 </r>
       <r>   -0.2364    1.0000 </r>
       <r>   -0.1935    1.0000 </r>
       <r>   -0.1491    1.0000 </r>
       <r>   -0.0211    1.0000 </r>
       <r>    0.0230    1.0000 </r>
       <r>    1.3311    1.0000 </r>
       <r>    1.3802    1.0000 </r>
       <r>    1.4146    1.0000 </r>
       <r>    1.4379    1.0000 </r>
       <r>    1.4634    1.0000 </r>
       <r>    1.4650    1.0000 </r>
       <r>    1.5128    1.0000 </r>
       <r>    1.5436    1.0000 </r>
       <r>    1.6318    1.0000 </r>
       <r>    1.7576    1.0000 </r>
       <r>    1.7868    1.0000 </r>
       <r>    1.9500    1.0000 </r>
       <r>    2.0870    1.0000 </r>
       <r>    2.6600    1.0000 </r>
       <r>    2.7188    1.0000 </r>
       <r>    3.1981    1.0000 </r>
       <r>    3.2534    1.0000 </r>
       <r>    3.5247    1.0000 </r>
       <r>    3.8988    1.0000 </r>
       <r>    3.9787    1.0013 </r>
       <r>    6.0377   -0.0000 </r>
       <r>    6.4088   -0.0000 </r>
       <r>    7.8224    0.0000 </r>
       <r>    7.9086    0.0000 </r>
       <r>    8.3586    0.0000 </r>
       <r>    8.8173    0.0000 </r>
       <r>    9.7735    0.0000 </r>
       <r>    9.7919    0.0000 </r>
       <r>   10.0570    0.0000 </r>
       <r>   10.5867    0.0000 </r>
       <r>   10.6441    0.0000 </r>
       <r>   10.8182    0.0000 </r>
       <r>   10.8534    0.0000 </r>
       <r>   11.4974    0.0000 </r>
       <r>   11.5610    0.0000 </r>
       <r>   12.0284    0.0000 </r>
       <r>   12.5767    0.0000 </r>
       <r>   12.7763    0.0000 </r>
       <r>   12.9188    0.0000 </r>
       <r>   13.2071    0.0000 </r>
       <r>   13.5349    0.0000 </r>
       <r>   13.8263    0.0000 </r>
       <r>   14.1952    0.0000 </r>
       <r>   14.7070    0.0000 </r>
      </set>
      <set comment="kpoint 12">
       <r>  -68.6500    1.0000 </r>
       <r>  -68.6443    1.0000 </r>
       <r>  -68.6380    1.0000 </r>
       <r>  -68.6340    1.0000 </r>
       <r>  -68.6175    1.0000 </r>
       <r>  -68.6116    1.0000 </r>
       <r>  -68.6008    1.0000 </r>
       <r>  -68.5945    1.0000 </r>
       <r>  -68.5815    1.0000 </r>
       <r>  -68.5783    1.0000 </r>
       <r>  -68.5659    1.0000 </r>
       <r>  -68.5612    1.0000 </r>
       <r>  -12.4552    1.0000 </r>
       <r>  -11.4625    1.0000 </r>
       <r>  -10.8627    1.0000 </r>
       <r>  -10.6875    1.0000 </r>
       <r>  -10.3713    1.0000 </r>
       <r>  -10.2414    1.0000 </r>
       <r>   -5.7686    1.0000 </r>
       <r>   -4.8029    1.0000 </r>
       <r>   -2.4435    1.0000 </r>
       <r>   -2.2306    1.0000 </r>
       <r>   -1.8501    1.0000 </r>
       <r>   -1.7128    1.0000 </r>
       <r>   -1.4272    1.0000 </r>
       <r>   -1.1898    1.0000 </r>
       <r>   -0.8917    1.0000 </r>
       <r>   -0.7468    1.0000 </r>
       <r>   -0.6079    1.0000 </r>
       <r>   -0.5239    1.0000 </r>
       <r>   -0.3133    1.0000 </r>
       <r>   -0.2466    1.0000 </r>
       <r>   -0.1773    1.0000 </r>
       <r>   -0.1221    1.0000 </r>
       <r>   -0.0582    1.0000 </r>
       <r>    0.0593    1.0000 </r>
       <r>    1.2995    1.0000 </r>
       <r>    1.3357    1.0000 </r>
       <r>    1.3681    1.0000 </r>
       <r>    1.4282    1.0000 </r>
       <r>    1.4454    1.0000 </r>
       <r>    1.4768    1.0000 </r>
       <r>    1.5204    1.0000 </r>
       <r>    1.5449    1.0000 </r>
       <r>    1.6422    1.0000 </r>
       <r>    1.8706    1.0000 </r>
       <r>    1.9754    1.0000 </r>
       <r>    2.0480    1.0000 </r>
       <r>    2.1931    1.0000 </r>
       <r>    2.4763    1.0000 </r>
       <r>    2.5973    1.0000 </r>
       <r>    2.8402    1.0000 </r>
       <r>    2.9641    1.0000 </r>
       <r>    3.1338    1.0000 </r>
       <r>    3.5696    1.0000 </r>
       <r>    3.7282    1.0000 </r>
       <r>    6.4318   -0.0000 </r>
       <r>    6.9519   -0.0000 </r>
       <r>    8.1674    0.0000 </r>
       <r>    8.2404    0.0000 </r>
       <r>    8.8347    0.0000 </r>
       <r>    9.1246    0.0000 </r>
       <r>    9.4659    0.0000 </r>
       <r>    9.7958    0.0000 </r>
       <r>   10.0859    0.0000 </r>
       <r>   10.2965    0.0000 </r>
       <r>   10.7414    0.0000 </r>
       <r>   11.0839    0.0000 </r>
       <r>   11.2882    0.0000 </r>
       <r>   11.4227    0.0000 </r>
       <r>   11.6326    0.0000 </r>
       <r>   11.7299    0.0000 </r>
       <r>   12.0854    0.0000 </r>
       <r>   12.2648    0.0000 </r>
       <r>   12.5412    0.0000 </r>
       <r>   12.6634    0.0000 </r>
       <r>   12.9545    0.0000 </r>
       <r>   13.0598    0.0000 </r>
       <r>   13.6410    0.0000 </r>
       <r>   14.6892    0.0000 </r>
      </set>
      <set comment="kpoint 13">
       <r>  -68.6498    1.0000 </r>
       <r>  -68.6441    1.0000 </r>
       <r>  -68.6379    1.0000 </r>
       <r>  -68.6339    1.0000 </r>
       <r>  -68.6173    1.0000 </r>
       <r>  -68.6115    1.0000 </r>
       <r>  -68.6007    1.0000 </r>
       <r>  -68.5944    1.0000 </r>
       <r>  -68.5814    1.0000 </r>
       <r>  -68.5782    1.0000 </r>
       <r>  -68.5658    1.0000 </r>
       <r>  -68.5611    1.0000 </r>
       <r>  -12.3528    1.0000 </r>
       <r>  -11.4089    1.0000 </r>
       <r>  -10.9520    1.0000 </r>
       <r>  -10.6823    1.0000 </r>
       <r>  -10.4764    1.0000 </r>
       <r>  -10.3306    1.0000 </r>
       <r>   -5.7542    1.0000 </r>
       <r>   -4.7220    1.0000 </r>
       <r>   -2.5207    1.0000 </r>
       <r>   -2.1850    1.0000 </r>
       <r>   -1.9512    1.0000 </r>
       <r>   -1.5336    1.0000 </r>
       <r>   -1.2981    1.0000 </r>
       <r>   -1.0936    1.0000 </r>
       <r>   -0.8691    1.0000 </r>
       <r>   -0.7568    1.0000 </r>
       <r>   -0.5501    1.0000 </r>
       <r>   -0.4467    1.0000 </r>
       <r>   -0.2916    1.0000 </r>
       <r>   -0.1823    1.0000 </r>
       <r>   -0.1485    1.0000 </r>
       <r>   -0.1066    1.0000 </r>
       <r>   -0.0526    1.0000 </r>
       <r>    0.0218    1.0000 </r>
       <r>    1.2691    1.0000 </r>
       <r>    1.2960    1.0000 </r>
       <r>    1.3500    1.0000 </r>
       <r>    1.4270    1.0000 </r>
       <r>    1.4513    1.0000 </r>
       <r>    1.4777    1.0000 </r>
       <r>    1.4997    1.0000 </r>
       <r>    1.5875    1.0000 </r>
       <r>    1.7181    1.0000 </r>
       <r>    1.9318    1.0000 </r>
       <r>    2.0742    1.0000 </r>
       <r>    2.1458    1.0000 </r>
       <r>    2.2654    1.0000 </r>
       <r>    2.4016    1.0000 </r>
       <r>    2.5686    1.0000 </r>
       <r>    2.5961    1.0000 </r>
       <r>    2.9005    1.0000 </r>
       <r>    3.0120    1.0000 </r>
       <r>    3.3616    1.0000 </r>
       <r>    3.9018    1.0000 </r>
       <r>    6.3566   -0.0000 </r>
       <r>    6.8941   -0.0000 </r>
       <r>    7.5665    0.0000 </r>
       <r>    8.0850    0.0000 </r>
       <r>    8.5471    0.0000 </r>
       <r>    8.7959    0.0000 </r>
       <r>    9.2819    0.0000 </r>
       <r>    9.6237    0.0000 </r>
       <r>    9.9315    0.0000 </r>
       <r>   10.2751    0.0000 </r>
       <r>   10.6588    0.0000 </r>
       <r>   10.9265    0.0000 </r>
       <r>   10.9752    0.0000 </r>
       <r>   11.2784    0.0000 </r>
       <r>   11.5177    0.0000 </r>
       <r>   11.7914    0.0000 </r>
       <r>   12.2476    0.0000 </r>
       <r>   12.5534    0.0000 </r>
       <r>   13.0977    0.0000 </r>
       <r>   13.5185    0.0000 </r>
       <r>   14.2949    0.0000 </r>
       <r>   14.6257    0.0000 </r>
       <r>   15.1230    0.0000 </r>
       <r>   16.2673    0.0000 </r>
      </set>
      <set comment="kpoint 14">
       <r>  -68.6500    1.0000 </r>
       <r>  -68.6443    1.0000 </r>
       <r>  -68.6380    1.0000 </r>
       <r>  -68.6340    1.0000 </r>
       <r>  -68.6174    1.0000 </r>
       <r>  -68.6116    1.0000 </r>
       <r>  -68.6008    1.0000 </r>
       <r>  -68.5945    1.0000 </r>
       <r>  -68.5815    1.0000 </r>
       <r>  -68.5783    1.0000 </r>
       <r>  -68.5659    1.0000 </r>
       <r>  -68.5612    1.0000 </r>
       <r>  -12.5381    1.0000 </r>
       <r>  -11.3327    1.0000 </r>
       <r>  -10.8714    1.0000 </r>
       <r>  -10.6063    1.0000 </r>
       <r>  -10.3948    1.0000 </r>
       <r>  -10.2795    1.0000 </r>
       <r>   -5.8270    1.0000 </r>
       <r>   -4.9739    1.0000 </r>
       <r>   -2.6641    1.0000 </r>
       <r>   -2.4524    1.0000 </r>
       <r>   -2.0370    1.0000 </r>
       <r>   -1.5735    1.0000 </r>
       <r>   -1.1667    1.0000 </r>
       <r>   -0.9835    1.0000 </r>
       <r>   -0.7927    1.0000 </r>
       <r>   -0.6599    1.0000 </r>
       <r>   -0.5168    1.0000 </r>
       <r>   -0.3930    1.0000 </r>
       <r>   -0.2699    1.0000 </r>
       <r>   -0.2573    1.0000 </r>
       <r>   -0.1936    1.0000 </r>
       <r>   -0.1470    1.0000 </r>
       <r>   -0.0499    1.0000 </r>
       <r>    0.0120    1.0000 </r>
       <r>    1.2880    1.0000 </r>
       <r>    1.3096    1.0000 </r>
       <r>    1.3861    1.0000 </r>
       <r>    1.4072    1.0000 </r>
       <r>    1.4325    1.0000 </r>
       <r>    1.4541    1.0000 </r>
       <r>    1.4895    1.0000 </r>
       <r>    1.5636    1.0000 </r>
       <r>    1.6868    1.0000 </r>
       <r>    1.9158    1.0000 </r>
       <r>    1.9843    1.0000 </r>
       <r>    2.1440    1.0000 </r>
       <r>    2.3349    1.0000 </r>
       <r>    2.5630    1.0000 </r>
       <r>    2.6156    1.0000 </r>
       <r>    2.8319    1.0000 </r>
       <r>    2.9735    1.0000 </r>
       <r>    3.2476    1.0000 </r>
       <r>    3.6890    1.0000 </r>
       <r>    3.9480    1.0003 </r>
       <r>    6.1732   -0.0000 </r>
       <r>    6.6336   -0.0000 </r>
       <r>    7.7649    0.0000 </r>
       <r>    7.9709    0.0000 </r>
       <r>    8.2089    0.0000 </r>
       <r>    8.5592    0.0000 </r>
       <r>    9.3712    0.0000 </r>
       <r>    9.5773    0.0000 </r>
       <r>    9.9083    0.0000 </r>
       <r>   10.2526    0.0000 </r>
       <r>   10.5421    0.0000 </r>
       <r>   10.7903    0.0000 </r>
       <r>   10.8407    0.0000 </r>
       <r>   11.0720    0.0000 </r>
       <r>   11.5656    0.0000 </r>
       <r>   12.0227    0.0000 </r>
       <r>   12.5264    0.0000 </r>
       <r>   12.7469    0.0000 </r>
       <r>   12.9612    0.0000 </r>
       <r>   13.3098    0.0000 </r>
       <r>   13.4147    0.0000 </r>
       <r>   13.7411    0.0000 </r>
       <r>   13.8473    0.0000 </r>
       <r>   14.7263    0.0000 </r>
      </set>
      <set comment="kpoint 15">
       <r>  -68.6500    1.0000 </r>
       <r>  -68.6443    1.0000 </r>
       <r>  -68.6380    1.0000 </r>
       <r>  -68.6340    1.0000 </r>
       <r>  -68.6175    1.0000 </r>
       <r>  -68.6116    1.0000 </r>
       <r>  -68.6008    1.0000 </r>
       <r>  -68.5945    1.0000 </r>
       <r>  -68.5815    1.0000 </r>
       <r>  -68.5783    1.0000 </r>
       <r>  -68.5659    1.0000 </r>
       <r>  -68.5612    1.0000 </r>
       <r>  -12.4554    1.0000 </r>
       <r>  -11.4622    1.0000 </r>
       <r>  -10.8625    1.0000 </r>
       <r>  -10.6881    1.0000 </r>
       <r>  -10.3710    1.0000 </r>
       <r>  -10.2413    1.0000 </r>
       <r>   -5.7687    1.0000 </r>
       <r>   -4.8031    1.0000 </r>
       <r>   -2.4430    1.0000 </r>
       <r>   -2.2311    1.0000 </r>
       <r>   -1.8510    1.0000 </r>
       <r>   -1.7121    1.0000 </r>
       <r>   -1.4326    1.0000 </r>
       <r>   -1.1881    1.0000 </r>
       <r>   -0.8902    1.0000 </r>
       <r>   -0.7467    1.0000 </r>
       <r>   -0.6072    1.0000 </r>
       <r>   -0.5236    1.0000 </r>
       <r>   -0.3153    1.0000 </r>
       <r>   -0.2482    1.0000 </r>
       <r>   -0.1744    1.0000 </r>
       <r>   -0.1241    1.0000 </r>
       <r>   -0.0555    1.0000 </r>
       <r>    0.0602    1.0000 </r>
       <r>    1.3008    1.0000 </r>
       <r>    1.3335    1.0000 </r>
       <r>    1.3673    1.0000 </r>
       <r>    1.4309    1.0000 </r>
       <r>    1.4449    1.0000 </r>
       <r>    1.4784    1.0000 </r>
       <r>    1.5190    1.0000 </r>
       <r>    1.5456    1.0000 </r>
       <r>    1.6420    1.0000 </r>
       <r>    1.8724    1.0000 </r>
       <r>    1.9780    1.0000 </r>
       <r>    2.0457    1.0000 </r>
       <r>    2.1926    1.0000 </r>
       <r>    2.4766    1.0000 </r>
       <r>    2.5937    1.0000 </r>
       <r>    2.8406    1.0000 </r>
       <r>    2.9679    1.0000 </r>
       <r>    3.1350    1.0000 </r>
       <r>    3.5692    1.0000 </r>
       <r>    3.7263    1.0000 </r>
       <r>    6.4330   -0.0000 </r>
       <r>    6.9471   -0.0000 </r>
       <r>    8.1656    0.0000 </r>
       <r>    8.2461    0.0000 </r>
       <r>    8.8288    0.0000 </r>
       <r>    9.1273    0.0000 </r>
       <r>    9.4662    0.0000 </r>
       <r>    9.7900    0.0000 </r>
       <r>   10.0836    0.0000 </r>
       <r>   10.3011    0.0000 </r>
       <r>   10.7425    0.0000 </r>
       <r>   11.0789    0.0000 </r>
       <r>   11.2947    0.0000 </r>
       <r>   11.4236    0.0000 </r>
       <r>   11.6334    0.0000 </r>
       <r>   11.7268    0.0000 </r>
       <r>   12.0850    0.0000 </r>
       <r>   12.2666    0.0000 </r>
       <r>   12.5429    0.0000 </r>
       <r>   12.6599    0.0000 </r>
       <r>   12.9548    0.0000 </r>
       <r>   13.0568    0.0000 </r>
       <r>   13.6573    0.0000 </r>
       <r>   14.6996    0.0000 </r>
      </set>
      <set comment="kpoint 16">
       <r>  -68.6499    1.0000 </r>
       <r>  -68.6442    1.0000 </r>
       <r>  -68.6379    1.0000 </r>
       <r>  -68.6338    1.0000 </r>
       <r>  -68.6173    1.0000 </r>
       <r>  -68.6115    1.0000 </r>
       <r>  -68.6007    1.0000 </r>
       <r>  -68.5944    1.0000 </r>
       <r>  -68.5814    1.0000 </r>
       <r>  -68.5781    1.0000 </r>
       <r>  -68.5658    1.0000 </r>
       <r>  -68.5611    1.0000 </r>
       <r>  -12.3236    1.0000 </r>
       <r>  -11.4703    1.0000 </r>
       <r>  -10.8638    1.0000 </r>
       <r>  -10.8529    1.0000 </r>
       <r>  -10.4070    1.0000 </r>
       <r>  -10.2815    1.0000 </r>
       <r>   -5.7501    1.0000 </r>
       <r>   -4.6918    1.0000 </r>
       <r>   -2.2392    1.0000 </r>
       <r>   -2.1365    1.0000 </r>
       <r>   -1.9280    1.0000 </r>
       <r>   -1.8496    1.0000 </r>
       <r>   -1.4520    1.0000 </r>
       <r>   -1.3971    1.0000 </r>
       <r>   -1.0374    1.0000 </r>
       <r>   -0.5211    1.0000 </r>
       <r>   -0.4613    1.0000 </r>
       <r>   -0.3497    1.0000 </r>
       <r>   -0.2527    1.0000 </r>
       <r>   -0.2206    1.0000 </r>
       <r>   -0.1634    1.0000 </r>
       <r>   -0.1139    1.0000 </r>
       <r>   -0.0926    1.0000 </r>
       <r>    0.0783    1.0000 </r>
       <r>    1.2604    1.0000 </r>
       <r>    1.3455    1.0000 </r>
       <r>    1.3951    1.0000 </r>
       <r>    1.4336    1.0000 </r>
       <r>    1.4511    1.0000 </r>
       <r>    1.5085    1.0000 </r>
       <r>    1.5344    1.0000 </r>
       <r>    1.5434    1.0000 </r>
       <r>    1.7525    1.0000 </r>
       <r>    1.8173    1.0000 </r>
       <r>    2.0389    1.0000 </r>
       <r>    2.1331    1.0000 </r>
       <r>    2.2856    1.0000 </r>
       <r>    2.3085    1.0000 </r>
       <r>    2.5230    1.0000 </r>
       <r>    2.7691    1.0000 </r>
       <r>    2.9012    1.0000 </r>
       <r>    3.2652    1.0000 </r>
       <r>    3.4963    1.0000 </r>
       <r>    3.8039    1.0000 </r>
       <r>    6.1736   -0.0000 </r>
       <r>    6.8344   -0.0000 </r>
       <r>    7.8261    0.0000 </r>
       <r>    8.0419    0.0000 </r>
       <r>    8.1828    0.0000 </r>
       <r>    8.7225    0.0000 </r>
       <r>    9.1544    0.0000 </r>
       <r>    9.3016    0.0000 </r>
       <r>   10.2225    0.0000 </r>
       <r>   10.4445    0.0000 </r>
       <r>   10.5908    0.0000 </r>
       <r>   11.0070    0.0000 </r>
       <r>   11.2404    0.0000 </r>
       <r>   11.4880    0.0000 </r>
       <r>   11.8147    0.0000 </r>
       <r>   12.1719    0.0000 </r>
       <r>   12.2088    0.0000 </r>
       <r>   12.5770    0.0000 </r>
       <r>   12.6916    0.0000 </r>
       <r>   13.1097    0.0000 </r>
       <r>   13.4190    0.0000 </r>
       <r>   13.8818    0.0000 </r>
       <r>   14.0037    0.0000 </r>
       <r>   14.5220    0.0000 </r>
      </set>
      <set comment="kpoint 17">
       <r>  -68.6498    1.0000 </r>
       <r>  -68.6440    1.0000 </r>
       <r>  -68.6380    1.0000 </r>
       <r>  -68.6339    1.0000 </r>
       <r>  -68.6173    1.0000 </r>
       <r>  -68.6115    1.0000 </r>
       <r>  -68.6007    1.0000 </r>
       <r>  -68.5944    1.0000 </r>
       <r>  -68.5814    1.0000 </r>
       <r>  -68.5782    1.0000 </r>
       <r>  -68.5657    1.0000 </r>
       <r>  -68.5611    1.0000 </r>
       <r>  -12.3706    1.0000 </r>
       <r>  -11.4677    1.0000 </r>
       <r>  -10.9353    1.0000 </r>
       <r>  -10.6534    1.0000 </r>
       <r>  -10.4154    1.0000 </r>
       <r>  -10.3019    1.0000 </r>
       <r>   -5.8023    1.0000 </r>
       <r>   -4.8372    1.0000 </r>
       <r>   -2.5254    1.0000 </r>
       <r>   -2.2429    1.0000 </r>
       <r>   -1.8711    1.0000 </r>
       <r>   -1.6411    1.0000 </r>
       <r>   -1.5002    1.0000 </r>
       <r>   -1.3068    1.0000 </r>
       <r>   -0.9004    1.0000 </r>
       <r>   -0.5339    1.0000 </r>
       <r>   -0.3801    1.0000 </r>
       <r>   -0.3502    1.0000 </r>
       <r>   -0.2251    1.0000 </r>
       <r>   -0.1807    1.0000 </r>
       <r>   -0.1607    1.0000 </r>
       <r>   -0.0787    1.0000 </r>
       <r>   -0.0325    1.0000 </r>
       <r>    0.0762    1.0000 </r>
       <r>    1.1885    1.0000 </r>
       <r>    1.3619    1.0000 </r>
       <r>    1.3954    1.0000 </r>
       <r>    1.4401    1.0000 </r>
       <r>    1.4613    1.0000 </r>
       <r>    1.5049    1.0000 </r>
       <r>    1.5168    1.0000 </r>
       <r>    1.5828    1.0000 </r>
       <r>    1.7391    1.0000 </r>
       <r>    1.8153    1.0000 </r>
       <r>    2.0376    1.0000 </r>
       <r>    2.2348    1.0000 </r>
       <r>    2.2671    1.0000 </r>
       <r>    2.3612    1.0000 </r>
       <r>    2.4869    1.0000 </r>
       <r>    2.6728    1.0000 </r>
       <r>    3.0523    1.0000 </r>
       <r>    3.4120    1.0000 </r>
       <r>    3.7335    1.0000 </r>
       <r>    3.8700    1.0000 </r>
       <r>    5.9242   -0.0000 </r>
       <r>    6.6095   -0.0000 </r>
       <r>    7.3496    0.0000 </r>
       <r>    7.9378    0.0000 </r>
       <r>    8.0648    0.0000 </r>
       <r>    8.7193    0.0000 </r>
       <r>    8.9042    0.0000 </r>
       <r>    9.1361    0.0000 </r>
       <r>    9.8452    0.0000 </r>
       <r>   10.3242    0.0000 </r>
       <r>   10.5561    0.0000 </r>
       <r>   10.9294    0.0000 </r>
       <r>   11.2250    0.0000 </r>
       <r>   11.4132    0.0000 </r>
       <r>   11.7562    0.0000 </r>
       <r>   12.0039    0.0000 </r>
       <r>   12.4953    0.0000 </r>
       <r>   12.8330    0.0000 </r>
       <r>   13.2046    0.0000 </r>
       <r>   14.0970    0.0000 </r>
       <r>   14.7133    0.0000 </r>
       <r>   15.0537    0.0000 </r>
       <r>   15.9204    0.0000 </r>
       <r>   16.5653    0.0000 </r>
      </set>
      <set comment="kpoint 18">
       <r>  -68.6499    1.0000 </r>
       <r>  -68.6443    1.0000 </r>
       <r>  -68.6381    1.0000 </r>
       <r>  -68.6340    1.0000 </r>
       <r>  -68.6174    1.0000 </r>
       <r>  -68.6115    1.0000 </r>
       <r>  -68.6009    1.0000 </r>
       <r>  -68.5946    1.0000 </r>
       <r>  -68.5815    1.0000 </r>
       <r>  -68.5782    1.0000 </r>
       <r>  -68.5659    1.0000 </r>
       <r>  -68.5611    1.0000 </r>
       <r>  -12.4968    1.0000 </r>
       <r>  -11.4196    1.0000 </r>
       <r>  -10.9470    1.0000 </r>
       <r>  -10.5812    1.0000 </r>
       <r>  -10.3705    1.0000 </r>
       <r>  -10.2052    1.0000 </r>
       <r>   -5.8299    1.0000 </r>
       <r>   -4.9401    1.0000 </r>
       <r>   -2.5709    1.0000 </r>
       <r>   -2.3627    1.0000 </r>
       <r>   -1.9179    1.0000 </r>
       <r>   -1.5939    1.0000 </r>
       <r>   -1.4155    1.0000 </r>
       <r>   -1.1181    1.0000 </r>
       <r>   -0.8144    1.0000 </r>
       <r>   -0.6754    1.0000 </r>
       <r>   -0.5372    1.0000 </r>
       <r>   -0.4710    1.0000 </r>
       <r>   -0.2553    1.0000 </r>
       <r>   -0.2008    1.0000 </r>
       <r>   -0.1721    1.0000 </r>
       <r>   -0.1191    1.0000 </r>
       <r>   -0.0380    1.0000 </r>
       <r>    0.0572    1.0000 </r>
       <r>    1.2794    1.0000 </r>
       <r>    1.3228    1.0000 </r>
       <r>    1.3438    1.0000 </r>
       <r>    1.4322    1.0000 </r>
       <r>    1.4498    1.0000 </r>
       <r>    1.4661    1.0000 </r>
       <r>    1.4911    1.0000 </r>
       <r>    1.5553    1.0000 </r>
       <r>    1.7261    1.0000 </r>
       <r>    1.8409    1.0000 </r>
       <r>    1.9691    1.0000 </r>
       <r>    2.0965    1.0000 </r>
       <r>    2.3348    1.0000 </r>
       <r>    2.4499    1.0000 </r>
       <r>    2.5425    1.0000 </r>
       <r>    2.8500    1.0000 </r>
       <r>    3.0540    1.0000 </r>
       <r>    3.2648    1.0000 </r>
       <r>    3.6775    1.0000 </r>
       <r>    3.7849    1.0000 </r>
       <r>    6.2546   -0.0000 </r>
       <r>    6.7938   -0.0000 </r>
       <r>    7.8113    0.0000 </r>
       <r>    8.1349    0.0000 </r>
       <r>    8.3345    0.0000 </r>
       <r>    8.9283    0.0000 </r>
       <r>    9.3310    0.0000 </r>
[...]
       <r>   11.7113    0.0000 </r>
       <r>   11.8950    0.0000 </r>
       <r>   12.3012    0.0000 </r>
       <r>   12.6615    0.0000 </r>
       <r>   13.0115    0.0000 </r>
       <r>   13.2293    0.0000 </r>
       <r>   13.6607    0.0000 </r>
       <r>   14.0625    0.0000 </r>
       <r>   14.3891    0.0000 </r>
       <r>   16.5179    0.0000 </r>
      </set>
      <set comment="kpoint 42">
       <r>  -68.6499    1.0000 </r>
       <r>  -68.6442    1.0000 </r>
       <r>  -68.6378    1.0000 </r>
       <r>  -68.6338    1.0000 </r>
       <r>  -68.6173    1.0000 </r>
       <r>  -68.6115    1.0000 </r>
       <r>  -68.6006    1.0000 </r>
       <r>  -68.5943    1.0000 </r>
       <r>  -68.5814    1.0000 </r>
       <r>  -68.5782    1.0000 </r>
       <r>  -68.5658    1.0000 </r>
       <r>  -68.5612    1.0000 </r>
       <r>  -12.1752    1.0000 </r>
       <r>  -11.7028    1.0000 </r>
       <r>  -10.7147    1.0000 </r>
       <r>  -10.6893    1.0000 </r>
       <r>  -10.5857    1.0000 </r>
       <r>  -10.3881    1.0000 </r>
       <r>   -5.4484    1.0000 </r>
       <r>   -5.0728    1.0000 </r>
       <r>   -2.5073    1.0000 </r>
       <r>   -2.3791    1.0000 </r>
       <r>   -1.9625    1.0000 </r>
       <r>   -1.3688    1.0000 </r>
       <r>   -1.3310    1.0000 </r>
       <r>   -1.0503    1.0000 </r>
       <r>   -0.8305    1.0000 </r>
       <r>   -0.7599    1.0000 </r>
       <r>   -0.4251    1.0000 </r>
       <r>   -0.3410    1.0000 </r>
       <r>   -0.2728    1.0000 </r>
       <r>   -0.2125    1.0000 </r>
       <r>   -0.1454    1.0000 </r>
       <r>   -0.1417    1.0000 </r>
       <r>   -0.0155    1.0000 </r>
       <r>    0.0257    1.0000 </r>
       <r>    1.1711    1.0000 </r>
       <r>    1.3696    1.0000 </r>
       <r>    1.3957    1.0000 </r>
       <r>    1.4512    1.0000 </r>
       <r>    1.4521    1.0000 </r>
       <r>    1.4971    1.0000 </r>
       <r>    1.5151    1.0000 </r>
       <r>    1.5475    1.0000 </r>
       <r>    1.7442    1.0000 </r>
       <r>    1.8212    1.0000 </r>
       <r>    1.9729    1.0000 </r>
       <r>    2.2275    1.0000 </r>
       <r>    2.3961    1.0000 </r>
       <r>    2.6111    1.0000 </r>
       <r>    2.6575    1.0000 </r>
       <r>    2.9155    1.0000 </r>
       <r>    3.0693    1.0000 </r>
       <r>    3.1165    1.0000 </r>
       <r>    3.2915    1.0000 </r>
       <r>    3.5848    1.0000 </r>
       <r>    6.2847   -0.0000 </r>
       <r>    6.3723   -0.0000 </r>
       <r>    7.3536    0.0000 </r>
       <r>    7.5201    0.0000 </r>
       <r>    8.3017    0.0000 </r>
       <r>    8.3316    0.0000 </r>
       <r>    9.1034    0.0000 </r>
       <r>    9.3603    0.0000 </r>
       <r>    9.7192    0.0000 </r>
       <r>    9.9434    0.0000 </r>
       <r>   10.5235    0.0000 </r>
       <r>   10.9897    0.0000 </r>
       <r>   11.4291    0.0000 </r>
       <r>   11.5644    0.0000 </r>
       <r>   12.0157    0.0000 </r>
       <r>   12.2818    0.0000 </r>
       <r>   12.4296    0.0000 </r>
       <r>   12.4801    0.0000 </r>
       <r>   13.0361    0.0000 </r>
       <r>   13.1565    0.0000 </r>
       <r>   14.1419    0.0000 </r>
       <r>   14.4324    0.0000 </r>
       <r>   15.1658    0.0000 </r>
       <r>   15.8632    0.0000 </r>
      </set>
     </set>
    </set>
   </array>
  </eigenvalues>
  <separator name="orbital magnetization" >
   <v name="MAGDIPOLOUT">      0.00000000      0.00000000      0.00000000</v>
  </separator>
  <dos>
   <i name="efermi">      4.22565382 </i>
   <total>
    <array>
     <dimension dim="1">gridpoints</dimension>
     <dimension dim="2">spin</dimension>
     <field>energy</field>
     <field>total</field>
     <field>integrated</field>
     <set>
      <set comment="spin 1">
       <r>   -72.8301     0.0000     0.0000 </r>
       <r>   -72.5238     0.0000     0.0000 </r>
       <r>   -72.2174     0.0000     0.0000 </r>
       <r>   -71.9110     0.0000     0.0000 </r>
       <r>   -71.6046     0.0000     0.0000 </r>
       <r>   -71.2982     0.0000     0.0000 </r>
       <r>   -70.9918     0.0000     0.0000 </r>
       <r>   -70.6855     0.0000     0.0000 </r>
       <r>   -70.3791     0.0000     0.0000 </r>
       <r>   -70.0727     0.0000     0.0000 </r>
       <r>   -69.7663     0.0000     0.0000 </r>
       <r>   -69.4599    -0.0000    -0.0000 </r>
       <r>   -69.1536    -0.0000    -0.0000 </r>
       <r>   -68.8472    -0.2326    -0.0713 </r>
       <r>   -68.5408    70.9335    21.6614 </r>
       <r>   -68.2344     7.6333    24.0001 </r>
       <r>   -67.9280    -0.0003    24.0000 </r>
       <r>   -67.6217     0.0000    24.0000 </r>
       <r>   -67.3153     0.0000    24.0000 </r>
       <r>   -67.0089     0.0000    24.0000 </r>
       <r>   -66.7025     0.0000    24.0000 </r>
       <r>   -66.3961     0.0000    24.0000 </r>
       <r>   -66.0898     0.0000    24.0000 </r>
       <r>   -65.7834     0.0000    24.0000 </r>
       <r>   -65.4770     0.0000    24.0000 </r>
       <r>   -65.1706     0.0000    24.0000 </r>
       <r>   -64.8642     0.0000    24.0000 </r>
       <r>   -64.5578     0.0000    24.0000 </r>
       <r>   -64.2515     0.0000    24.0000 </r>
       <r>   -63.9451     0.0000    24.0000 </r>
       <r>   -63.6387     0.0000    24.0000 </r>
       <r>   -63.3323     0.0000    24.0000 </r>
       <r>   -63.0259     0.0000    24.0000 </r>
       <r>   -62.7196     0.0000    24.0000 </r>
       <r>   -62.4132     0.0000    24.0000 </r>
       <r>   -62.1068     0.0000    24.0000 </r>
       <r>   -61.8004     0.0000    24.0000 </r>
       <r>   -61.4940     0.0000    24.0000 </r>
       <r>   -61.1877     0.0000    24.0000 </r>
       <r>   -60.8813     0.0000    24.0000 </r>
       <r>   -60.5749     0.0000    24.0000 </r>
       <r>   -60.2685     0.0000    24.0000 </r>
       <r>   -59.9621     0.0000    24.0000 </r>
       <r>   -59.6557     0.0000    24.0000 </r>
       <r>   -59.3494     0.0000    24.0000 </r>
       <r>   -59.0430     0.0000    24.0000 </r>
       <r>   -58.7366     0.0000    24.0000 </r>
       <r>   -58.4302     0.0000    24.0000 </r>
       <r>   -58.1238     0.0000    24.0000 </r>
       <r>   -57.8175     0.0000    24.0000 </r>
       <r>   -57.5111     0.0000    24.0000 </r>
       <r>   -57.2047     0.0000    24.0000 </r>
       <r>   -56.8983     0.0000    24.0000 </r>
       <r>   -56.5919     0.0000    24.0000 </r>
       <r>   -56.2856     0.0000    24.0000 </r>
       <r>   -55.9792     0.0000    24.0000 </r>
       <r>   -55.6728     0.0000    24.0000 </r>
       <r>   -55.3664     0.0000    24.0000 </r>
       <r>   -55.0600     0.0000    24.0000 </r>
       <r>   -54.7537     0.0000    24.0000 </r>
       <r>   -54.4473     0.0000    24.0000 </r>
       <r>   -54.1409     0.0000    24.0000 </r>
       <r>   -53.8345     0.0000    24.0000 </r>
       <r>   -53.5281     0.0000    24.0000 </r>
       <r>   -53.2217     0.0000    24.0000 </r>
       <r>   -52.9154     0.0000    24.0000 </r>
       <r>   -52.6090     0.0000    24.0000 </r>
       <r>   -52.3026     0.0000    24.0000 </r>
       <r>   -51.9962     0.0000    24.0000 </r>
       <r>   -51.6898     0.0000    24.0000 </r>
       <r>   -51.3835     0.0000    24.0000 </r>
       <r>   -51.0771     0.0000    24.0000 </r>
       <r>   -50.7707     0.0000    24.0000 </r>
       <r>   -50.4643     0.0000    24.0000 </r>
       <r>   -50.1579     0.0000    24.0000 </r>
       <r>   -49.8516     0.0000    24.0000 </r>
       <r>   -49.5452     0.0000    24.0000 </r>
       <r>   -49.2388     0.0000    24.0000 </r>
       <r>   -48.9324     0.0000    24.0000 </r>
       <r>   -48.6260     0.0000    24.0000 </r>
       <r>   -48.3197     0.0000    24.0000 </r>
       <r>   -48.0133     0.0000    24.0000 </r>
       <r>   -47.7069     0.0000    24.0000 </r>
       <r>   -47.4005     0.0000    24.0000 </r>
       <r>   -47.0941     0.0000    24.0000 </r>
       <r>   -46.7877     0.0000    24.0000 </r>
       <r>   -46.4814     0.0000    24.0000 </r>
       <r>   -46.1750     0.0000    24.0000 </r>
       <r>   -45.8686     0.0000    24.0000 </r>
       <r>   -45.5622     0.0000    24.0000 </r>
       <r>   -45.2558     0.0000    24.0000 </r>
       <r>   -44.9495     0.0000    24.0000 </r>
       <r>   -44.6431     0.0000    24.0000 </r>
       <r>   -44.3367     0.0000    24.0000 </r>
       <r>   -44.0303     0.0000    24.0000 </r>
       <r>   -43.7239     0.0000    24.0000 </r>
       <r>   -43.4176     0.0000    24.0000 </r>
       <r>   -43.1112     0.0000    24.0000 </r>
       <r>   -42.8048     0.0000    24.0000 </r>
       <r>   -42.4984     0.0000    24.0000 </r>
       <r>   -42.1920     0.0000    24.0000 </r>
       <r>   -41.8856     0.0000    24.0000 </r>
       <r>   -41.5793     0.0000    24.0000 </r>
       <r>   -41.2729     0.0000    24.0000 </r>
       <r>   -40.9665     0.0000    24.0000 </r>
       <r>   -40.6601     0.0000    24.0000 </r>
       <r>   -40.3537     0.0000    24.0000 </r>
       <r>   -40.0474     0.0000    24.0000 </r>
       <r>   -39.7410     0.0000    24.0000 </r>
       <r>   -39.4346     0.0000    24.0000 </r>
       <r>   -39.1282     0.0000    24.0000 </r>
       <r>   -38.8218     0.0000    24.0000 </r>
       <r>   -38.5155     0.0000    24.0000 </r>
       <r>   -38.2091     0.0000    24.0000 </r>
       <r>   -37.9027     0.0000    24.0000 </r>
       <r>   -37.5963     0.0000    24.0000 </r>
       <r>   -37.2899     0.0000    24.0000 </r>
       <r>   -36.9836     0.0000    24.0000 </r>
       <r>   -36.6772     0.0000    24.0000 </r>
       <r>   -36.3708     0.0000    24.0000 </r>
       <r>   -36.0644     0.0000    24.0000 </r>
       <r>   -35.7580     0.0000    24.0000 </r>
       <r>   -35.4516     0.0000    24.0000 </r>
       <r>   -35.1453     0.0000    24.0000 </r>
       <r>   -34.8389     0.0000    24.0000 </r>
       <r>   -34.5325     0.0000    24.0000 </r>
       <r>   -34.2261     0.0000    24.0000 </r>
       <r>   -33.9197     0.0000    24.0000 </r>
       <r>   -33.6134     0.0000    24.0000 </r>
       <r>   -33.3070     0.0000    24.0000 </r>
       <r>   -33.0006     0.0000    24.0000 </r>
       <r>   -32.6942     0.0000    24.0000 </r>
       <r>   -32.3878     0.0000    24.0000 </r>
       <r>   -32.0815     0.0000    24.0000 </r>
       <r>   -31.7751     0.0000    24.0000 </r>
       <r>   -31.4687     0.0000    24.0000 </r>
       <r>   -31.1623     0.0000    24.0000 </r>
       <r>   -30.8559     0.0000    24.0000 </r>
       <r>   -30.5496     0.0000    24.0000 </r>
       <r>   -30.2432     0.0000    24.0000 </r>
       <r>   -29.9368     0.0000    24.0000 </r>
       <r>   -29.6304     0.0000    24.0000 </r>
       <r>   -29.3240     0.0000    24.0000 </r>
       <r>   -29.0176     0.0000    24.0000 </r>
       <r>   -28.7113     0.0000    24.0000 </r>
       <r>   -28.4049     0.0000    24.0000 </r>
       <r>   -28.0985     0.0000    24.0000 </r>
       <r>   -27.7921     0.0000    24.0000 </r>
       <r>   -27.4857     0.0000    24.0000 </r>
       <r>   -27.1794     0.0000    24.0000 </r>
       <r>   -26.8730     0.0000    24.0000 </r>
       <r>   -26.5666     0.0000    24.0000 </r>
       <r>   -26.2602     0.0000    24.0000 </r>
       <r>   -25.9538     0.0000    24.0000 </r>
       <r>   -25.6475     0.0000    24.0000 </r>
       <r>   -25.3411     0.0000    24.0000 </r>
       <r>   -25.0347     0.0000    24.0000 </r>
       <r>   -24.7283     0.0000    24.0000 </r>
       <r>   -24.4219     0.0000    24.0000 </r>
       <r>   -24.1155     0.0000    24.0000 </r>
       <r>   -23.8092     0.0000    24.0000 </r>
       <r>   -23.5028     0.0000    24.0000 </r>
       <r>   -23.1964     0.0000    24.0000 </r>
       <r>   -22.8900     0.0000    24.0000 </r>
       <r>   -22.5836     0.0000    24.0000 </r>
       <r>   -22.2773     0.0000    24.0000 </r>
       <r>   -21.9709     0.0000    24.0000 </r>
       <r>   -21.6645     0.0000    24.0000 </r>
       <r>   -21.3581     0.0000    24.0000 </r>
       <r>   -21.0517     0.0000    24.0000 </r>
       <r>   -20.7454     0.0000    24.0000 </r>
       <r>   -20.4390     0.0000    24.0000 </r>
       <r>   -20.1326     0.0000    24.0000 </r>
       <r>   -19.8262     0.0000    24.0000 </r>
       <r>   -19.5198     0.0000    24.0000 </r>
       <r>   -19.2135     0.0000    24.0000 </r>
       <r>   -18.9071     0.0000    24.0000 </r>
       <r>   -18.6007     0.0000    24.0000 </r>
       <r>   -18.2943     0.0000    24.0000 </r>
       <r>   -17.9879     0.0000    24.0000 </r>
       <r>   -17.6815     0.0000    24.0000 </r>
       <r>   -17.3752     0.0000    24.0000 </r>
       <r>   -17.0688     0.0000    24.0000 </r>
       <r>   -16.7624     0.0000    24.0000 </r>
       <r>   -16.4560     0.0000    24.0000 </r>
       <r>   -16.1496     0.0000    24.0000 </r>
       <r>   -15.8433     0.0000    24.0000 </r>
       <r>   -15.5369     0.0000    24.0000 </r>
       <r>   -15.2305     0.0000    24.0000 </r>
       <r>   -14.9241     0.0000    24.0000 </r>
       <r>   -14.6177     0.0000    24.0000 </r>
       <r>   -14.3114     0.0000    24.0000 </r>
       <r>   -14.0050     0.0000    24.0000 </r>
       <r>   -13.6986    -0.0000    24.0000 </r>
       <r>   -13.3922    -0.0000    24.0000 </r>
       <r>   -13.0858    -0.0000    24.0000 </r>
       <r>   -12.7795    -0.0042    23.9987 </r>
       <r>   -12.4731     1.5106    24.4615 </r>
       <r>   -12.1667     3.5706    25.5555 </r>
       <r>   -11.8603     1.9152    26.1423 </r>
       <r>   -11.5539     2.1620    26.8046 </r>
       <r>   -11.2475     3.1790    27.7786 </r>
       <r>   -10.9412     2.5285    28.5533 </r>
       <r>   -10.6348     9.2998    31.4026 </r>
       <r>   -10.3284     9.2626    34.2405 </r>
       <r>   -10.0220     5.7626    36.0060 </r>
       <r>    -9.7156    -0.0197    36.0000 </r>
       <r>    -9.4093    -0.0000    36.0000 </r>
       <r>    -9.1029     0.0000    36.0000 </r>
       <r>    -8.7965     0.0000    36.0000 </r>
       <r>    -8.4901     0.0000    36.0000 </r>
       <r>    -8.1837     0.0000    36.0000 </r>
       <r>    -7.8774     0.0000    36.0000 </r>
       <r>    -7.5710     0.0000    36.0000 </r>
       <r>    -7.2646     0.0000    36.0000 </r>
       <r>    -6.9582    -0.0000    36.0000 </r>
       <r>    -6.6518    -0.0000    36.0000 </r>
       <r>    -6.3454    -0.0000    36.0000 </r>
       <r>    -6.0391     0.0612    36.0188 </r>
       <r>    -5.7327     3.5148    37.0956 </r>
       <r>    -5.4263     2.0548    37.7252 </r>
       <r>    -5.1199     1.8533    38.2930 </r>
       <r>    -4.8135     3.2896    39.3009 </r>
       <r>    -4.5072     2.2143    39.9793 </r>
       <r>    -4.2008     0.0675    40.0000 </r>
       <r>    -3.8944    -0.0000    40.0000 </r>
       <r>    -3.5880    -0.0000    40.0000 </r>
       <r>    -3.2816    -0.0000    40.0000 </r>
       <r>    -2.9753    -0.0004    39.9999 </r>
       <r>    -2.6689     0.3676    40.1125 </r>
       <r>    -2.3625     6.1240    41.9888 </r>
       <r>    -2.0561     6.6954    44.0401 </r>
       <r>    -1.7497     7.3659    46.2969 </r>
       <r>    -1.4434     6.4115    48.2613 </r>
       <r>    -1.1370     8.7057    50.9285 </r>
       <r>    -0.8306     9.0994    53.7164 </r>
       <r>    -0.5242    11.4428    57.2223 </r>
       <r>    -0.2178    18.3819    62.8541 </r>
       <r>     0.0886    28.7782    71.6712 </r>
       <r>     0.3949     1.0737    72.0002 </r>
       <r>     0.7013    -0.0006    72.0000 </r>
       <r>     1.0077    -0.0212    71.9935 </r>
       <r>     1.3141     7.6091    74.3248 </r>
       <r>     1.6205    44.6930    88.0179 </r>
       <r>     1.9268    13.7991    92.2457 </r>
       <r>     2.2332    13.1424    96.2722 </r>
       <r>     2.5396    12.8098   100.1969 </r>
       <r>     2.8460    11.1702   103.6193 </r>
       <r>     3.1524     9.0582   106.3945 </r>
       <r>     3.4587     7.8936   108.8130 </r>
       <r>     3.7651     6.9374   110.9385 </r>
       <r>     4.0715     3.1991   111.9186 </r>
       <r>     4.3779     0.2663   112.0002 </r>
       <r>     4.6843    -0.0006   112.0000 </r>
       <r>     4.9907    -0.0000   112.0000 </r>
       <r>     5.2970    -0.0002   111.9999 </r>
       <r>     5.6034     0.0789   112.0241 </r>
       <r>     5.9098     0.1917   112.0828 </r>
       <r>     6.2162     2.6894   112.9068 </r>
       <r>     6.5226     4.4243   114.2623 </r>
       <r>     6.8289     3.3730   115.2958 </r>
       <r>     7.1353     2.3799   116.0249 </r>
       <r>     7.4417     1.4484   116.4687 </r>
       <r>     7.7481     3.1987   117.4487 </r>
       <r>     8.0545     5.5915   119.1618 </r>
       <r>     8.3608     5.5679   120.8677 </r>
       <r>     8.6672     4.5666   122.2669 </r>
       <r>     8.9736     4.4168   123.6201 </r>
       <r>     9.2800     5.6493   125.3509 </r>
       <r>     9.5864     5.6534   127.0830 </r>
       <r>     9.8927     4.7666   128.5434 </r>
       <r>    10.1991     4.4555   129.9084 </r>
       <r>    10.5055     6.5208   131.9063 </r>
       <r>    10.8119     8.2192   134.4245 </r>
       <r>    11.1183     8.2600   136.9552 </r>
       <r>    11.4247     7.9816   139.4006 </r>
       <r>    11.7310     7.8869   141.8170 </r>
       <r>    12.0374     6.6123   143.8429 </r>
       <r>    12.3438     5.8892   145.6473 </r>
       <r>    12.6502     6.6460   147.6835 </r>
       <r>    12.9566     5.7394   149.4419 </r>
       <r>    13.2629     6.2111   151.3449 </r>
       <r>    13.5693     5.3708   152.9904 </r>
       <r>    13.8757     4.0602   154.2344 </r>
       <r>    14.1821     3.2999   155.2454 </r>
       <r>    14.4885     4.4567   156.6108 </r>
       <r>    14.7948     3.5353   157.6940 </r>
       <r>    15.1012     1.4999   158.1535 </r>
       <r>    15.4076     1.4626   158.6016 </r>
       <r>    15.7140     1.2080   158.9717 </r>
       <r>    16.0204     1.6959   159.4913 </r>
       <r>    16.3267     0.3321   159.5930 </r>
       <r>    16.6331     0.6838   159.8025 </r>
       <r>    16.9395     0.5309   159.9652 </r>
       <r>    17.2459     0.1137   160.0000 </r>
       <r>    17.5523    -0.0000   160.0000 </r>
       <r>    17.8587     0.0000   160.0000 </r>
       <r>    18.1650     0.0000   160.0000 </r>
       <r>    18.4714     0.0000   160.0000 </r>
       <r>    18.7778     0.0000   160.0000 </r>
       <r>    19.0842     0.0000   160.0000 </r>
      </set>
     </set>
    </array>
   </total>
  </dos>
 </calculation>
 <structure name="finalpos" >
  <crystal>
   <varray name="basis" >
    <v>       3.22479600      -5.64383000       0.03157200 </v>
    <v>       3.22479600       5.64383000       0.03157200 </v>
    <v>      -2.10194600       0.00000000       6.07553700 </v>
   </varray>
   <i name="volume">    221.90106089 </i>
   <varray name="rec_basis" >
    <v>       0.15452516      -0.08859232       0.05346088 </v>
    <v>       0.15452516       0.08859232       0.05346088 </v>
    <v>      -0.00160600       0.00000000       0.16403888 </v>
   </varray>
  </crystal>
  <varray name="positions" >
   <v>       0.61844300       0.12117100       0.11953300 </v>
   <v>       0.12117100       0.61844300       0.61953300 </v>
   <v>       0.96295700       0.79032200       0.11881300 </v>
   <v>       0.79032200       0.96295700       0.61881300 </v>
   <v>       0.43973200       0.26728100       0.59904700 </v>
   <v>       0.26728100       0.43973200       0.09904700 </v>
   <v>       0.07949800       0.91167500       0.49736300 </v>
   <v>       0.57140300       0.41236400       0.98018400 </v>
   <v>       0.73864940       0.25006200       0.49504900 </v>
   <v>       0.41236400       0.57140300       0.48018400 </v>
   <v>       0.91167500       0.07949800       0.99736300 </v>
   <v>       0.25006200       0.73711100       0.99504900 </v>
  </varray>
 </structure>
</modeling>
