<?xml version="1.0" encoding="ISO-8859-1"?>
<modeling>
 <generator>
  <i name="program" type="string">vasp </i>
  <i name="version" type="string">5.3.3  </i>
  <i name="subversion" type="string">18Dez12 (build Nov 13 2015 09:58:40) complex                          parallel </i>
  <i name="platform" type="string">LinuxIFC </i>
  <i name="date" type="string">2017 10 18 </i>
  <i name="time" type="string">13:12:29 </i>
 </generator>
 <incar>
  <i type="string" name="SYSTEM"> CGS</i>
  <i type="string" name="PREC">normal</i>
  <i type="string" name="ALGO"> D</i>
  <i type="logical" name="LDIAG"> T  </i>
  <i name="EDIFF">      0.00001000</i>
  <i name="ENCUT">    400.00000000</i>
  <i name="TIME">      0.40000000</i>
  <i type="int" name="ISMEAR">     1</i>
  <i name="SIGMA">      0.10000000</i>
  <i type="logical" name="LHFCALC"> T  </i>
  <i type="string" name="GGA"> PE</i>
  <i name="HFSCREEN">      0.20000000</i>
  <i name="AEXX">      0.25000000</i>
  <i type="string" name="PRECFOCK">fast</i>
 </incar>
 <kpoints>
  <generation param="Gamma">
   <v type="int" name="divisions">       4        4        5 </v>
   <v name="usershift">      0.00000000       0.00000000       0.00000000 </v>
   <v name="genvec1">      0.25000000       0.00000000       0.00000000 </v>
   <v name="genvec2">      0.00000000       0.25000000       0.00000000 </v>
   <v name="genvec3">      0.00000000       0.00000000       0.20000000 </v>
   <v name="shift">      0.00000000       0.00000000       0.00000000 </v>
  </generation>
  <varray name="kpointlist" >
   <v>       0.00000000       0.00000000       0.00000000 </v>
   <v>       0.25000000       0.00000000       0.00000000 </v>
   <v>       0.50000000       0.00000000       0.00000000 </v>
   <v>       0.00000000       0.25000000       0.00000000 </v>
   <v>       0.25000000       0.25000000       0.00000000 </v>
   <v>       0.50000000       0.25000000      -0.00000000 </v>
   <v>      -0.25000000       0.25000000       0.00000000 </v>
   <v>       0.00000000       0.50000000       0.00000000 </v>
   <v>       0.25000000       0.50000000      -0.00000000 </v>
   <v>       0.50000000       0.50000000       0.00000000 </v>
   <v>      -0.00000000      -0.00000000       0.20000000 </v>
   <v>       0.25000000       0.00000000       0.20000000 </v>
   <v>       0.50000000       0.00000000       0.20000000 </v>
   <v>      -0.25000000      -0.00000000       0.20000000 </v>
   <v>       0.00000000       0.25000000       0.20000000 </v>
   <v>       0.25000000       0.25000000       0.20000000 </v>
   <v>       0.50000000       0.25000000       0.20000000 </v>
   <v>      -0.25000000       0.25000000       0.20000000 </v>
   <v>       0.00000000       0.50000000       0.20000000 </v>
   <v>       0.25000000       0.50000000       0.20000000 </v>
   <v>       0.50000000       0.50000000       0.20000000 </v>
   <v>      -0.25000000       0.50000000       0.20000000 </v>
   <v>      -0.00000000      -0.25000000       0.20000000 </v>
   <v>       0.25000000      -0.25000000       0.20000000 </v>
   <v>       0.50000000      -0.25000000       0.20000000 </v>
   <v>      -0.25000000      -0.25000000       0.20000000 </v>
   <v>      -0.00000000      -0.00000000       0.40000000 </v>
   <v>       0.25000000       0.00000000       0.40000000 </v>
   <v>       0.50000000       0.00000000       0.40000000 </v>
   <v>      -0.25000000       0.00000000       0.40000000 </v>
   <v>       0.00000000       0.25000000       0.40000000 </v>
   <v>       0.25000000       0.25000000       0.40000000 </v>
   <v>       0.50000000       0.25000000       0.40000000 </v>
   <v>      -0.25000000       0.25000000       0.40000000 </v>
   <v>       0.00000000       0.50000000       0.40000000 </v>
   <v>       0.25000000       0.50000000       0.40000000 </v>
   <v>       0.50000000       0.50000000       0.40000000 </v>
   <v>      -0.25000000       0.50000000       0.40000000 </v>
   <v>       0.00000000      -0.25000000       0.40000000 </v>
   <v>       0.25000000      -0.25000000       0.40000000 </v>
   <v>       0.50000000      -0.25000000       0.40000000 </v>
   <v>      -0.25000000      -0.25000000       0.40000000 </v>
  </varray>
  <varray name="weights" >
   <v>       0.01250000 </v>
   <v>       0.02500000 </v>
   <v>       0.01250000 </v>
   <v>       0.02500000 </v>
   <v>       0.02500000 </v>
   <v>       0.02500000 </v>
   <v>       0.02500000 </v>
   <v>       0.01250000 </v>
   <v>       0.02500000 </v>
   <v>       0.01250000 </v>
   <v>       0.02500000 </v>
   <v>       0.02500000 </v>
   <v>       0.02500000 </v>
   <v>       0.02500000 </v>
   <v>       0.02500000 </v>
   <v>       0.02500000 </v>
   <v>       0.02500000 </v>
   <v>       0.02500000 </v>
   <v>       0.02500000 </v>
   <v>       0.02500000 </v>
   <v>       0.02500000 </v>
   <v>       0.02500000 </v>
   <v>       0.02500000 </v>
   <v>       0.02500000 </v>
   <v>       0.02500000 </v>
   <v>       0.02500000 </v>
   <v>       0.02500000 </v>
   <v>       0.02500000 </v>
   <v>       0.02500000 </v>
   <v>       0.02500000 </v>
   <v>       0.02500000 </v>
   <v>       0.02500000 </v>
   <v>       0.02500000 </v>
   <v>       0.02500000 </v>
   <v>       0.02500000 </v>
   <v>       0.02500000 </v>
   <v>       0.02500000 </v>
   <v>       0.02500000 </v>
   <v>       0.02500000 </v>
   <v>       0.02500000 </v>
   <v>       0.02500000 </v>
   <v>       0.02500000 </v>
  </varray>
 </kpoints>
 <parameters>
  <separator name="general" >
   <i type="string" name="SYSTEM">CGS</i>
   <i type="logical" name="LCOMPAT"> F  </i>
  </separator>
  <separator name="electronic" >
   <i type="string" name="PREC">normal</i>
   <i name="ENMAX">    400.00000000</i>
   <i name="ENAUG">    758.23300000</i>
   <i name="EDIFF">      0.00001000</i>
   <i type="int" name="IALGO">    53</i>
   <i type="int" name="IWAVPR">    10</i>
   <i type="int" name="NBANDS">    80</i>
   <i name="NELECT">    112.00000000</i>
   <i type="int" name="TURBO">     0</i>
   <i type="int" name="IRESTART">     0</i>
   <i type="int" name="NREBOOT">     0</i>
   <i type="int" name="NMIN">     0</i>
   <i name="EREF">      0.00000000</i>
   <separator name="electronic smearing" >
    <i type="int" name="ISMEAR">     1</i>
    <i name="SIGMA">      0.10000000</i>
    <i name="KSPACING">      0.50000000</i>
    <i type="logical" name="KGAMMA"> T  </i>
   </separator>
   <separator name="electronic projectors" >
    <i type="logical" name="LREAL"> F  </i>
    <v name="ROPT">      0.00000000      0.00000000      0.00000000</v>
    <i type="int" name="LMAXPAW">  -100</i>
    <i type="int" name="LMAXMIX">     2</i>
    <i type="logical" name="NLSPLINE"> F  </i>
   </separator>
   <separator name="electronic startup" >
    <i type="int" name="ISTART">     1</i>
    <i type="int" name="ICHARG">     0</i>
    <i type="int" name="INIWAV">     1</i>
   </separator>
   <separator name="electronic spin" >
    <i type="int" name="ISPIN">     1</i>
    <i type="logical" name="LNONCOLLINEAR"> F  </i>
    <v name="MAGMOM">      1.00000000      1.00000000      1.00000000      1.00000000      1.00000000      1.00000000      1.00000000      1.00000000      1.00000000      1.00000000      1.00000000      1.00000000</v>
    <i name="NUPDOWN">     -1.00000000</i>
    <i type="logical" name="LSORBIT"> F  </i>
    <v name="SAXIS">      0.00000000      0.00000000      1.00000000</v>
    <i type="logical" name="LSPIRAL"> F  </i>
    <v name="QSPIRAL">      0.00000000      0.00000000      0.00000000</v>
    <i type="logical" name="LZEROZ"> F  </i>
   </separator>
   <separator name="electronic exchange-correlation" >
    <i type="logical" name="LASPH"> F  </i>
    <i type="logical" name="LMETAGGA"> F  </i>
   </separator>
   <separator name="electronic convergence" >
    <i type="int" name="NELM">    60</i>
    <i type="int" name="NELMDL">     0</i>
    <i type="int" name="NELMIN">     2</i>
    <i name="ENINI">    400.00000000</i>
    <separator name="electronic convergence detail" >
     <i type="logical" name="LDIAG"> T  </i>
     <i type="logical" name="LSUBROT"> T  </i>
     <i name="WEIMIN">      0.00000000</i>
     <i name="EBREAK">      0.00000003</i>
     <i name="DEPER">      0.30000000</i>
     <i type="int" name="NRMM">     4</i>
     <i name="TIME">      0.40000000</i>
    </separator>
   </separator>
   <separator name="electronic mixer" >
    <i name="AMIX">      0.40000000</i>
    <i name="BMIX">      1.00000000</i>
    <i name="AMIN">      0.10000000</i>
    <i name="AMIX_MAG">      1.60000000</i>
    <i name="BMIX_MAG">      1.00000000</i>
    <separator name="electronic mixer details" >
     <i type="int" name="IMIX">     4</i>
     <i type="int" name="MAXMIX">   -45</i>
     <i name="WC">    100.00000000</i>
     <i type="int" name="INIMIX">     1</i>
     <i type="int" name="MIXPRE">     1</i>
     <i type="int" name="MREMOVE">     5</i>
    </separator>
   </separator>
   <separator name="electronic dipolcorrection" >
    <i type="logical" name="LDIPOL"> F  </i>
    <i type="logical" name="LMONO"> F  </i>
    <i type="int" name="IDIPOL">     0</i>
    <i name="EPSILON">      1.00000000</i>
    <v name="DIPOL">   -100.00000000   -100.00000000   -100.00000000</v>
    <i name="EFIELD">      0.00000000</i>
   </separator>
  </separator>
  <separator name="grids" >
   <i type="int" name="NGX">    32</i>
   <i type="int" name="NGY">    32</i>
   <i type="int" name="NGZ">    32</i>
   <i type="int" name="NGXF">    64</i>
   <i type="int" name="NGYF">    64</i>
   <i type="int" name="NGZF">    64</i>
   <i type="logical" name="ADDGRID"> F  </i>
  </separator>
  <separator name="ionic" >
   <i type="int" name="NSW">     0</i>
   <i type="int" name="IBRION">    -1</i>
   <i type="int" name="ISIF">     0</i>
   <i name="PSTRESS">      0.00000000</i>
   <i name="EDIFFG">      0.00010000</i>
   <i type="int" name="NFREE">     0</i>
   <i name="POTIM">      0.50000000</i>
   <i name="SMASS">     -3.00000000</i>
   <i name="SCALEE">      1.00000000</i>
  </separator>
  <separator name="ionic md" >
   <i name="TEBEG">      0.00010000</i>
   <i name="TEEND">      0.00010000</i>
   <i type="int" name="NBLOCK">     1</i>
   <i type="int" name="KBLOCK">     1</i>
   <i type="int" name="NPACO">   256</i>
   <i name="APACO">     16.00000000</i>
  </separator>
  <separator name="symmetry" >
   <i type="int" name="ISYM">     3</i>
   <i name="SYMPREC">      0.00001000</i>
  </separator>
  <separator name="dos" >
   <i type="logical" name="LORBIT"> F  </i>
   <v name="RWIGS">     -1.00000000     -1.00000000     -1.00000000</v>
   <i type="int" name="NEDOS">   301</i>
   <i name="EMIN">     10.00000000</i>
   <i name="EMAX">    -10.00000000</i>
   <i name="EFERMI">      0.00000000</i>
  </separator>
  <separator name="writing" >
   <i type="int" name="NWRITE">     2</i>
   <i type="logical" name="LWAVE"> T  </i>
   <i type="logical" name="LCHARG"> T  </i>
   <i type="logical" name="LPARD"> F  </i>
   <i type="logical" name="LVTOT"> F  </i>
   <i type="logical" name="LVHAR"> F  </i>
   <i type="logical" name="LELF"> F  </i>
   <i type="logical" name="LOPTICS"> F  </i>
   <v name="STM">      0.00000000      0.00000000      0.00000000      0.00000000      0.00000000      0.00000000      0.00000000</v>
  </separator>
  <separator name="performance" >
   <i type="int" name="NPAR">    16</i>
   <i type="int" name="NSIM">     4</i>
   <i type="int" name="NBLK">    -1</i>
   <i type="logical" name="LPLANE"> T  </i>
   <i type="logical" name="LSCALAPACK"> T  </i>
   <i type="logical" name="LSCAAWARE"> F  </i>
   <i type="logical" name="LSCALU"> F  </i>
   <i type="logical" name="LASYNC"> F  </i>
   <i type="logical" name="LORBITALREAL"> F  </i>
  </separator>
  <separator name="miscellaneous" >
   <i type="int" name="IDIOT">     3</i>
   <i type="logical" name="LMUSIC"> F  </i>
   <v name="POMASS">     63.54600000     72.61000000     32.06600000</v>
   <v name="DARWINR">      0.00000000      0.00000000      0.00000000</v>
   <v name="DARWINV">      1.00000000      1.00000000      1.00000000</v>
   <i type="logical" name="LCORR"> T  </i>
  </separator>
  <i type="logical" name="GGA_COMPAT"> T  </i>
  <i type="logical" name="LBERRY"> F  </i>
  <i type="int" name="ICORELEVEL">     0</i>
  <i type="logical" name="LDAU"> F  </i>
  <i type="int" name="I_CONSTRAINED_M">     0</i>
  <separator name="electronic exchange-correlation" >
   <i type="string" name="GGA">PE</i>
   <i type="int" name="VOSKOWN">     0</i>
   <i type="logical" name="LHFCALC"> T  </i>
   <i type="string" name="PRECFOCK">fast</i>
   <i type="logical" name="LSYMGRAD"> F  </i>
   <i type="logical" name="LHFONE"> F  </i>
   <i type="logical" name="LRHFCALC"> F  </i>
   <i type="logical" name="LTHOMAS"> F  </i>
   <i type="logical" name="LMODELHF"> F  </i>
   <i name="ENCUT4O">     -1.00000000</i>
   <i type="int" name="EXXOEP">     0</i>
   <i type="int" name="FOURORBIT">     0</i>
   <i name="AEXX">      0.25000000</i>
   <i name="HFALPHA">     -1.00000000</i>
   <i name="MCALPHA">      0.00000000</i>
   <i name="ALDAX">      0.75000000</i>
   <i name="AGGAX">      0.75000000</i>
   <i name="ALDAC">      1.00000000</i>
   <i name="AGGAC">      1.00000000</i>
   <i type="int" name="NKREDX">     1</i>
   <i type="int" name="NKREDY">     1</i>
   <i type="int" name="NKREDZ">     1</i>
   <i type="logical" name="SHIFTRED"> F  </i>
   <i type="logical" name="ODDONLY"> F  </i>
   <i type="logical" name="EVENONLY"> F  </i>
   <i type="int" name="LMAXFOCK">     4</i>
   <i type="int" name="NMAXFOCKAE">     1</i>
   <i type="logical" name="LFOCKAEDFT"> F  </i>
   <i name="HFSCREEN">      0.20000000</i>
   <i name="HFSCREENC">      0.20000000</i>
   <i type="int" name="NBANDSGWLOW">     1</i>
  </separator>
  <separator name="vdW DFT" >
   <i type="logical" name="LUSE_VDW"> F  </i>
   <i name="Zab_VDW">     -0.84910000</i>
   <i name="PARAM1">      0.12340000</i>
   <i name="PARAM2">      1.00000000</i>
   <i name="PARAM3">      0.00000000</i>
  </separator>
  <separator name="model GW" >
   <i type="int" name="MODEL_GW">     0</i>
   <i name="MODEL_EPS0">     11.09505304</i>
   <i name="MODEL_ALPHA">      1.00000000</i>
  </separator>
  <separator name="linear response parameters" >
   <i type="logical" name="LEPSILON"> F  </i>
   <i type="logical" name="LRPA"> F  </i>
   <i type="logical" name="LNABLA"> F  </i>
   <i type="logical" name="LVEL"> F  </i>
   <i type="int" name="KINTER">     0</i>
   <i name="CSHIFT">      0.10000000</i>
   <i name="OMEGAMAX">     -1.00000000</i>
   <i name="DEG_THRESHOLD">      0.00200000</i>
  </separator>
  <separator name="orbital magnetization" >
   <i type="logical" name="NUCIND"> F  </i>
   <v name="MAGPOS">      0.00000000      0.00000000      0.00000000</v>
   <i type="logical" name="LNICSALL"> T  </i>
   <i type="logical" name="ORBITALMAG"> F  </i>
   <i type="logical" name="LMAGBLOCH"> F  </i>
   <i type="logical" name="LCHIMAG"> F  </i>
   <i type="logical" name="LGAUGE"> T  </i>
   <i type="int" name="MAGATOM">     0</i>
   <v name="MAGDIPOL">      0.00000000      0.00000000      0.00000000</v>
   <v name="AVECCONST">      0.00000000      0.00000000      0.00000000</v>
  </separator>
  <separator name="response functions" >
   <i type="logical" name="LADDER"> F  </i>
   <i type="logical" name="LFXC"> F  </i>
   <i type="logical" name="LHARTREE"> T  </i>
   <i type="int" name="IBSE">     0</i>
   <i type="logical" name="LTCTE"> F  </i>
   <i type="logical" name="LTETE"> F  </i>
   <i type="logical" name="LTRIPLET"> F  </i>
   <i type="logical" name="LFXCEPS"> F  </i>
   <i type="logical" name="L2ORDER"> F  </i>
   <i type="logical" name="LUSEW"> F  </i>
   <i name="ENCUTGW">     -2.00000000</i>
   <i name="ENCUTGWSOFT">     -2.00000000</i>
   <i name="ENCUTLF">     -1.00000000</i>
   <i type="int" name="LMAXMP2">    -1</i>
   <i name="SCISSOR">      0.00000000</i>
   <i type="int" name="NOMEGA">     0</i>
   <i type="int" name="NOMEGAR">     0</i>
   <i type="int" name="NBANDSGW">    -1</i>
   <i type="int" name="NBANDSO">    -1</i>
   <i type="int" name="NBANDSV">    -1</i>
   <i type="int" name="NELM">     1</i>
   <i type="int" name="DIM">     3</i>
   <i type="int" name="ANTIRES">     0</i>
   <i name="OMEGAMAX">    -30.00000000</i>
   <i name="OMEGATL">   -200.00000000</i>
   <i type="int" name="OMEGAGRID">     0</i>
   <i name="CSHIFT">     -0.10000000</i>
   <i type="logical" name="SELFENERGY"> F  </i>
   <i type="logical" name="LSPECTRAL"> F  </i>
   <i type="logical" name="ODDONLYGW"> F  </i>
   <i type="logical" name="EVENONLYGW"> F  </i>
   <i type="int" name="NKREDLFX">     1</i>
   <i type="int" name="NKREDLFY">     1</i>
   <i type="int" name="NKREDLFZ">     1</i>
   <i type="int" name="MAXMEM">  1800</i>
   <i type="int" name="TELESCOPE">     0</i>
  </separator>
 </parameters>
 <atominfo>
  <atoms>      12 </atoms>
  <types>       3 </types>
  <array name="atoms" >
   <dimension dim="1">ion</dimension>
   <field type="string">element</field>
   <field type="int">atomtype</field>
   <set>
    <rc><c>Cu</c><c>   1</c></rc>
    <rc><c>Cu</c><c>   1</c></rc>
    <rc><c>Cu</c><c>   1</c></rc>
    <rc><c>Cu</c><c>   1</c></rc>
    <rc><c>Ge</c><c>   2</c></rc>
    <rc><c>Ge</c><c>   2</c></rc>
    <rc><c>S </c><c>   3</c></rc>
    <rc><c>S </c><c>   3</c></rc>
    <rc><c>S </c><c>   3</c></rc>
    <rc><c>S </c><c>   3</c></rc>
    <rc><c>S </c><c>   3</c></rc>
    <rc><c>S </c><c>   3</c></rc>
   </set>
  </array>
  <array name="atomtypes" >
   <dimension dim="1">type</dimension>
   <field type="int">atomspertype</field>
   <field type="string">element</field>
   <field>mass</field>
   <field>valence</field>
   <field type="string">pseudopotential</field>
   <set>
    <rc><c>   4</c><c>Cu</c><c>     63.54600000</c><c>     17.00000000</c><c>  PAW_PBE Cu_pv 06Sep2000               </c></rc>
    <rc><c>   2</c><c>Ge</c><c>     72.61000000</c><c>      4.00000000</c><c>  PAW_PBE Ge 05Jan2001                  </c></rc>
    <rc><c>   6</c><c>S </c><c>     32.06600000</c><c>      6.00000000</c><c>  PAW_PBE S 17Jan2003                   </c></rc>
   </set>
  </array>
 </atominfo>
 <structure name="initialpos" >
  <crystal>
   <varray name="basis" >
    <v>       3.22479600      -5.64383000       0.03157200 </v>
    <v>       3.22479600       5.64383000       0.03157200 </v>
    <v>      -2.10194600       0.00000000       6.07553700 </v>
   </varray>
   <i name="volume">    221.90106089 </i>
   <varray name="rec_basis" >
    <v>       0.15452516      -0.08859232       0.05346088 </v>
    <v>       0.15452516       0.08859232       0.05346088 </v>
    <v>      -0.00160600       0.00000000       0.16403888 </v>
   </varray>
  </crystal>
  <varray name="positions" >
   <v>       0.61844300       0.12117100       0.11953300 </v>
   <v>       0.12117100       0.61844300       0.61953300 </v>
   <v>       0.96295700       0.79032200       0.11881300 </v>
   <v>       0.79032200       0.96295700       0.61881300 </v>
   <v>       0.43973200       0.26728100       0.59904700 </v>
   <v>       0.26728100       0.43973200       0.09904700 </v>
   <v>       0.07949800       0.91167500       0.49736300 </v>
   <v>       0.57294140       0.41236400       0.98018400 </v>
   <v>       0.73711100       0.25006200       0.49504900 </v>
   <v>       0.41236400       0.57140300       0.48018400 </v>
   <v>       0.91167500       0.07949800       0.99736300 </v>
   <v>       0.25006200       0.73711100       0.99504900 </v>
  </varray>
 </structure>
 <calculation>
  <scstep>
   <time name="total">  246.80  246.85</time>
   <energy>
    <i name="alphaZ">    339.31929130 </i>
    <i name="ewald">  -9063.22586492 </i>
    <i name="hartreedc">  -8067.44797031 </i>
    <i name="XCdc">    369.90354423 </i>
    <i name="pawpsdc">  16899.24334446 </i>
    <i name="pawaedc"> -17392.05542649 </i>
    <i name="eentropy">     -0.00139561 </i>
    <i name="bandstr">  -1658.63276765 </i>
    <i name="atom">  18320.98302006 </i>
    <i name="e_fr_energy">     75.53619006 </i>
    <i name="e_wo_entrp">     75.53758567 </i>
    <i name="e_0_energy">     75.53665527 </i>
   </energy>
  </scstep>
  <scstep>
   <time name="total">  254.53  254.51</time>
   <energy>
    <i name="e_fr_energy">     -8.37316538 </i>
    <i name="e_wo_entrp">     -8.37222274 </i>
    <i name="e_0_energy">     -8.37285117 </i>
   </energy>
  </scstep>
  <scstep>
   <time name="total">  253.88  253.67</time>
   <energy>
    <i name="e_fr_energy">    -15.11176394 </i>
    <i name="e_wo_entrp">    -15.11159925 </i>
    <i name="e_0_energy">    -15.11170904 </i>
   </energy>
  </scstep>
  <scstep>
   <time name="total">  255.53  255.54</time>
   <energy>
    <i name="e_fr_energy">    -22.58451210 </i>
    <i name="e_wo_entrp">    -22.58488579 </i>
    <i name="e_0_energy">    -22.58463666 </i>
   </energy>
  </scstep>
  <scstep>
   <time name="total">  254.87  254.96</time>
   <energy>
    <i name="e_fr_energy">    -60.80862740 </i>
    <i name="e_wo_entrp">    -60.80926950 </i>
    <i name="e_0_energy">    -60.80884143 </i>
   </energy>
  </scstep>
  <scstep>
   <time name="total">  256.50  256.31</time>
   <energy>
    <i name="e_fr_energy">    -65.92023890 </i>
    <i name="e_wo_entrp">    -65.92089206 </i>
    <i name="e_0_energy">    -65.92045662 </i>
   </energy>
  </scstep>
  <scstep>
   <time name="total">  262.64  262.44</time>
   <energy>
    <i name="e_fr_energy">    -67.46512264 </i>
    <i name="e_wo_entrp">    -67.46553849 </i>
    <i name="e_0_energy">    -67.46526126 </i>
   </energy>
  </scstep>
  <scstep>
   <time name="total">  262.21  262.07</time>
   <energy>
    <i name="e_fr_energy">    -69.08323246 </i>
    <i name="e_wo_entrp">    -69.08393525 </i>
    <i name="e_0_energy">    -69.08346673 </i>
   </energy>
  </scstep>
  <scstep>
   <time name="total">  263.26  263.05</time>
   <energy>
    <i name="e_fr_energy">    -69.39438320 </i>
    <i name="e_wo_entrp">    -69.39521869 </i>
    <i name="e_0_energy">    -69.39466170 </i>
   </energy>
  </scstep>
  <scstep>
   <time name="total">  258.90  258.69</time>
   <energy>
    <i name="e_fr_energy">    -69.49844269 </i>
    <i name="e_wo_entrp">    -69.49912475 </i>
    <i name="e_0_energy">    -69.49867004 </i>
   </energy>
  </scstep>
  <scstep>
   <time name="total">  257.51  257.32</time>
   <energy>
    <i name="e_fr_energy">    -69.56830776 </i>
    <i name="e_wo_entrp">    -69.56888438 </i>
    <i name="e_0_energy">    -69.56849997 </i>
   </energy>
  </scstep>
  <scstep>
   <time name="total">  258.29  258.08</time>
   <energy>
    <i name="e_fr_energy">    -69.58064401 </i>
    <i name="e_wo_entrp">    -69.58117119 </i>
    <i name="e_0_energy">    -69.58081973 </i>
   </energy>
  </scstep>
  <scstep>
   <time name="total">  259.13  258.93</time>
   <energy>
    <i name="e_fr_energy">    -69.59034051 </i>
    <i name="e_wo_entrp">    -69.59085523 </i>
    <i name="e_0_energy">    -69.59051209 </i>
   </energy>
  </scstep>
  <scstep>
   <time name="total">  261.89  261.68</time>
   <energy>
    <i name="e_fr_energy">    -69.59280253 </i>
    <i name="e_wo_entrp">    -69.59333314 </i>
    <i name="e_0_energy">    -69.59297940 </i>
   </energy>
  </scstep>
  <scstep>
   <time name="total">  263.23  263.06</time>
   <energy>
    <i name="e_fr_energy">    -69.59431437 </i>
    <i name="e_wo_entrp">    -69.59485712 </i>
    <i name="e_0_energy">    -69.59449528 </i>
   </energy>
  </scstep>
  <scstep>
   <time name="total">  261.44  261.64</time>
   <energy>
    <i name="e_fr_energy">    -69.59488824 </i>
    <i name="e_wo_entrp">    -69.59543218 </i>
    <i name="e_0_energy">    -69.59506955 </i>
   </energy>
  </scstep>
  <scstep>
   <time name="total">  247.38  247.20</time>
   <energy>
    <i name="e_fr_energy">    -69.59506211 </i>
    <i name="e_wo_entrp">    -69.59560350 </i>
    <i name="e_0_energy">    -69.59524257 </i>
   </energy>
  </scstep>
  <scstep>
   <time name="total">  247.25  247.06</time>
   <energy>
    <i name="e_fr_energy">    -69.59517977 </i>
    <i name="e_wo_entrp">    -69.59571835 </i>
    <i name="e_0_energy">    -69.59535930 </i>
   </energy>
  </scstep>
  <scstep>
   <time name="total">  244.37  244.18</time>
   <energy>
    <i name="e_fr_energy">    -69.59520882 </i>
    <i name="e_wo_entrp">    -69.59574599 </i>
    <i name="e_0_energy">    -69.59538788 </i>
   </energy>
  </scstep>
  <scstep>
   <time name="total">  273.53  273.40</time>
   <energy>
    <i name="e_fr_energy">    -69.59522872 </i>
    <i name="e_wo_entrp">    -69.59576619 </i>
    <i name="e_0_energy">    -69.59540788 </i>
   </energy>
  </scstep>
  <scstep>
   <time name="total">  268.89  268.66</time>
   <energy>
    <i name="alphaZ">    339.31929130 </i>
    <i name="ewald">  -9063.22586492 </i>
    <i name="hartreedc">  -8150.73444043 </i>
    <i name="XCdc">    372.06353225 </i>
    <i name="pawpsdc">  15921.32866458 </i>
    <i name="pawaedc"> -16406.54084509 </i>
    <i name="eentropy">      0.00053801 </i>
    <i name="bandstr">  -1742.84394512 </i>
    <i name="atom">  18320.98302006 </i>
    <i name="e_fr_energy">    -69.59523617 </i>
    <i name="e_wo_entrp">    -69.59577418 </i>
    <i name="e_0_energy">    -69.59541551 </i>
   </energy>
  </scstep>
  <structure>
   <crystal>
    <varray name="basis" >
     <v>       3.22479600      -5.64383000       0.03157200 </v>
     <v>       3.22479600       5.64383000       0.03157200 </v>
     <v>      -2.10194600       0.00000000       6.07553700 </v>
    </varray>
    <i name="volume">    221.90106089 </i>
    <varray name="rec_basis" >
     <v>       0.15452516      -0.08859232       0.05346088 </v>
     <v>       0.15452516       0.08859232       0.05346088 </v>
     <v>      -0.00160600       0.00000000       0.16403888 </v>
    </varray>
   </crystal>
   <varray name="positions" >
    <v>       0.61844300       0.12117100       0.11953300 </v>
    <v>       0.12117100       0.61844300       0.61953300 </v>
    <v>       0.96295700       0.79032200       0.11881300 </v>
    <v>       0.79032200       0.96295700       0.61881300 </v>
    <v>       0.43973200       0.26728100       0.59904700 </v>
    <v>       0.26728100       0.43973200       0.09904700 </v>
    <v>       0.07949800       0.91167500       0.49736300 </v>
    <v>       0.57294140       0.41236400       0.98018400 </v>
    <v>       0.73711100       0.25006200       0.49504900 </v>
    <v>       0.41236400       0.57140300       0.48018400 </v>
    <v>       0.91167500       0.07949800       0.99736300 </v>
    <v>       0.25006200       0.73711100       0.99504900 </v>
   </varray>
  </structure>
  <varray name="forces" >
   <v>      -0.00606009      -0.00531314       0.00184510 </v>
   <v>      -0.00332170       0.00163103      -0.00002307 </v>
   <v>       0.00674520       0.00082807       0.00222724 </v>
   <v>       0.00233464       0.00037163       0.00048679 </v>
   <v>       0.00856889      -0.00331975       0.01284696 </v>
   <v>       0.03286921      -0.06102233      -0.01043912 </v>
   <v>       0.00290376       0.00164173       0.00012597 </v>
   <v>      -0.05732805       0.08696533       0.00579794 </v>
   <v>      -0.00114565      -0.00123165      -0.00794334 </v>
   <v>      -0.00004576       0.00752455       0.00118536 </v>
   <v>       0.00776652      -0.01359717      -0.00373414 </v>
   <v>       0.00671303      -0.01447831      -0.00237568 </v>
  </varray>
  <energy>
   <i name="e_fr_energy">    -69.59523617 </i>
   <i name="e_wo_entrp">    -69.59541551 </i>
   <i name="e_0_energy">      0.00053801 </i>
  </energy>
  <time name="totalsc"> 5913.00 5911.43</time>
  <eigenvalues>
   <array>
    <dimension dim="1">band</dimension>
    <dimension dim="2">kpoint</dimension>
    <dimension dim="3">spin</dimension>
    <field>eigene</field>
    <field>occ</field>
    <set>
     <set comment="spin 1">
      <set comment="kpoint 1">
       <r>  -68.6504    1.0000 </r>
       <r>  -68.6456    1.0000 </r>
       <r>  -68.6412    1.0000 </r>
       <r>  -68.6330    1.0000 </r>
       <r>  -68.6175    1.0000 </r>
       <r>  -68.6136    1.0000 </r>
       <r>  -68.6012    1.0000 </r>
       <r>  -68.5961    1.0000 </r>
       <r>  -68.5844    1.0000 </r>
       <r>  -68.5772    1.0000 </r>
       <r>  -68.5677    1.0000 </r>
       <r>  -68.5602    1.0000 </r>
       <r>  -12.7138    1.0000 </r>
       <r>  -11.1256    1.0000 </r>
       <r>  -10.9176    1.0000 </r>
       <r>  -10.6004    1.0000 </r>
       <r>  -10.2516    1.0000 </r>
       <r>  -10.2355    1.0000 </r>
       <r>   -5.9739    1.0000 </r>
       <r>   -4.9878    1.0000 </r>
       <r>   -2.7575    1.0000 </r>
       <r>   -2.2062    1.0000 </r>
       <r>   -2.0677    1.0000 </r>
       <r>   -1.9237    1.0000 </r>
       <r>   -1.5738    1.0000 </r>
       <r>   -0.9873    1.0000 </r>
       <r>   -0.9549    1.0000 </r>
       <r>   -0.6892    1.0000 </r>
       <r>   -0.3998    1.0000 </r>
       <r>   -0.2777    1.0000 </r>
       <r>   -0.2648    1.0000 </r>
       <r>   -0.2386    1.0000 </r>
       <r>   -0.1919    1.0000 </r>
       <r>   -0.1564    1.0000 </r>
       <r>   -0.0416    1.0000 </r>
       <r>    0.0285    1.0000 </r>
       <r>    1.3477    1.0000 </r>
       <r>    1.3601    1.0000 </r>
       <r>    1.4116    1.0000 </r>
       <r>    1.4540    1.0000 </r>
       <r>    1.4688    1.0000 </r>
       <r>    1.4711    1.0000 </r>
       <r>    1.5177    1.0000 </r>
       <r>    1.5311    1.0000 </r>
       <r>    1.5731    1.0000 </r>
       <r>    1.7110    1.0000 </r>
       <r>    1.8917    1.0000 </r>
       <r>    1.9271    1.0000 </r>
       <r>    2.0585    1.0000 </r>
       <r>    2.6492    1.0000 </r>
       <r>    2.7272    1.0000 </r>
       <r>    3.0930    1.0000 </r>
       <r>    3.2170    1.0000 </r>
       <r>    4.0069    1.0044 </r>
       <r>    4.0392    1.0125 </r>
       <r>    4.1743    0.8699 </r>
       <r>    5.5350   -0.0000 </r>
       <r>    6.3471   -0.0000 </r>
       <r>    7.6255    0.0000 </r>
       <r>    7.9898    0.0000 </r>
       <r>    8.6124    0.0000 </r>
       <r>    8.7880    0.0000 </r>
       <r>    9.5743    0.0000 </r>
       <r>    9.7360    0.0000 </r>
       <r>    9.8170    0.0000 </r>
       <r>   10.4190    0.0000 </r>
       <r>   10.5798    0.0000 </r>
       <r>   10.7035    0.0000 </r>
       <r>   10.7171    0.0000 </r>
       <r>   11.2859    0.0000 </r>
       <r>   11.7168    0.0000 </r>
       <r>   12.3929    0.0000 </r>
       <r>   12.4508    0.0000 </r>
       <r>   12.7243    0.0000 </r>
       <r>   13.3180    0.0000 </r>
       <r>   13.3867    0.0000 </r>
       <r>   13.8335    0.0000 </r>
       <r>   13.8836    0.0000 </r>
       <r>   14.1485    0.0000 </r>
       <r>   14.1843    0.0000 </r>
      </set>
      <set comment="kpoint 2">
       <r>  -68.6503    1.0000 </r>
       <r>  -68.6456    1.0000 </r>
       <r>  -68.6412    1.0000 </r>
       <r>  -68.6330    1.0000 </r>
       <r>  -68.6174    1.0000 </r>
       <r>  -68.6135    1.0000 </r>
       <r>  -68.6012    1.0000 </r>
       <r>  -68.5961    1.0000 </r>
       <r>  -68.5843    1.0000 </r>
       <r>  -68.5771    1.0000 </r>
       <r>  -68.5677    1.0000 </r>
       <r>  -68.5602    1.0000 </r>
       <r>  -12.5879    1.0000 </r>
       <r>  -11.1283    1.0000 </r>
       <r>  -10.9773    1.0000 </r>
       <r>  -10.6761    1.0000 </r>
       <r>  -10.3666    1.0000 </r>
       <r>  -10.2777    1.0000 </r>
       <r>   -5.9225    1.0000 </r>
       <r>   -4.7779    1.0000 </r>
       <r>   -2.6435    1.0000 </r>
       <r>   -2.2501    1.0000 </r>
       <r>   -2.0860    1.0000 </r>
       <r>   -1.6853    1.0000 </r>
       <r>   -1.3436    1.0000 </r>
       <r>   -1.0028    1.0000 </r>
       <r>   -0.7711    1.0000 </r>
       <r>   -0.6232    1.0000 </r>
       <r>   -0.5528    1.0000 </r>
       <r>   -0.4436    1.0000 </r>
       <r>   -0.3599    1.0000 </r>
       <r>   -0.2445    1.0000 </r>
       <r>   -0.1957    1.0000 </r>
       <r>   -0.1729    1.0000 </r>
       <r>   -0.0481    1.0000 </r>
       <r>    0.0373    1.0000 </r>
       <r>    1.2767    1.0000 </r>
       <r>    1.3341    1.0000 </r>
       <r>    1.3523    1.0000 </r>
       <r>    1.3888    1.0000 </r>
       <r>    1.4245    1.0000 </r>
       <r>    1.4690    1.0000 </r>
       <r>    1.4966    1.0000 </r>
       <r>    1.5277    1.0000 </r>
       <r>    1.7234    1.0000 </r>
       <r>    1.8566    1.0000 </r>
       <r>    2.0559    1.0000 </r>
       <r>    2.0935    1.0000 </r>
       <r>    2.2312    1.0000 </r>
       <r>    2.4122    1.0000 </r>
       <r>    2.5566    1.0000 </r>
       <r>    2.8249    1.0000 </r>
       <r>    2.9454    1.0000 </r>
       <r>    3.2424    1.0000 </r>
       <r>    3.6622    1.0000 </r>
       <r>    4.0410    1.0132 </r>
       <r>    6.1729   -0.0000 </r>
       <r>    6.8927   -0.0000 </r>
       <r>    8.1390    0.0000 </r>
       <r>    8.2668    0.0000 </r>
       <r>    8.5890    0.0000 </r>
       <r>    9.0105    0.0000 </r>
       <r>    9.2425    0.0000 </r>
       <r>    9.5266    0.0000 </r>
       <r>    9.8685    0.0000 </r>
       <r>   10.3794    0.0000 </r>
       <r>   10.6384    0.0000 </r>
       <r>   10.8168    0.0000 </r>
       <r>   10.9357    0.0000 </r>
       <r>   11.1957    0.0000 </r>
       <r>   11.6556    0.0000 </r>
       <r>   11.7726    0.0000 </r>
       <r>   12.1182    0.0000 </r>
       <r>   12.4410    0.0000 </r>
       <r>   12.6191    0.0000 </r>
       <r>   13.0066    0.0000 </r>
       <r>   13.5036    0.0000 </r>
       <r>   13.8762    0.0000 </r>
       <r>   14.2190    0.0000 </r>
       <r>   14.7110    0.0000 </r>
      </set>
      <set comment="kpoint 3">
       <r>  -68.6502    1.0000 </r>
       <r>  -68.6455    1.0000 </r>
       <r>  -68.6411    1.0000 </r>
       <r>  -68.6329    1.0000 </r>
       <r>  -68.6174    1.0000 </r>
       <r>  -68.6134    1.0000 </r>
       <r>  -68.6011    1.0000 </r>
       <r>  -68.5960    1.0000 </r>
       <r>  -68.5843    1.0000 </r>
       <r>  -68.5771    1.0000 </r>
       <r>  -68.5675    1.0000 </r>
       <r>  -68.5600    1.0000 </r>
       <r>  -12.4268    1.0000 </r>
       <r>  -11.2538    1.0000 </r>
       <r>  -10.9486    1.0000 </r>
       <r>  -10.7645    1.0000 </r>
       <r>  -10.4283    1.0000 </r>
       <r>  -10.3579    1.0000 </r>
       <r>   -5.8605    1.0000 </r>
       <r>   -4.5536    1.0000 </r>
       <r>   -2.4913    1.0000 </r>
       <r>   -2.2435    1.0000 </r>
       <r>   -1.9448    1.0000 </r>
       <r>   -1.4642    1.0000 </r>
       <r>   -1.2270    1.0000 </r>
       <r>   -1.0966    1.0000 </r>
       <r>   -0.9019    1.0000 </r>
       <r>   -0.8654    1.0000 </r>
       <r>   -0.5991    1.0000 </r>
       <r>   -0.5374    1.0000 </r>
       <r>   -0.2770    1.0000 </r>
       <r>   -0.2052    1.0000 </r>
       <r>   -0.2036    1.0000 </r>
       <r>   -0.1537    1.0000 </r>
       <r>   -0.0307    1.0000 </r>
       <r>    0.0795    1.0000 </r>
       <r>    1.2521    1.0000 </r>
       <r>    1.3265    1.0000 </r>
       <r>    1.3433    1.0000 </r>
       <r>    1.3944    1.0000 </r>
       <r>    1.4686    1.0000 </r>
       <r>    1.4768    1.0000 </r>
       <r>    1.4975    1.0000 </r>
       <r>    1.5493    1.0000 </r>
       <r>    1.7503    1.0000 </r>
       <r>    1.7900    1.0000 </r>
       <r>    1.9681    1.0000 </r>
       <r>    2.1444    1.0000 </r>
       <r>    2.3205    1.0000 </r>
       <r>    2.3614    1.0000 </r>
       <r>    2.5528    1.0000 </r>
       <r>    2.6673    1.0000 </r>
       <r>    2.9369    1.0000 </r>
       <r>    3.0791    1.0000 </r>
       <r>    3.2494    1.0000 </r>
       <r>    3.8610    1.0000 </r>
       <r>    6.3900   -0.0000 </r>
       <r>    7.0800    0.0000 </r>
       <r>    7.9800    0.0000 </r>
       <r>    8.2079    0.0000 </r>
       <r>    8.5254    0.0000 </r>
       <r>    8.8179    0.0000 </r>
       <r>    9.3182    0.0000 </r>
       <r>    9.8842    0.0000 </r>
       <r>   10.0125    0.0000 </r>
       <r>   10.5238    0.0000 </r>
       <r>   10.6929    0.0000 </r>
       <r>   10.7974    0.0000 </r>
       <r>   11.1395    0.0000 </r>
       <r>   11.4082    0.0000 </r>
       <r>   11.6114    0.0000 </r>
       <r>   11.7737    0.0000 </r>
       <r>   11.9435    0.0000 </r>
       <r>   12.5042    0.0000 </r>
       <r>   12.7809    0.0000 </r>
       <r>   12.9981    0.0000 </r>
       <r>   13.3978    0.0000 </r>
       <r>   13.5430    0.0000 </r>
       <r>   13.9347    0.0000 </r>
       <r>   14.2728    0.0000 </r>
      </set>
      <set comment="kpoint 4">
       <r>  -68.6503    1.0000 </r>
       <r>  -68.6456    1.0000 </r>
       <r>  -68.6412    1.0000 </r>
       <r>  -68.6330    1.0000 </r>
       <r>  -68.6174    1.0000 </r>
       <r>  -68.6135    1.0000 </r>
       <r>  -68.6012    1.0000 </r>
       <r>  -68.5961    1.0000 </r>
       <r>  -68.5843    1.0000 </r>
       <r>  -68.5771    1.0000 </r>
       <r>  -68.5676    1.0000 </r>
       <r>  -68.5602    1.0000 </r>
       <r>  -12.5881    1.0000 </r>
       <r>  -11.1256    1.0000 </r>
       <r>  -10.9803    1.0000 </r>
       <r>  -10.6764    1.0000 </r>
       <r>  -10.3653    1.0000 </r>
       <r>  -10.2783    1.0000 </r>
       <r>   -5.9224    1.0000 </r>
       <r>   -4.7782    1.0000 </r>
       <r>   -2.6425    1.0000 </r>
       <r>   -2.2486    1.0000 </r>
       <r>   -2.0862    1.0000 </r>
       <r>   -1.6910    1.0000 </r>
       <r>   -1.3425    1.0000 </r>
       <r>   -1.0025    1.0000 </r>
       <r>   -0.7693    1.0000 </r>
       <r>   -0.6229    1.0000 </r>
       <r>   -0.5601    1.0000 </r>
       <r>   -0.4402    1.0000 </r>
       <r>   -0.3629    1.0000 </r>
       <r>   -0.2422    1.0000 </r>
       <r>   -0.1931    1.0000 </r>
       <r>   -0.1698    1.0000 </r>
       <r>   -0.0488    1.0000 </r>
       <r>    0.0367    1.0000 </r>
       <r>    1.2764    1.0000 </r>
       <r>    1.3323    1.0000 </r>
       <r>    1.3514    1.0000 </r>
       <r>    1.3906    1.0000 </r>
       <r>    1.4247    1.0000 </r>
       <r>    1.4695    1.0000 </r>
       <r>    1.4942    1.0000 </r>
       <r>    1.5292    1.0000 </r>
       <r>    1.7232    1.0000 </r>
       <r>    1.8577    1.0000 </r>
       <r>    2.0565    1.0000 </r>
       <r>    2.0951    1.0000 </r>
       <r>    2.2312    1.0000 </r>
       <r>    2.4119    1.0000 </r>
       <r>    2.5538    1.0000 </r>
       <r>    2.8259    1.0000 </r>
       <r>    2.9486    1.0000 </r>
       <r>    3.2426    1.0000 </r>
       <r>    3.6623    1.0000 </r>
       <r>    4.0407    1.0131 </r>
       <r>    6.1705   -0.0000 </r>
       <r>    6.8914   -0.0000 </r>
       <r>    8.1284    0.0000 </r>
       <r>    8.2674    0.0000 </r>
       <r>    8.5957    0.0000 </r>
       <r>    9.0119    0.0000 </r>
       <r>    9.2449    0.0000 </r>
       <r>    9.5320    0.0000 </r>
       <r>    9.8641    0.0000 </r>
       <r>   10.3817    0.0000 </r>
       <r>   10.6364    0.0000 </r>
       <r>   10.8167    0.0000 </r>
       <r>   10.9400    0.0000 </r>
       <r>   11.1918    0.0000 </r>
       <r>   11.6549    0.0000 </r>
       <r>   11.7698    0.0000 </r>
       <r>   12.1144    0.0000 </r>
       <r>   12.4436    0.0000 </r>
       <r>   12.6220    0.0000 </r>
       <r>   13.0073    0.0000 </r>
       <r>   13.5163    0.0000 </r>
       <r>   13.8983    0.0000 </r>
       <r>   14.2684    0.0000 </r>
       <r>   14.8321    0.0000 </r>
      </set>
      <set comment="kpoint 5">
       <r>  -68.6503    1.0000 </r>
       <r>  -68.6456    1.0000 </r>
       <r>  -68.6411    1.0000 </r>
       <r>  -68.6329    1.0000 </r>
       <r>  -68.6175    1.0000 </r>
       <r>  -68.6136    1.0000 </r>
       <r>  -68.6011    1.0000 </r>
       <r>  -68.5960    1.0000 </r>
       <r>  -68.5845    1.0000 </r>
       <r>  -68.5772    1.0000 </r>
       <r>  -68.5677    1.0000 </r>
       <r>  -68.5602    1.0000 </r>
       <r>  -12.4310    1.0000 </r>
       <r>  -11.1936    1.0000 </r>
       <r>  -10.9363    1.0000 </r>
       <r>  -10.8785    1.0000 </r>
       <r>  -10.3912    1.0000 </r>
       <r>  -10.3503    1.0000 </r>
       <r>   -5.8655    1.0000 </r>
       <r>   -4.5272    1.0000 </r>
       <r>   -2.4143    1.0000 </r>
       <r>   -2.2425    1.0000 </r>
       <r>   -1.7929    1.0000 </r>
       <r>   -1.6790    1.0000 </r>
       <r>   -1.3602    1.0000 </r>
       <r>   -1.2992    1.0000 </r>
       <r>   -1.0814    1.0000 </r>
       <r>   -0.6847    1.0000 </r>
       <r>   -0.5260    1.0000 </r>
       <r>   -0.2978    1.0000 </r>
       <r>   -0.2846    1.0000 </r>
       <r>   -0.2257    1.0000 </r>
       <r>   -0.1871    1.0000 </r>
       <r>   -0.1283    1.0000 </r>
       <r>   -0.0946    1.0000 </r>
       <r>    0.0783    1.0000 </r>
       <r>    1.2905    1.0000 </r>
       <r>    1.3088    1.0000 </r>
       <r>    1.4133    1.0000 </r>
       <r>    1.4240    1.0000 </r>
       <r>    1.4608    1.0000 </r>
       <r>    1.4795    1.0000 </r>
       <r>    1.4929    1.0000 </r>
       <r>    1.5675    1.0000 </r>
       <r>    1.6693    1.0000 </r>
       <r>    1.8795    1.0000 </r>
       <r>    1.9390    1.0000 </r>
       <r>    2.1333    1.0000 </r>
       <r>    2.2803    1.0000 </r>
       <r>    2.3194    1.0000 </r>
       <r>    2.5608    1.0000 </r>
       <r>    2.6487    1.0000 </r>
       <r>    2.9027    1.0000 </r>
       <r>    2.9429    1.0000 </r>
       <r>    3.6974    1.0000 </r>
       <r>    3.8322    1.0000 </r>
       <r>    6.1729   -0.0000 </r>
       <r>    6.9752    0.0000 </r>
       <r>    8.0050    0.0000 </r>
       <r>    8.3264    0.0000 </r>
       <r>    8.4329    0.0000 </r>
       <r>    8.5692    0.0000 </r>
       <r>    9.1429    0.0000 </r>
       <r>    9.2493    0.0000 </r>
       <r>   10.3609    0.0000 </r>
       <r>   10.4973    0.0000 </r>
       <r>   10.9238    0.0000 </r>
       <r>   11.1880    0.0000 </r>
       <r>   11.3296    0.0000 </r>
       <r>   11.5601    0.0000 </r>
       <r>   11.8149    0.0000 </r>
       <r>   11.9640    0.0000 </r>
       <r>   12.3122    0.0000 </r>
       <r>   12.5065    0.0000 </r>
       <r>   12.7081    0.0000 </r>
       <r>   12.9151    0.0000 </r>
       <r>   13.3372    0.0000 </r>
       <r>   13.4457    0.0000 </r>
       <r>   14.2595    0.0000 </r>
       <r>   14.3656    0.0000 </r>
      </set>
      <set comment="kpoint 6">
       <r>  -68.6501    1.0000 </r>
       <r>  -68.6454    1.0000 </r>
       <r>  -68.6412    1.0000 </r>
       <r>  -68.6329    1.0000 </r>
       <r>  -68.6173    1.0000 </r>
       <r>  -68.6134    1.0000 </r>
       <r>  -68.6011    1.0000 </r>
       <r>  -68.5960    1.0000 </r>
       <r>  -68.5842    1.0000 </r>
       <r>  -68.5770    1.0000 </r>
       <r>  -68.5675    1.0000 </r>
       <r>  -68.5600    1.0000 </r>
       <r>  -12.4311    1.0000 </r>
       <r>  -11.3573    1.0000 </r>
       <r>  -10.9306    1.0000 </r>
       <r>  -10.7387    1.0000 </r>
       <r>  -10.3893    1.0000 </r>
       <r>  -10.2720    1.0000 </r>
       <r>   -5.9378    1.0000 </r>
       <r>   -4.6474    1.0000 </r>
       <r>   -2.3897    1.0000 </r>
       <r>   -2.2251    1.0000 </r>
       <r>   -2.0552    1.0000 </r>
       <r>   -1.6386    1.0000 </r>
       <r>   -1.3607    1.0000 </r>
       <r>   -1.2799    1.0000 </r>
       <r>   -1.0237    1.0000 </r>
       <r>   -0.5121    1.0000 </r>
       <r>   -0.4848    1.0000 </r>
       <r>   -0.3319    1.0000 </r>
       <r>   -0.2841    1.0000 </r>
       <r>   -0.2216    1.0000 </r>
       <r>   -0.1551    1.0000 </r>
       <r>   -0.1363    1.0000 </r>
       <r>   -0.0123    1.0000 </r>
       <r>    0.1116    1.0000 </r>
       <r>    1.2441    1.0000 </r>
       <r>    1.3121    1.0000 </r>
       <r>    1.3812    1.0000 </r>
       <r>    1.4345    1.0000 </r>
       <r>    1.4597    1.0000 </r>
       <r>    1.4892    1.0000 </r>
       <r>    1.4933    1.0000 </r>
       <r>    1.5467    1.0000 </r>
       <r>    1.7452    1.0000 </r>
       <r>    1.8269    1.0000 </r>
       <r>    1.9208    1.0000 </r>
       <r>    2.1332    1.0000 </r>
       <r>    2.2205    1.0000 </r>
       <r>    2.3845    1.0000 </r>
       <r>    2.5608    1.0000 </r>
       <r>    2.7888    1.0000 </r>
       <r>    2.9797    1.0000 </r>
       <r>    3.3110    1.0000 </r>
       <r>    3.6040    1.0000 </r>
       <r>    3.7474    1.0000 </r>
       <r>    6.0914   -0.0000 </r>
       <r>    6.9263   -0.0000 </r>
       <r>    7.6111    0.0000 </r>
       <r>    8.0696    0.0000 </r>
       <r>    8.4072    0.0000 </r>
       <r>    8.6084    0.0000 </r>
       <r>    8.9825    0.0000 </r>
       <r>    9.1517    0.0000 </r>
       <r>   10.0868    0.0000 </r>
       <r>   10.3386    0.0000 </r>
       <r>   10.7334    0.0000 </r>
       <r>   11.1117    0.0000 </r>
       <r>   11.4655    0.0000 </r>
       <r>   11.5963    0.0000 </r>
       <r>   11.8012    0.0000 </r>
       <r>   12.0892    0.0000 </r>
       <r>   12.4765    0.0000 </r>
       <r>   12.9117    0.0000 </r>
       <r>   13.0305    0.0000 </r>
       <r>   13.8218    0.0000 </r>
       <r>   14.2114    0.0000 </r>
       <r>   14.6428    0.0000 </r>
       <r>   15.4248    0.0000 </r>
       <r>   15.6364    0.0000 </r>
      </set>
      <set comment="kpoint 7">
       <r>  -68.6503    1.0000 </r>
       <r>  -68.6456    1.0000 </r>
       <r>  -68.6411    1.0000 </r>
       <r>  -68.6329    1.0000 </r>
       <r>  -68.6173    1.0000 </r>
       <r>  -68.6134    1.0000 </r>
       <r>  -68.6012    1.0000 </r>
       <r>  -68.5961    1.0000 </r>
       <r>  -68.5843    1.0000 </r>
       <r>  -68.5770    1.0000 </r>
       <r>  -68.5677    1.0000 </r>
       <r>  -68.5602    1.0000 </r>
       <r>  -12.5909    1.0000 </r>
       <r>  -11.2525    1.0000 </r>
       <r>  -10.9858    1.0000 </r>
       <r>  -10.5700    1.0000 </r>
       <r>  -10.3667    1.0000 </r>
       <r>  -10.1805    1.0000 </r>
       <r>   -5.9999    1.0000 </r>
       <r>   -4.8991    1.0000 </r>
       <r>   -2.6450    1.0000 </r>
       <r>   -2.3125    1.0000 </r>
       <r>   -1.9674    1.0000 </r>
       <r>   -1.6460    1.0000 </r>
       <r>   -1.4956    1.0000 </r>
       <r>   -1.1815    1.0000 </r>
       <r>   -0.7923    1.0000 </r>
       <r>   -0.5855    1.0000 </r>
       <r>   -0.4476    1.0000 </r>
       <r>   -0.3383    1.0000 </r>
       <r>   -0.2968    1.0000 </r>
       <r>   -0.2349    1.0000 </r>
       <r>   -0.1779    1.0000 </r>
       <r>   -0.1347    1.0000 </r>
       <r>   -0.0121    1.0000 </r>
       <r>    0.0703    1.0000 </r>
       <r>    1.2561    1.0000 </r>
       <r>    1.3178    1.0000 </r>
       <r>    1.3622    1.0000 </r>
       <r>    1.4204    1.0000 </r>
       <r>    1.4279    1.0000 </r>
       <r>    1.4732    1.0000 </r>
       <r>    1.5013    1.0000 </r>
       <r>    1.5414    1.0000 </r>
       <r>    1.7239    1.0000 </r>
       <r>    1.8112    1.0000 </r>
       <r>    1.9935    1.0000 </r>
       <r>    2.0712    1.0000 </r>
       <r>    2.4178    1.0000 </r>
       <r>    2.4616    1.0000 </r>
       <r>    2.5288    1.0000 </r>
       <r>    2.8722    1.0000 </r>
       <r>    3.1413    1.0000 </r>
       <r>    3.2284    1.0000 </r>
       <r>    3.7830    1.0000 </r>
       <r>    4.0709    1.0261 </r>
       <r>    5.9816   -0.0000 </r>
       <r>    6.6785   -0.0000 </r>
       <r>    7.5268    0.0000 </r>
       <r>    8.2267    0.0000 </r>
       <r>    8.6117    0.0000 </r>
       <r>    8.9035    0.0000 </r>
       <r>    9.3087    0.0000 </r>
       <r>    9.4344    0.0000 </r>
       <r>    9.8052    0.0000 </r>
       <r>   10.2770    0.0000 </r>
       <r>   10.5474    0.0000 </r>
       <r>   10.8337    0.0000 </r>
       <r>   10.9735    0.0000 </r>
       <r>   11.3841    0.0000 </r>
       <r>   11.4726    0.0000 </r>
       <r>   11.7312    0.0000 </r>
       <r>   12.1011    0.0000 </r>
       <r>   12.6631    0.0000 </r>
       <r>   12.9434    0.0000 </r>
       <r>   13.0994    0.0000 </r>
       <r>   13.3510    0.0000 </r>
       <r>   13.5190    0.0000 </r>
       <r>   14.4802    0.0000 </r>
       <r>   14.7574    0.0000 </r>
      </set>
      <set comment="kpoint 8">
       <r>  -68.6502    1.0000 </r>
       <r>  -68.6454    1.0000 </r>
       <r>  -68.6411    1.0000 </r>
       <r>  -68.6329    1.0000 </r>
       <r>  -68.6173    1.0000 </r>
       <r>  -68.6135    1.0000 </r>
       <r>  -68.6011    1.0000 </r>
       <r>  -68.5960    1.0000 </r>
       <r>  -68.5843    1.0000 </r>
       <r>  -68.5770    1.0000 </r>
       <r>  -68.5675    1.0000 </r>
       <r>  -68.5600    1.0000 </r>
       <r>  -12.4273    1.0000 </r>
       <r>  -11.2504    1.0000 </r>
       <r>  -10.9512    1.0000 </r>
       <r>  -10.7667    1.0000 </r>
       <r>  -10.4244    1.0000 </r>
       <r>  -10.3598    1.0000 </r>
       <r>   -5.8602    1.0000 </r>
       <r>   -4.5542    1.0000 </r>
       <r>   -2.4898    1.0000 </r>
       <r>   -2.2394    1.0000 </r>
       <r>   -1.9468    1.0000 </r>
       <r>   -1.4675    1.0000 </r>
       <r>   -1.2299    1.0000 </r>
       <r>   -1.1025    1.0000 </r>
       <r>   -0.9047    1.0000 </r>
       <r>   -0.8652    1.0000 </r>
       <r>   -0.5991    1.0000 </r>
       <r>   -0.5357    1.0000 </r>
       <r>   -0.2752    1.0000 </r>
       <r>   -0.2058    1.0000 </r>
       <r>   -0.2030    1.0000 </r>
       <r>   -0.1456    1.0000 </r>
       <r>   -0.0320    1.0000 </r>
       <r>    0.0791    1.0000 </r>
       <r>    1.2507    1.0000 </r>
       <r>    1.3237    1.0000 </r>
       <r>    1.3463    1.0000 </r>
       <r>    1.3959    1.0000 </r>
       <r>    1.4677    1.0000 </r>
       <r>    1.4752    1.0000 </r>
       <r>    1.4973    1.0000 </r>
       <r>    1.5522    1.0000 </r>
       <r>    1.7499    1.0000 </r>
       <r>    1.7882    1.0000 </r>
       <r>    1.9650    1.0000 </r>
       <r>    2.1464    1.0000 </r>
       <r>    2.3240    1.0000 </r>
       <r>    2.3653    1.0000 </r>
       <r>    2.5541    1.0000 </r>
       <r>    2.6684    1.0000 </r>
       <r>    2.9382    1.0000 </r>
       <r>    3.0820    1.0000 </r>
       <r>    3.2450    1.0000 </r>
       <r>    3.8610    1.0000 </r>
       <r>    6.3871   -0.0000 </r>
       <r>    7.0832    0.0000 </r>
       <r>    7.9795    0.0000 </r>
       <r>    8.1870    0.0000 </r>
       <r>    8.5216    0.0000 </r>
       <r>    8.8177    0.0000 </r>
       <r>    9.3271    0.0000 </r>
       <r>    9.8925    0.0000 </r>
       <r>   10.0142    0.0000 </r>
       <r>   10.5199    0.0000 </r>
       <r>   10.6925    0.0000 </r>
       <r>   10.7971    0.0000 </r>
       <r>   11.1429    0.0000 </r>
       <r>   11.4073    0.0000 </r>
       <r>   11.6156    0.0000 </r>
       <r>   11.7737    0.0000 </r>
       <r>   11.9518    0.0000 </r>
       <r>   12.5008    0.0000 </r>
       <r>   12.8276    0.0000 </r>
       <r>   13.0306    0.0000 </r>
       <r>   13.5511    0.0000 </r>
       <r>   13.6827    0.0000 </r>
       <r>   14.5528    0.0000 </r>
       <r>   15.2457    0.0000 </r>
      </set>
      <set comment="kpoint 9">
       <r>  -68.6501    1.0000 </r>
       <r>  -68.6454    1.0000 </r>
       <r>  -68.6411    1.0000 </r>
       <r>  -68.6329    1.0000 </r>
       <r>  -68.6173    1.0000 </r>
       <r>  -68.6135    1.0000 </r>
       <r>  -68.6011    1.0000 </r>
       <r>  -68.5961    1.0000 </r>
       <r>  -68.5843    1.0000 </r>
       <r>  -68.5770    1.0000 </r>
       <r>  -68.5675    1.0000 </r>
       <r>  -68.5601    1.0000 </r>
       <r>  -12.4313    1.0000 </r>
       <r>  -11.3563    1.0000 </r>
       <r>  -10.9314    1.0000 </r>
       <r>  -10.7393    1.0000 </r>
       <r>  -10.3886    1.0000 </r>
       <r>  -10.2720    1.0000 </r>
       <r>   -5.9377    1.0000 </r>
       <r>   -4.6477    1.0000 </r>
       <r>   -2.3883    1.0000 </r>
       <r>   -2.2235    1.0000 </r>
       <r>   -2.0545    1.0000 </r>
       <r>   -1.6429    1.0000 </r>
       <r>   -1.3645    1.0000 </r>
       <r>   -1.2806    1.0000 </r>
       <r>   -1.0234    1.0000 </r>
       <r>   -0.5124    1.0000 </r>
       <r>   -0.4831    1.0000 </r>
       <r>   -0.3347    1.0000 </r>
       <r>   -0.2868    1.0000 </r>
       <r>   -0.2155    1.0000 </r>
       <r>   -0.1531    1.0000 </r>
       <r>   -0.1349    1.0000 </r>
       <r>   -0.0136    1.0000 </r>
       <r>    0.1119    1.0000 </r>
       <r>    1.2426    1.0000 </r>
       <r>    1.3139    1.0000 </r>
       <r>    1.3787    1.0000 </r>
       <r>    1.4344    1.0000 </r>
       <r>    1.4590    1.0000 </r>
       <r>    1.4891    1.0000 </r>
       <r>    1.4948    1.0000 </r>
       <r>    1.5489    1.0000 </r>
       <r>    1.7485    1.0000 </r>
       <r>    1.8244    1.0000 </r>
       <r>    1.9208    1.0000 </r>
       <r>    2.1327    1.0000 </r>
       <r>    2.2217    1.0000 </r>
       <r>    2.3855    1.0000 </r>
       <r>    2.5608    1.0000 </r>
       <r>    2.7916    1.0000 </r>
       <r>    2.9781    1.0000 </r>
       <r>    3.3114    1.0000 </r>
       <r>    3.6018    1.0000 </r>
       <r>    3.7471    1.0000 </r>
       <r>    6.0900   -0.0000 </r>
       <r>    6.9242   -0.0000 </r>
       <r>    7.6090    0.0000 </r>
       <r>    8.0687    0.0000 </r>
       <r>    8.4061    0.0000 </r>
       <r>    8.6136    0.0000 </r>
       <r>    8.9825    0.0000 </r>
       <r>    9.1515    0.0000 </r>
       <r>   10.0897    0.0000 </r>
       <r>   10.3411    0.0000 </r>
       <r>   10.7333    0.0000 </r>
       <r>   11.1131    0.0000 </r>
       <r>   11.4578    0.0000 </r>
       <r>   11.5797    0.0000 </r>
       <r>   11.7866    0.0000 </r>
       <r>   12.0358    0.0000 </r>
       <r>   12.5209    0.0000 </r>
       <r>   12.6844    0.0000 </r>
       <r>   12.9085    0.0000 </r>
       <r>   13.2140    0.0000 </r>
       <r>   14.2325    0.0000 </r>
       <r>   14.7714    0.0000 </r>
       <r>   15.2549    0.0000 </r>
       <r>   15.9131    0.0000 </r>
      </set>
      <set comment="kpoint 10">
       <r>  -68.6499    1.0000 </r>
       <r>  -68.6452    1.0000 </r>
       <r>  -68.6410    1.0000 </r>
       <r>  -68.6327    1.0000 </r>
       <r>  -68.6172    1.0000 </r>
       <r>  -68.6133    1.0000 </r>
       <r>  -68.6009    1.0000 </r>
       <r>  -68.5959    1.0000 </r>
       <r>  -68.5842    1.0000 </r>
       <r>  -68.5769    1.0000 </r>
       <r>  -68.5673    1.0000 </r>
       <r>  -68.5598    1.0000 </r>
       <r>  -12.4226    1.0000 </r>
       <r>  -11.5047    1.0000 </r>
       <r>  -10.9057    1.0000 </r>
       <r>  -10.6186    1.0000 </r>
       <r>  -10.3985    1.0000 </r>
       <r>  -10.1995    1.0000 </r>
       <r>   -6.0167    1.0000 </r>
       <r>   -4.8152    1.0000 </r>
       <r>   -2.3094    1.0000 </r>
       <r>   -2.2635    1.0000 </r>
       <r>   -2.0924    1.0000 </r>
       <r>   -1.7002    1.0000 </r>
       <r>   -1.2442    1.0000 </r>
       <r>   -1.1097    1.0000 </r>
       <r>   -0.8436    1.0000 </r>
       <r>   -0.7787    1.0000 </r>
       <r>   -0.7287    1.0000 </r>
       <r>   -0.2467    1.0000 </r>
       <r>   -0.2026    1.0000 </r>
       <r>   -0.1819    1.0000 </r>
       <r>   -0.1574    1.0000 </r>
       <r>   -0.0442    1.0000 </r>
       <r>   -0.0051    1.0000 </r>
       <r>    0.1840    1.0000 </r>
       <r>    1.2630    1.0000 </r>
       <r>    1.3156    1.0000 </r>
       <r>    1.3720    1.0000 </r>
       <r>    1.4102    1.0000 </r>
       <r>    1.4303    1.0000 </r>
       <r>    1.4901    1.0000 </r>
       <r>    1.5064    1.0000 </r>
       <r>    1.5481    1.0000 </r>
       <r>    1.7856    1.0000 </r>
       <r>    1.8463    1.0000 </r>
       <r>    1.9941    1.0000 </r>
       <r>    2.1484    1.0000 </r>
       <r>    2.2512    1.0000 </r>
       <r>    2.3369    1.0000 </r>
       <r>    2.5576    1.0000 </r>
       <r>    2.7621    1.0000 </r>
       <r>    2.7760    1.0000 </r>
       <r>    3.3680    1.0000 </r>
       <r>    3.7628    1.0000 </r>
       <r>    4.0073    1.0045 </r>
       <r>    5.8575   -0.0000 </r>
       <r>    6.7593   -0.0000 </r>
       <r>    7.0730    0.0000 </r>
       <r>    8.4115    0.0000 </r>
       <r>    8.5587    0.0000 </r>
       <r>    8.7745    0.0000 </r>
       <r>    9.1388    0.0000 </r>
       <r>    9.2357    0.0000 </r>
       <r>    9.9615    0.0000 </r>
       <r>   10.2930    0.0000 </r>
       <r>   10.7299    0.0000 </r>
       <r>   10.8241    0.0000 </r>
       <r>   10.8725    0.0000 </r>
       <r>   11.2805    0.0000 </r>
       <r>   11.7576    0.0000 </r>
       <r>   11.9102    0.0000 </r>
       <r>   11.9738    0.0000 </r>
       <r>   12.3701    0.0000 </r>
       <r>   12.5385    0.0000 </r>
       <r>   13.4650    0.0000 </r>
       <r>   14.2760    0.0000 </r>
       <r>   14.6851    0.0000 </r>
       <r>   16.7461    0.0000 </r>
       <r>   16.7502    0.0000 </r>
      </set>
      <set comment="kpoint 11">
       <r>  -68.6504    1.0000 </r>
       <r>  -68.6456    1.0000 </r>
       <r>  -68.6412    1.0000 </r>
       <r>  -68.6330    1.0000 </r>
       <r>  -68.6174    1.0000 </r>
       <r>  -68.6135    1.0000 </r>
       <r>  -68.6012    1.0000 </r>
       <r>  -68.5961    1.0000 </r>
       <r>  -68.5844    1.0000 </r>
       <r>  -68.5771    1.0000 </r>
       <r>  -68.5677    1.0000 </r>
       <r>  -68.5602    1.0000 </r>
       <r>  -12.6107    1.0000 </r>
       <r>  -11.4208    1.0000 </r>
       <r>  -10.7789    1.0000 </r>
       <r>  -10.6060    1.0000 </r>
       <r>  -10.2504    1.0000 </r>
       <r>  -10.2375    1.0000 </r>
       <r>   -5.8215    1.0000 </r>
       <r>   -5.0495    1.0000 </r>
       <r>   -2.5976    1.0000 </r>
       <r>   -2.3693    1.0000 </r>
       <r>   -1.9619    1.0000 </r>
       <r>   -1.7729    1.0000 </r>
       <r>   -1.4425    1.0000 </r>
       <r>   -1.1296    1.0000 </r>
       <r>   -1.0683    1.0000 </r>
       <r>   -0.7757    1.0000 </r>
       <r>   -0.4706    1.0000 </r>
       <r>   -0.2958    1.0000 </r>
       <r>   -0.2415    1.0000 </r>
       <r>   -0.2358    1.0000 </r>
       <r>   -0.1934    1.0000 </r>
       <r>   -0.1475    1.0000 </r>
       <r>   -0.0195    1.0000 </r>
       <r>    0.0215    1.0000 </r>
       <r>    1.3308    1.0000 </r>
       <r>    1.3791    1.0000 </r>
       <r>    1.4139    1.0000 </r>
       <r>    1.4369    1.0000 </r>
       <r>    1.4607    1.0000 </r>
       <r>    1.4649    1.0000 </r>
       <r>    1.5123    1.0000 </r>
       <r>    1.5442    1.0000 </r>
       <r>    1.6318    1.0000 </r>
       <r>    1.7564    1.0000 </r>
       <r>    1.7863    1.0000 </r>
       <r>    1.9495    1.0000 </r>
       <r>    2.0878    1.0000 </r>
       <r>    2.6582    1.0000 </r>
       <r>    2.7178    1.0000 </r>
       <r>    3.1972    1.0000 </r>
       <r>    3.2524    1.0000 </r>
       <r>    3.5205    1.0000 </r>
       <r>    3.8954    1.0000 </r>
       <r>    3.9778    1.0013 </r>
       <r>    6.0424   -0.0000 </r>
       <r>    6.4053   -0.0000 </r>
       <r>    7.8290    0.0000 </r>
       <r>    7.9064    0.0000 </r>
       <r>    8.3615    0.0000 </r>
       <r>    8.8112    0.0000 </r>
       <r>    9.7740    0.0000 </r>
       <r>    9.7930    0.0000 </r>
       <r>   10.0617    0.0000 </r>
       <r>   10.5876    0.0000 </r>
       <r>   10.6473    0.0000 </r>
       <r>   10.8156    0.0000 </r>
       <r>   10.8621    0.0000 </r>
       <r>   11.4963    0.0000 </r>
       <r>   11.5615    0.0000 </r>
       <r>   12.0280    0.0000 </r>
       <r>   12.5802    0.0000 </r>
       <r>   12.7735    0.0000 </r>
       <r>   12.9140    0.0000 </r>
       <r>   13.2043    0.0000 </r>
       <r>   13.5351    0.0000 </r>
       <r>   13.8218    0.0000 </r>
       <r>   14.1975    0.0000 </r>
       <r>   14.7080    0.0000 </r>
      </set>
      <set comment="kpoint 12">
       <r>  -68.6503    1.0000 </r>
       <r>  -68.6456    1.0000 </r>
       <r>  -68.6412    1.0000 </r>
       <r>  -68.6330    1.0000 </r>
       <r>  -68.6175    1.0000 </r>
       <r>  -68.6136    1.0000 </r>
       <r>  -68.6012    1.0000 </r>
       <r>  -68.5961    1.0000 </r>
       <r>  -68.5844    1.0000 </r>
       <r>  -68.5771    1.0000 </r>
       <r>  -68.5676    1.0000 </r>
       <r>  -68.5601    1.0000 </r>
       <r>  -12.4502    1.0000 </r>
       <r>  -11.4645    1.0000 </r>
       <r>  -10.8614    1.0000 </r>
       <r>  -10.6897    1.0000 </r>
       <r>  -10.3737    1.0000 </r>
       <r>  -10.2455    1.0000 </r>
       <r>   -5.7578    1.0000 </r>
       <r>   -4.8065    1.0000 </r>
       <r>   -2.4431    1.0000 </r>
       <r>   -2.2318    1.0000 </r>
       <r>   -1.8488    1.0000 </r>
       <r>   -1.7096    1.0000 </r>
       <r>   -1.4311    1.0000 </r>
       <r>   -1.1914    1.0000 </r>
       <r>   -0.8916    1.0000 </r>
       <r>   -0.7477    1.0000 </r>
       <r>   -0.6101    1.0000 </r>
       <r>   -0.5251    1.0000 </r>
       <r>   -0.3131    1.0000 </r>
       <r>   -0.2476    1.0000 </r>
       <r>   -0.1755    1.0000 </r>
       <r>   -0.1234    1.0000 </r>
       <r>   -0.0544    1.0000 </r>
       <r>    0.0599    1.0000 </r>
       <r>    1.3003    1.0000 </r>
       <r>    1.3329    1.0000 </r>
       <r>    1.3665    1.0000 </r>
       <r>    1.4306    1.0000 </r>
       <r>    1.4436    1.0000 </r>
       <r>    1.4774    1.0000 </r>
       <r>    1.5178    1.0000 </r>
       <r>    1.5440    1.0000 </r>
       <r>    1.6405    1.0000 </r>
       <r>    1.8678    1.0000 </r>
       <r>    1.9786    1.0000 </r>
       <r>    2.0467    1.0000 </r>
       <r>    2.1935    1.0000 </r>
       <r>    2.4745    1.0000 </r>
       <r>    2.5957    1.0000 </r>
       <r>    2.8386    1.0000 </r>
       <r>    2.9638    1.0000 </r>
       <r>    3.1321    1.0000 </r>
       <r>    3.5673    1.0000 </r>
       <r>    3.7247    1.0000 </r>
       <r>    6.4436   -0.0000 </r>
       <r>    6.9420   -0.0000 </r>
       <r>    8.1719    0.0000 </r>
       <r>    8.2443    0.0000 </r>
       <r>    8.8328    0.0000 </r>
       <r>    9.1265    0.0000 </r>
       <r>    9.4646    0.0000 </r>
       <r>    9.7915    0.0000 </r>
       <r>   10.0868    0.0000 </r>
       <r>   10.3058    0.0000 </r>
       <r>   10.7427    0.0000 </r>
       <r>   11.0774    0.0000 </r>
       <r>   11.2952    0.0000 </r>
       <r>   11.4236    0.0000 </r>
       <r>   11.6332    0.0000 </r>
       <r>   11.7248    0.0000 </r>
       <r>   12.0853    0.0000 </r>
       <r>   12.2670    0.0000 </r>
       <r>   12.5389    0.0000 </r>
       <r>   12.6589    0.0000 </r>
       <r>   12.9550    0.0000 </r>
       <r>   13.0598    0.0000 </r>
       <r>   13.6411    0.0000 </r>
       <r>   14.6907    0.0000 </r>
      </set>
      <set comment="kpoint 13">
       <r>  -68.6501    1.0000 </r>
       <r>  -68.6454    1.0000 </r>
       <r>  -68.6411    1.0000 </r>
       <r>  -68.6329    1.0000 </r>
       <r>  -68.6173    1.0000 </r>
       <r>  -68.6134    1.0000 </r>
       <r>  -68.6011    1.0000 </r>
       <r>  -68.5960    1.0000 </r>
       <r>  -68.5843    1.0000 </r>
       <r>  -68.5771    1.0000 </r>
       <r>  -68.5676    1.0000 </r>
       <r>  -68.5600    1.0000 </r>
       <r>  -12.3472    1.0000 </r>
       <r>  -11.4107    1.0000 </r>
       <r>  -10.9527    1.0000 </r>
       <r>  -10.6832    1.0000 </r>
       <r>  -10.4783    1.0000 </r>
       <r>  -10.3351    1.0000 </r>
       <r>   -5.7434    1.0000 </r>
       <r>   -4.7257    1.0000 </r>
       <r>   -2.5208    1.0000 </r>
       <r>   -2.1834    1.0000 </r>
       <r>   -1.9512    1.0000 </r>
       <r>   -1.5324    1.0000 </r>
       <r>   -1.2983    1.0000 </r>
       <r>   -1.0996    1.0000 </r>
       <r>   -0.8714    1.0000 </r>
       <r>   -0.7541    1.0000 </r>
       <r>   -0.5519    1.0000 </r>
       <r>   -0.4477    1.0000 </r>
       <r>   -0.2910    1.0000 </r>
       <r>   -0.1835    1.0000 </r>
       <r>   -0.1477    1.0000 </r>
       <r>   -0.1115    1.0000 </r>
       <r>   -0.0460    1.0000 </r>
       <r>    0.0235    1.0000 </r>
       <r>    1.2707    1.0000 </r>
       <r>    1.2940    1.0000 </r>
       <r>    1.3486    1.0000 </r>
       <r>    1.4267    1.0000 </r>
       <r>    1.4491    1.0000 </r>
       <r>    1.4784    1.0000 </r>
       <r>    1.4991    1.0000 </r>
       <r>    1.5855    1.0000 </r>
       <r>    1.7172    1.0000 </r>
       <r>    1.9307    1.0000 </r>
       <r>    2.0757    1.0000 </r>
       <r>    2.1441    1.0000 </r>
       <r>    2.2660    1.0000 </r>
       <r>    2.4021    1.0000 </r>
       <r>    2.5667    1.0000 </r>
       <r>    2.5970    1.0000 </r>
       <r>    2.8988    1.0000 </r>
       <r>    3.0083    1.0000 </r>
       <r>    3.3581    1.0000 </r>
       <r>    3.8997    1.0000 </r>
       <r>    6.3694   -0.0000 </r>
       <r>    6.8790   -0.0000 </r>
       <r>    7.5715    0.0000 </r>
       <r>    8.0884    0.0000 </r>
       <r>    8.5493    0.0000 </r>
       <r>    8.7971    0.0000 </r>
       <r>    9.2692    0.0000 </r>
       <r>    9.6332    0.0000 </r>
       <r>    9.9324    0.0000 </r>
       <r>   10.2773    0.0000 </r>
       <r>   10.6580    0.0000 </r>
       <r>   10.9308    0.0000 </r>
       <r>   10.9715    0.0000 </r>
       <r>   11.2818    0.0000 </r>
       <r>   11.5205    0.0000 </r>
       <r>   11.7885    0.0000 </r>
       <r>   12.2451    0.0000 </r>
       <r>   12.5444    0.0000 </r>
       <r>   13.0973    0.0000 </r>
       <r>   13.5166    0.0000 </r>
       <r>   14.2911    0.0000 </r>
       <r>   14.5658    0.0000 </r>
       <r>   15.1223    0.0000 </r>
       <r>   16.2711    0.0000 </r>
      </set>
      <set comment="kpoint 14">
       <r>  -68.6504    1.0000 </r>
       <r>  -68.6456    1.0000 </r>
       <r>  -68.6411    1.0000 </r>
       <r>  -68.6329    1.0000 </r>
       <r>  -68.6174    1.0000 </r>
       <r>  -68.6135    1.0000 </r>
       <r>  -68.6012    1.0000 </r>
       <r>  -68.5961    1.0000 </r>
       <r>  -68.5844    1.0000 </r>
       <r>  -68.5771    1.0000 </r>
       <r>  -68.5677    1.0000 </r>
       <r>  -68.5602    1.0000 </r>
       <r>  -12.5342    1.0000 </r>
       <r>  -11.3310    1.0000 </r>
       <r>  -10.8757    1.0000 </r>
       <r>  -10.6043    1.0000 </r>
       <r>  -10.3985    1.0000 </r>
       <r>  -10.2836    1.0000 </r>
       <r>   -5.8155    1.0000 </r>
       <r>   -4.9785    1.0000 </r>
       <r>   -2.6630    1.0000 </r>
       <r>   -2.4511    1.0000 </r>
       <r>   -2.0384    1.0000 </r>
       <r>   -1.5723    1.0000 </r>
       <r>   -1.1710    1.0000 </r>
       <r>   -0.9830    1.0000 </r>
       <r>   -0.7997    1.0000 </r>
       <r>   -0.6552    1.0000 </r>
       <r>   -0.5160    1.0000 </r>
       <r>   -0.3899    1.0000 </r>
       <r>   -0.2747    1.0000 </r>
       <r>   -0.2573    1.0000 </r>
       <r>   -0.1943    1.0000 </r>
       <r>   -0.1453    1.0000 </r>
       <r>   -0.0483    1.0000 </r>
       <r>    0.0118    1.0000 </r>
       <r>    1.2881    1.0000 </r>
       <r>    1.3069    1.0000 </r>
       <r>    1.3876    1.0000 </r>
       <r>    1.4050    1.0000 </r>
       <r>    1.4314    1.0000 </r>
       <r>    1.4521    1.0000 </r>
       <r>    1.4903    1.0000 </r>
       <r>    1.5641    1.0000 </r>
       <r>    1.6867    1.0000 </r>
       <r>    1.9142    1.0000 </r>
       <r>    1.9850    1.0000 </r>
       <r>    2.1440    1.0000 </r>
       <r>    2.3338    1.0000 </r>
       <r>    2.5647    1.0000 </r>
       <r>    2.6169    1.0000 </r>
       <r>    2.8293    1.0000 </r>
       <r>    2.9715    1.0000 </r>
       <r>    3.2460    1.0000 </r>
       <r>    3.6837    1.0000 </r>
       <r>    3.9461    1.0003 </r>
       <r>    6.1799   -0.0000 </r>
       <r>    6.6255   -0.0000 </r>
       <r>    7.7639    0.0000 </r>
       <r>    7.9689    0.0000 </r>
       <r>    8.2179    0.0000 </r>
       <r>    8.5549    0.0000 </r>
       <r>    9.3771    0.0000 </r>
       <r>    9.5775    0.0000 </r>
       <r>    9.9081    0.0000 </r>
       <r>   10.2541    0.0000 </r>
       <r>   10.5418    0.0000 </r>
       <r>   10.7894    0.0000 </r>
       <r>   10.8460    0.0000 </r>
       <r>   11.0724    0.0000 </r>
       <r>   11.5658    0.0000 </r>
       <r>   12.0262    0.0000 </r>
       <r>   12.5245    0.0000 </r>
       <r>   12.7556    0.0000 </r>
       <r>   12.9530    0.0000 </r>
       <r>   13.3115    0.0000 </r>
       <r>   13.4152    0.0000 </r>
       <r>   13.7402    0.0000 </r>
       <r>   13.8467    0.0000 </r>
       <r>   14.7284    0.0000 </r>
      </set>
      <set comment="kpoint 15">
       <r>  -68.6503    1.0000 </r>
       <r>  -68.6456    1.0000 </r>
       <r>  -68.6412    1.0000 </r>
       <r>  -68.6330    1.0000 </r>
       <r>  -68.6175    1.0000 </r>
       <r>  -68.6136    1.0000 </r>
       <r>  -68.6012    1.0000 </r>
       <r>  -68.5961    1.0000 </r>
       <r>  -68.5844    1.0000 </r>
       <r>  -68.5771    1.0000 </r>
       <r>  -68.5676    1.0000 </r>
       <r>  -68.5601    1.0000 </r>
       <r>  -12.4507    1.0000 </r>
       <r>  -11.4621    1.0000 </r>
       <r>  -10.8650    1.0000 </r>
       <r>  -10.6888    1.0000 </r>
       <r>  -10.3736    1.0000 </r>
       <r>  -10.2449    1.0000 </r>
       <r>   -5.7564    1.0000 </r>
       <r>   -4.8079    1.0000 </r>
       <r>   -2.4418    1.0000 </r>
       <r>   -2.2299    1.0000 </r>
       <r>   -1.8507    1.0000 </r>
       <r>   -1.7150    1.0000 </r>
       <r>   -1.4319    1.0000 </r>
       <r>   -1.1897    1.0000 </r>
       <r>   -0.8909    1.0000 </r>
       <r>   -0.7477    1.0000 </r>
       <r>   -0.6068    1.0000 </r>
       <r>   -0.5309    1.0000 </r>
       <r>   -0.3116    1.0000 </r>
       <r>   -0.2437    1.0000 </r>
       <r>   -0.1736    1.0000 </r>
       <r>   -0.1247    1.0000 </r>
       <r>   -0.0547    1.0000 </r>
       <r>    0.0594    1.0000 </r>
       <r>    1.2991    1.0000 </r>
       <r>    1.3343    1.0000 </r>
       <r>    1.3671    1.0000 </r>
       <r>    1.4271    1.0000 </r>
       <r>    1.4440    1.0000 </r>
       <r>    1.4760    1.0000 </r>
       <r>    1.5197    1.0000 </r>
       <r>    1.5438    1.0000 </r>
       <r>    1.6417    1.0000 </r>
       <r>    1.8702    1.0000 </r>
       <r>    1.9796    1.0000 </r>
       <r>    2.0475    1.0000 </r>
       <r>    2.1924    1.0000 </r>
       <r>    2.4741    1.0000 </r>
       <r>    2.5943    1.0000 </r>
       <r>    2.8382    1.0000 </r>
       <r>    2.9643    1.0000 </r>
       <r>    3.1355    1.0000 </r>
       <r>    3.5676    1.0000 </r>
       <r>    3.7238    1.0000 </r>
       <r>    6.4386   -0.0000 </r>
       <r>    6.9440   -0.0000 </r>
       <r>    8.1690    0.0000 </r>
       <r>    8.2465    0.0000 </r>
       <r>    8.8283    0.0000 </r>
       <r>    9.1257    0.0000 </r>
       <r>    9.4698    0.0000 </r>
       <r>    9.7967    0.0000 </r>
       <r>   10.0885    0.0000 </r>
       <r>   10.2967    0.0000 </r>
       <r>   10.7415    0.0000 </r>
       <r>   11.0770    0.0000 </r>
       <r>   11.2945    0.0000 </r>
       <r>   11.4254    0.0000 </r>
       <r>   11.6340    0.0000 </r>
       <r>   11.7249    0.0000 </r>
       <r>   12.0849    0.0000 </r>
       <r>   12.2662    0.0000 </r>
       <r>   12.5444    0.0000 </r>
       <r>   12.6574    0.0000 </r>
       <r>   12.9538    0.0000 </r>
       <r>   13.0549    0.0000 </r>
       <r>   13.6599    0.0000 </r>
       <r>   14.6965    0.0000 </r>
      </set>
      <set comment="kpoint 16">
       <r>  -68.6502    1.0000 </r>
       <r>  -68.6455    1.0000 </r>
       <r>  -68.6410    1.0000 </r>
       <r>  -68.6328    1.0000 </r>
       <r>  -68.6173    1.0000 </r>
       <r>  -68.6134    1.0000 </r>
       <r>  -68.6010    1.0000 </r>
       <r>  -68.5959    1.0000 </r>
       <r>  -68.5843    1.0000 </r>
       <r>  -68.5770    1.0000 </r>
       <r>  -68.5675    1.0000 </r>
       <r>  -68.5600    1.0000 </r>
       <r>  -12.3173    1.0000 </r>
       <r>  -11.4736    1.0000 </r>
       <r>  -10.8645    1.0000 </r>
       <r>  -10.8538    1.0000 </r>
       <r>  -10.4074    1.0000 </r>
       <r>  -10.2868    1.0000 </r>
       <r>   -5.7393    1.0000 </r>
       <r>   -4.6956    1.0000 </r>
       <r>   -2.2391    1.0000 </r>
       <r>   -2.1351    1.0000 </r>
       <r>   -1.9260    1.0000 </r>
       <r>   -1.8493    1.0000 </r>
       <r>   -1.4560    1.0000 </r>
       <r>   -1.3974    1.0000 </r>
       <r>   -1.0387    1.0000 </r>
       <r>   -0.5214    1.0000 </r>
       <r>   -0.4657    1.0000 </r>
       <r>   -0.3532    1.0000 </r>
       <r>   -0.2507    1.0000 </r>
       <r>   -0.2185    1.0000 </r>
       <r>   -0.1611    1.0000 </r>
       <r>   -0.1135    1.0000 </r>
       <r>   -0.0920    1.0000 </r>
       <r>    0.0799    1.0000 </r>
       <r>    1.2583    1.0000 </r>
       <r>    1.3450    1.0000 </r>
       <r>    1.3952    1.0000 </r>
       <r>    1.4327    1.0000 </r>
       <r>    1.4502    1.0000 </r>
       <r>    1.5072    1.0000 </r>
       <r>    1.5332    1.0000 </r>
       <r>    1.5417    1.0000 </r>
       <r>    1.7517    1.0000 </r>
       <r>    1.8163    1.0000 </r>
       <r>    2.0388    1.0000 </r>
       <r>    2.1352    1.0000 </r>
       <r>    2.2843    1.0000 </r>
       <r>    2.3111    1.0000 </r>
       <r>    2.5213    1.0000 </r>
       <r>    2.7678    1.0000 </r>
       <r>    2.8976    1.0000 </r>
       <r>    3.2629    1.0000 </r>
       <r>    3.4955    1.0000 </r>
       <r>    3.7999    1.0000 </r>
       <r>    6.1821   -0.0000 </r>
       <r>    6.8273   -0.0000 </r>
       <r>    7.8233    0.0000 </r>
       <r>    8.0422    0.0000 </r>
       <r>    8.1878    0.0000 </r>
       <r>    8.7288    0.0000 </r>
       <r>    9.1518    0.0000 </r>
       <r>    9.3051    0.0000 </r>
       <r>   10.2232    0.0000 </r>
       <r>   10.4452    0.0000 </r>
       <r>   10.5916    0.0000 </r>
       <r>   11.0080    0.0000 </r>
       <r>   11.2383    0.0000 </r>
       <r>   11.4895    0.0000 </r>
       <r>   11.8127    0.0000 </r>
       <r>   12.1736    0.0000 </r>
       <r>   12.2102    0.0000 </r>
       <r>   12.5744    0.0000 </r>
       <r>   12.6895    0.0000 </r>
       <r>   13.1148    0.0000 </r>
       <r>   13.4148    0.0000 </r>
       <r>   13.8812    0.0000 </r>
       <r>   14.0085    0.0000 </r>
       <r>   14.5249    0.0000 </r>
      </set>
      <set comment="kpoint 17">
       <r>  -68.6501    1.0000 </r>
       <r>  -68.6453    1.0000 </r>
       <r>  -68.6411    1.0000 </r>
       <r>  -68.6329    1.0000 </r>
       <r>  -68.6173    1.0000 </r>
       <r>  -68.6135    1.0000 </r>
       <r>  -68.6011    1.0000 </r>
       <r>  -68.5960    1.0000 </r>
       <r>  -68.5843    1.0000 </r>
       <r>  -68.5771    1.0000 </r>
       <r>  -68.5675    1.0000 </r>
       <r>  -68.5600    1.0000 </r>
       <r>  -12.3648    1.0000 </r>
       <r>  -11.4713    1.0000 </r>
       <r>  -10.9342    1.0000 </r>
       <r>  -10.6537    1.0000 </r>
       <r>  -10.4191    1.0000 </r>
       <r>  -10.3056    1.0000 </r>
       <r>   -5.7922    1.0000 </r>
       <r>   -4.8406    1.0000 </r>
       <r>   -2.5251    1.0000 </r>
       <r>   -2.2417    1.0000 </r>
       <r>   -1.8712    1.0000 </r>
       <r>   -1.6382    1.0000 </r>
       <r>   -1.5075    1.0000 </r>
       <r>   -1.3021    1.0000 </r>
       <r>   -0.9017    1.0000 </r>
       <r>   -0.5381    1.0000 </r>
       <r>   -0.3792    1.0000 </r>
       <r>   -0.3497    1.0000 </r>
       <r>   -0.2267    1.0000 </r>
       <r>   -0.1815    1.0000 </r>
       <r>   -0.1670    1.0000 </r>
       <r>   -0.0798    1.0000 </r>
       <r>   -0.0262    1.0000 </r>
       <r>    0.0794    1.0000 </r>
       <r>    1.1860    1.0000 </r>
       <r>    1.3614    1.0000 </r>
       <r>    1.3958    1.0000 </r>
       <r>    1.4389    1.0000 </r>
       <r>    1.4604    1.0000 </r>
       <r>    1.5026    1.0000 </r>
       <r>    1.5169    1.0000 </r>
       <r>    1.5845    1.0000 </r>
       <r>    1.7375    1.0000 </r>
       <r>    1.8171    1.0000 </r>
       <r>    2.0348    1.0000 </r>
       <r>    2.2346    1.0000 </r>
       <r>    2.2691    1.0000 </r>
       <r>    2.3624    1.0000 </r>
       <r>    2.4858    1.0000 </r>
       <r>    2.6692    1.0000 </r>
       <r>    3.0548    1.0000 </r>
       <r>    3.4096    1.0000 </r>
       <r>    3.7294    1.0000 </r>
       <r>    3.8649    1.0000 </r>
       <r>    5.9325   -0.0000 </r>
       <r>    6.6018   -0.0000 </r>
       <r>    7.3482    0.0000 </r>
       <r>    7.9397    0.0000 </r>
       <r>    8.0651    0.0000 </r>
       <r>    8.7251    0.0000 </r>
       <r>    8.9007    0.0000 </r>
       <r>    9.1404    0.0000 </r>
       <r>    9.8440    0.0000 </r>
       <r>   10.3263    0.0000 </r>
       <r>   10.5606    0.0000 </r>
       <r>   10.9283    0.0000 </r>
       <r>   11.2216    0.0000 </r>
       <r>   11.4189    0.0000 </r>
       <r>   11.7520    0.0000 </r>
       <r>   12.0063    0.0000 </r>
       <r>   12.4997    0.0000 </r>
       <r>   12.8365    0.0000 </r>
       <r>   13.2070    0.0000 </r>
       <r>   14.1820    0.0000 </r>
       <r>   14.7120    0.0000 </r>
       <r>   15.1463    0.0000 </r>
       <r>   15.9171    0.0000 </r>
       <r>   16.5683    0.0000 </r>
      </set>
      <set comment="kpoint 18">
       <r>  -68.6503    1.0000 </r>
       <r>  -68.6455    1.0000 </r>
       <r>  -68.6412    1.0000 </r>
       <r>  -68.6330    1.0000 </r>
       <r>  -68.6174    1.0000 </r>
       <r>  -68.6135    1.0000 </r>
       <r>  -68.6012    1.0000 </r>
       <r>  -68.5961    1.0000 </r>
       <r>  -68.5843    1.0000 </r>
       <r>  -68.5771    1.0000 </r>
       <r>  -68.5676    1.0000 </r>
       <r>  -68.5601    1.0000 </r>
       <r>  -12.4924    1.0000 </r>
       <r>  -11.4193    1.0000 </r>
       <r>  -10.9495    1.0000 </r>
       <r>  -10.5810    1.0000 </r>
       <r>  -10.3748    1.0000 </r>
       <r>  -10.2080    1.0000 </r>
       <r>   -5.8186    1.0000 </r>
       <r>   -4.9442    1.0000 </r>
       <r>   -2.5706    1.0000 </r>
       <r>   -2.3626    1.0000 </r>
       <r>   -1.9152    1.0000 </r>
       <r>   -1.5948    1.0000 </r>
       <r>   -1.4188    1.0000 </r>
       <r>   -1.1181    1.0000 </r>
       <r>   -0.8179    1.0000 </r>
       <r>   -0.6757    1.0000 </r>
       <r>   -0.5337    1.0000 </r>
       <r>   -0.4732    1.0000 </r>
       <r>   -0.2610    1.0000 </r>
       <r>   -0.1962    1.0000 </r>
       <r>   -0.1674    1.0000 </r>
       <r>   -0.1210    1.0000 </r>
       <r>   -0.0389    1.0000 </r>
       <r>    0.0572    1.0000 </r>
       <r>    1.2780    1.0000 </r>
       <r>    1.3205    1.0000 </r>
       <r>    1.3413    1.0000 </r>
       <r>    1.4325    1.0000 </r>
       <r>    1.4483    1.0000 </r>
       <r>    1.4658    1.0000 </r>
       <r>    1.4903    1.0000 </r>
       <r>    1.5569    1.0000 </r>
       <r>    1.7256    1.0000 </r>
       <r>    1.8400    1.0000 </r>
       <r>    1.9695    1.0000 </r>
       <r>    2.0985    1.0000 </r>
       <r>    2.3356    1.0000 </r>
       <r>    2.4473    1.0000 </r>
       <r>    2.5411    1.0000 </r>
       <r>    2.8500    1.0000 </r>
       <r>    3.0525    1.0000 </r>
       <r>    3.2622    1.0000 </r>
       <r>    3.6741    1.0000 </r>
       <r>    3.7827    1.0000 </r>
       <r>    6.2622   -0.0000 </r>
       <r>    6.7875   -0.0000 </r>
       <r>    7.8095    0.0000 </r>
       <r>    8.1406    0.0000 </r>
       <r>    8.3346    0.0000 </r>
       <r>    8.9215    0.0000 </r>
       <r>    9.3379    0.0000 </r>
[...]
       <r>   11.7052    0.0000 </r>
       <r>   11.8949    0.0000 </r>
       <r>   12.3067    0.0000 </r>
       <r>   12.6616    0.0000 </r>
       <r>   13.0152    0.0000 </r>
       <r>   13.2254    0.0000 </r>
       <r>   13.6628    0.0000 </r>
       <r>   14.0663    0.0000 </r>
       <r>   14.3892    0.0000 </r>
       <r>   16.5097    0.0000 </r>
      </set>
      <set comment="kpoint 42">
       <r>  -68.6502    1.0000 </r>
       <r>  -68.6455    1.0000 </r>
       <r>  -68.6409    1.0000 </r>
       <r>  -68.6327    1.0000 </r>
       <r>  -68.6172    1.0000 </r>
       <r>  -68.6135    1.0000 </r>
       <r>  -68.6010    1.0000 </r>
       <r>  -68.5959    1.0000 </r>
       <r>  -68.5843    1.0000 </r>
       <r>  -68.5770    1.0000 </r>
       <r>  -68.5676    1.0000 </r>
       <r>  -68.5601    1.0000 </r>
       <r>  -12.1717    1.0000 </r>
       <r>  -11.6988    1.0000 </r>
       <r>  -10.7181    1.0000 </r>
       <r>  -10.6920    1.0000 </r>
       <r>  -10.5870    1.0000 </r>
       <r>  -10.3925    1.0000 </r>
       <r>   -5.4412    1.0000 </r>
       <r>   -5.0723    1.0000 </r>
       <r>   -2.5069    1.0000 </r>
       <r>   -2.3808    1.0000 </r>
       <r>   -1.9608    1.0000 </r>
       <r>   -1.3679    1.0000 </r>
       <r>   -1.3315    1.0000 </r>
       <r>   -1.0495    1.0000 </r>
       <r>   -0.8347    1.0000 </r>
       <r>   -0.7656    1.0000 </r>
       <r>   -0.4237    1.0000 </r>
       <r>   -0.3392    1.0000 </r>
       <r>   -0.2733    1.0000 </r>
       <r>   -0.2123    1.0000 </r>
       <r>   -0.1433    1.0000 </r>
       <r>   -0.1423    1.0000 </r>
       <r>   -0.0144    1.0000 </r>
       <r>    0.0271    1.0000 </r>
       <r>    1.1697    1.0000 </r>
       <r>    1.3683    1.0000 </r>
       <r>    1.3944    1.0000 </r>
       <r>    1.4504    1.0000 </r>
       <r>    1.4526    1.0000 </r>
       <r>    1.4970    1.0000 </r>
       <r>    1.5149    1.0000 </r>
       <r>    1.5482    1.0000 </r>
       <r>    1.7421    1.0000 </r>
       <r>    1.8198    1.0000 </r>
       <r>    1.9731    1.0000 </r>
       <r>    2.2247    1.0000 </r>
       <r>    2.3994    1.0000 </r>
       <r>    2.6124    1.0000 </r>
       <r>    2.6557    1.0000 </r>
       <r>    2.9142    1.0000 </r>
       <r>    3.0667    1.0000 </r>
       <r>    3.1163    1.0000 </r>
       <r>    3.2861    1.0000 </r>
       <r>    3.5804    1.0000 </r>
       <r>    6.2779   -0.0000 </r>
       <r>    6.3819   -0.0000 </r>
       <r>    7.3479    0.0000 </r>
       <r>    7.5244    0.0000 </r>
       <r>    8.3057    0.0000 </r>
       <r>    8.3283    0.0000 </r>
       <r>    9.1049    0.0000 </r>
       <r>    9.3647    0.0000 </r>
       <r>    9.7156    0.0000 </r>
       <r>    9.9469    0.0000 </r>
       <r>   10.5250    0.0000 </r>
       <r>   10.9900    0.0000 </r>
       <r>   11.4271    0.0000 </r>
       <r>   11.5683    0.0000 </r>
       <r>   12.0150    0.0000 </r>
       <r>   12.2846    0.0000 </r>
       <r>   12.4323    0.0000 </r>
       <r>   12.4770    0.0000 </r>
       <r>   13.0350    0.0000 </r>
       <r>   13.1543    0.0000 </r>
       <r>   14.1439    0.0000 </r>
       <r>   14.4381    0.0000 </r>
       <r>   15.1689    0.0000 </r>
       <r>   15.8736    0.0000 </r>
      </set>
     </set>
    </set>
   </array>
  </eigenvalues>
  <separator name="orbital magnetization" >
   <v name="MAGDIPOLOUT">      0.00000000      0.00000000      0.00000000</v>
  </separator>
  <dos>
   <i name="efermi">      4.22425886 </i>
   <total>
    <array>
     <dimension dim="1">gridpoints</dimension>
     <dimension dim="2">spin</dimension>
     <field>energy</field>
     <field>total</field>
     <field>integrated</field>
     <set>
      <set comment="spin 1">
       <r>   -72.8301     0.0000     0.0000 </r>
       <r>   -72.5238     0.0000     0.0000 </r>
       <r>   -72.2174     0.0000     0.0000 </r>
       <r>   -71.9110     0.0000     0.0000 </r>
       <r>   -71.6046     0.0000     0.0000 </r>
       <r>   -71.2982     0.0000     0.0000 </r>
       <r>   -70.9918     0.0000     0.0000 </r>
       <r>   -70.6855     0.0000     0.0000 </r>
       <r>   -70.3791     0.0000     0.0000 </r>
       <r>   -70.0727     0.0000     0.0000 </r>
       <r>   -69.7663     0.0000     0.0000 </r>
       <r>   -69.4599    -0.0000    -0.0000 </r>
       <r>   -69.1536    -0.0000    -0.0000 </r>
       <r>   -68.8472    -0.2407    -0.0737 </r>
       <r>   -68.5408    71.1668    21.7304 </r>
       <r>   -68.2344     7.4081    24.0001 </r>
       <r>   -67.9280    -0.0003    24.0000 </r>
       <r>   -67.6217     0.0000    24.0000 </r>
       <r>   -67.3153     0.0000    24.0000 </r>
       <r>   -67.0089     0.0000    24.0000 </r>
       <r>   -66.7025     0.0000    24.0000 </r>
       <r>   -66.3961     0.0000    24.0000 </r>
       <r>   -66.0898     0.0000    24.0000 </r>
       <r>   -65.7834     0.0000    24.0000 </r>
       <r>   -65.4770     0.0000    24.0000 </r>
       <r>   -65.1706     0.0000    24.0000 </r>
       <r>   -64.8642     0.0000    24.0000 </r>
       <r>   -64.5578     0.0000    24.0000 </r>
       <r>   -64.2515     0.0000    24.0000 </r>
       <r>   -63.9451     0.0000    24.0000 </r>
       <r>   -63.6387     0.0000    24.0000 </r>
       <r>   -63.3323     0.0000    24.0000 </r>
       <r>   -63.0259     0.0000    24.0000 </r>
       <r>   -62.7196     0.0000    24.0000 </r>
       <r>   -62.4132     0.0000    24.0000 </r>
       <r>   -62.1068     0.0000    24.0000 </r>
       <r>   -61.8004     0.0000    24.0000 </r>
       <r>   -61.4940     0.0000    24.0000 </r>
       <r>   -61.1877     0.0000    24.0000 </r>
       <r>   -60.8813     0.0000    24.0000 </r>
       <r>   -60.5749     0.0000    24.0000 </r>
       <r>   -60.2685     0.0000    24.0000 </r>
       <r>   -59.9621     0.0000    24.0000 </r>
       <r>   -59.6557     0.0000    24.0000 </r>
       <r>   -59.3494     0.0000    24.0000 </r>
       <r>   -59.0430     0.0000    24.0000 </r>
       <r>   -58.7366     0.0000    24.0000 </r>
       <r>   -58.4302     0.0000    24.0000 </r>
       <r>   -58.1238     0.0000    24.0000 </r>
       <r>   -57.8175     0.0000    24.0000 </r>
       <r>   -57.5111     0.0000    24.0000 </r>
       <r>   -57.2047     0.0000    24.0000 </r>
       <r>   -56.8983     0.0000    24.0000 </r>
       <r>   -56.5919     0.0000    24.0000 </r>
       <r>   -56.2856     0.0000    24.0000 </r>
       <r>   -55.9792     0.0000    24.0000 </r>
       <r>   -55.6728     0.0000    24.0000 </r>
       <r>   -55.3664     0.0000    24.0000 </r>
       <r>   -55.0600     0.0000    24.0000 </r>
       <r>   -54.7537     0.0000    24.0000 </r>
       <r>   -54.4473     0.0000    24.0000 </r>
       <r>   -54.1409     0.0000    24.0000 </r>
       <r>   -53.8345     0.0000    24.0000 </r>
       <r>   -53.5281     0.0000    24.0000 </r>
       <r>   -53.2217     0.0000    24.0000 </r>
       <r>   -52.9154     0.0000    24.0000 </r>
       <r>   -52.6090     0.0000    24.0000 </r>
       <r>   -52.3026     0.0000    24.0000 </r>
       <r>   -51.9962     0.0000    24.0000 </r>
       <r>   -51.6898     0.0000    24.0000 </r>
       <r>   -51.3835     0.0000    24.0000 </r>
       <r>   -51.0771     0.0000    24.0000 </r>
       <r>   -50.7707     0.0000    24.0000 </r>
       <r>   -50.4643     0.0000    24.0000 </r>
       <r>   -50.1579     0.0000    24.0000 </r>
       <r>   -49.8516     0.0000    24.0000 </r>
       <r>   -49.5452     0.0000    24.0000 </r>
       <r>   -49.2388     0.0000    24.0000 </r>
       <r>   -48.9324     0.0000    24.0000 </r>
       <r>   -48.6260     0.0000    24.0000 </r>
       <r>   -48.3197     0.0000    24.0000 </r>
       <r>   -48.0133     0.0000    24.0000 </r>
       <r>   -47.7069     0.0000    24.0000 </r>
       <r>   -47.4005     0.0000    24.0000 </r>
       <r>   -47.0941     0.0000    24.0000 </r>
       <r>   -46.7877     0.0000    24.0000 </r>
       <r>   -46.4814     0.0000    24.0000 </r>
       <r>   -46.1750     0.0000    24.0000 </r>
       <r>   -45.8686     0.0000    24.0000 </r>
       <r>   -45.5622     0.0000    24.0000 </r>
       <r>   -45.2558     0.0000    24.0000 </r>
       <r>   -44.9495     0.0000    24.0000 </r>
       <r>   -44.6431     0.0000    24.0000 </r>
       <r>   -44.3367     0.0000    24.0000 </r>
       <r>   -44.0303     0.0000    24.0000 </r>
       <r>   -43.7239     0.0000    24.0000 </r>
       <r>   -43.4176     0.0000    24.0000 </r>
       <r>   -43.1112     0.0000    24.0000 </r>
       <r>   -42.8048     0.0000    24.0000 </r>
       <r>   -42.4984     0.0000    24.0000 </r>
       <r>   -42.1920     0.0000    24.0000 </r>
       <r>   -41.8856     0.0000    24.0000 </r>
       <r>   -41.5793     0.0000    24.0000 </r>
       <r>   -41.2729     0.0000    24.0000 </r>
       <r>   -40.9665     0.0000    24.0000 </r>
       <r>   -40.6601     0.0000    24.0000 </r>
       <r>   -40.3537     0.0000    24.0000 </r>
       <r>   -40.0474     0.0000    24.0000 </r>
       <r>   -39.7410     0.0000    24.0000 </r>
       <r>   -39.4346     0.0000    24.0000 </r>
       <r>   -39.1282     0.0000    24.0000 </r>
       <r>   -38.8218     0.0000    24.0000 </r>
       <r>   -38.5155     0.0000    24.0000 </r>
       <r>   -38.2091     0.0000    24.0000 </r>
       <r>   -37.9027     0.0000    24.0000 </r>
       <r>   -37.5963     0.0000    24.0000 </r>
       <r>   -37.2899     0.0000    24.0000 </r>
       <r>   -36.9836     0.0000    24.0000 </r>
       <r>   -36.6772     0.0000    24.0000 </r>
       <r>   -36.3708     0.0000    24.0000 </r>
       <r>   -36.0644     0.0000    24.0000 </r>
       <r>   -35.7580     0.0000    24.0000 </r>
       <r>   -35.4516     0.0000    24.0000 </r>
       <r>   -35.1453     0.0000    24.0000 </r>
       <r>   -34.8389     0.0000    24.0000 </r>
       <r>   -34.5325     0.0000    24.0000 </r>
       <r>   -34.2261     0.0000    24.0000 </r>
       <r>   -33.9197     0.0000    24.0000 </r>
       <r>   -33.6134     0.0000    24.0000 </r>
       <r>   -33.3070     0.0000    24.0000 </r>
       <r>   -33.0006     0.0000    24.0000 </r>
       <r>   -32.6942     0.0000    24.0000 </r>
       <r>   -32.3878     0.0000    24.0000 </r>
       <r>   -32.0815     0.0000    24.0000 </r>
       <r>   -31.7751     0.0000    24.0000 </r>
       <r>   -31.4687     0.0000    24.0000 </r>
       <r>   -31.1623     0.0000    24.0000 </r>
       <r>   -30.8559     0.0000    24.0000 </r>
       <r>   -30.5496     0.0000    24.0000 </r>
       <r>   -30.2432     0.0000    24.0000 </r>
       <r>   -29.9368     0.0000    24.0000 </r>
       <r>   -29.6304     0.0000    24.0000 </r>
       <r>   -29.3240     0.0000    24.0000 </r>
       <r>   -29.0176     0.0000    24.0000 </r>
       <r>   -28.7113     0.0000    24.0000 </r>
       <r>   -28.4049     0.0000    24.0000 </r>
       <r>   -28.0985     0.0000    24.0000 </r>
       <r>   -27.7921     0.0000    24.0000 </r>
       <r>   -27.4857     0.0000    24.0000 </r>
       <r>   -27.1794     0.0000    24.0000 </r>
       <r>   -26.8730     0.0000    24.0000 </r>
       <r>   -26.5666     0.0000    24.0000 </r>
       <r>   -26.2602     0.0000    24.0000 </r>
       <r>   -25.9538     0.0000    24.0000 </r>
       <r>   -25.6475     0.0000    24.0000 </r>
       <r>   -25.3411     0.0000    24.0000 </r>
       <r>   -25.0347     0.0000    24.0000 </r>
       <r>   -24.7283     0.0000    24.0000 </r>
       <r>   -24.4219     0.0000    24.0000 </r>
       <r>   -24.1155     0.0000    24.0000 </r>
       <r>   -23.8092     0.0000    24.0000 </r>
       <r>   -23.5028     0.0000    24.0000 </r>
       <r>   -23.1964     0.0000    24.0000 </r>
       <r>   -22.8900     0.0000    24.0000 </r>
       <r>   -22.5836     0.0000    24.0000 </r>
       <r>   -22.2773     0.0000    24.0000 </r>
       <r>   -21.9709     0.0000    24.0000 </r>
       <r>   -21.6645     0.0000    24.0000 </r>
       <r>   -21.3581     0.0000    24.0000 </r>
       <r>   -21.0517     0.0000    24.0000 </r>
       <r>   -20.7454     0.0000    24.0000 </r>
       <r>   -20.4390     0.0000    24.0000 </r>
       <r>   -20.1326     0.0000    24.0000 </r>
       <r>   -19.8262     0.0000    24.0000 </r>
       <r>   -19.5198     0.0000    24.0000 </r>
       <r>   -19.2135     0.0000    24.0000 </r>
       <r>   -18.9071     0.0000    24.0000 </r>
       <r>   -18.6007     0.0000    24.0000 </r>
       <r>   -18.2943     0.0000    24.0000 </r>
       <r>   -17.9879     0.0000    24.0000 </r>
       <r>   -17.6815     0.0000    24.0000 </r>
       <r>   -17.3752     0.0000    24.0000 </r>
       <r>   -17.0688     0.0000    24.0000 </r>
       <r>   -16.7624     0.0000    24.0000 </r>
       <r>   -16.4560     0.0000    24.0000 </r>
       <r>   -16.1496     0.0000    24.0000 </r>
       <r>   -15.8433     0.0000    24.0000 </r>
       <r>   -15.5369     0.0000    24.0000 </r>
       <r>   -15.2305     0.0000    24.0000 </r>
       <r>   -14.9241     0.0000    24.0000 </r>
       <r>   -14.6177     0.0000    24.0000 </r>
       <r>   -14.3114     0.0000    24.0000 </r>
       <r>   -14.0050     0.0000    24.0000 </r>
       <r>   -13.6986    -0.0000    24.0000 </r>
       <r>   -13.3922    -0.0000    24.0000 </r>
       <r>   -13.0858    -0.0000    24.0000 </r>
       <r>   -12.7795    -0.0043    23.9987 </r>
       <r>   -12.4731     1.4502    24.4430 </r>
       <r>   -12.1667     3.5873    25.5421 </r>
       <r>   -11.8603     1.9445    26.1378 </r>
       <r>   -11.5539     2.1945    26.8102 </r>
       <r>   -11.2475     3.1938    27.7887 </r>
       <r>   -10.9412     2.4334    28.5343 </r>
       <r>   -10.6348     9.3980    31.4136 </r>
       <r>   -10.3284     9.4080    34.2961 </r>
       <r>   -10.0220     5.5793    36.0055 </r>
       <r>    -9.7156    -0.0178    36.0000 </r>
       <r>    -9.4093    -0.0000    36.0000 </r>
       <r>    -9.1029     0.0000    36.0000 </r>
       <r>    -8.7965     0.0000    36.0000 </r>
       <r>    -8.4901     0.0000    36.0000 </r>
       <r>    -8.1837     0.0000    36.0000 </r>
       <r>    -7.8774     0.0000    36.0000 </r>
       <r>    -7.5710     0.0000    36.0000 </r>
       <r>    -7.2646     0.0000    36.0000 </r>
       <r>    -6.9582    -0.0000    36.0000 </r>
       <r>    -6.6518    -0.0000    36.0000 </r>
       <r>    -6.3454    -0.0000    36.0000 </r>
       <r>    -6.0391     0.0328    36.0101 </r>
       <r>    -5.7327     3.4040    37.0530 </r>
       <r>    -5.4263     2.0889    37.6930 </r>
       <r>    -5.1199     1.9435    38.2884 </r>
       <r>    -4.8135     3.3464    39.3137 </r>
       <r>    -4.5072     2.1856    39.9834 </r>
       <r>    -4.2008     0.0543    40.0000 </r>
       <r>    -3.8944    -0.0000    40.0000 </r>
       <r>    -3.5880    -0.0000    40.0000 </r>
       <r>    -3.2816    -0.0000    40.0000 </r>
       <r>    -2.9753    -0.0004    39.9999 </r>
       <r>    -2.6689     0.3617    40.1107 </r>
       <r>    -2.3625     6.1235    41.9868 </r>
       <r>    -2.0561     6.7048    44.0410 </r>
       <r>    -1.7497     7.3676    46.2983 </r>
       <r>    -1.4434     6.4350    48.2699 </r>
       <r>    -1.1370     8.7200    50.9415 </r>
       <r>    -0.8306     9.1172    53.7349 </r>
       <r>    -0.5242    11.4255    57.2354 </r>
       <r>    -0.2178    18.3633    62.8616 </r>
       <r>     0.0886    28.7123    71.6585 </r>
       <r>     0.3949     1.1153    72.0002 </r>
       <r>     0.7013    -0.0006    72.0000 </r>
       <r>     1.0077    -0.0222    71.9932 </r>
       <r>     1.3141     7.7019    74.3529 </r>
       <r>     1.6205    44.6106    88.0207 </r>
       <r>     1.9268    13.7915    92.2462 </r>
       <r>     2.2332    13.1516    96.2756 </r>
       <r>     2.5396    12.8364   100.2085 </r>
       <r>     2.8460    11.1800   103.6338 </r>
       <r>     3.1524     9.0497   106.4064 </r>
       <r>     3.4587     7.9176   108.8322 </r>
       <r>     3.7651     6.9423   110.9593 </r>
       <r>     4.0715     3.1460   111.9231 </r>
       <r>     4.3779     0.2515   112.0002 </r>
       <r>     4.6843    -0.0006   112.0000 </r>
       <r>     4.9907    -0.0000   112.0000 </r>
       <r>     5.2970    -0.0002   112.0000 </r>
       <r>     5.6034     0.0779   112.0238 </r>
       <r>     5.9098     0.1661   112.0747 </r>
       <r>     6.2162     2.6517   112.8872 </r>
       <r>     6.5226     4.4582   114.2531 </r>
       <r>     6.8289     3.4775   115.3185 </r>
       <r>     7.1353     2.3091   116.0260 </r>
       <r>     7.4417     1.4533   116.4712 </r>
       <r>     7.7481     3.1883   117.4481 </r>
       <r>     8.0545     5.5607   119.1518 </r>
       <r>     8.3608     5.5459   120.8509 </r>
       <r>     8.6672     4.6136   122.2645 </r>
       <r>     8.9736     4.4481   123.6273 </r>
       <r>     9.2800     5.5923   125.3406 </r>
       <r>     9.5864     5.6731   127.0788 </r>
       <r>     9.8927     4.7755   128.5419 </r>
       <r>    10.1991     4.4396   129.9021 </r>
       <r>    10.5055     6.4912   131.8909 </r>
       <r>    10.8119     8.2255   134.4110 </r>
       <r>    11.1183     8.3236   136.9612 </r>
       <r>    11.4247     7.9498   139.3969 </r>
       <r>    11.7310     7.9287   141.8261 </r>
       <r>    12.0374     6.5820   143.8427 </r>
       <r>    12.3438     5.8724   145.6419 </r>
       <r>    12.6502     6.6155   147.6687 </r>
       <r>    12.9566     5.8446   149.4594 </r>
       <r>    13.2629     6.1709   151.3500 </r>
       <r>    13.5693     5.3549   152.9907 </r>
       <r>    13.8757     4.0333   154.2264 </r>
       <r>    14.1821     3.1702   155.1977 </r>
       <r>    14.4885     4.5923   156.6047 </r>
       <r>    14.7948     3.5122   157.6808 </r>
       <r>    15.1012     1.4188   158.1155 </r>
       <r>    15.4076     1.5851   158.6011 </r>
       <r>    15.7140     1.2116   158.9723 </r>
       <r>    16.0204     1.6942   159.4914 </r>
       <r>    16.3267     0.3288   159.5922 </r>
       <r>    16.6331     0.6861   159.8024 </r>
       <r>    16.9395     0.5076   159.9579 </r>
       <r>    17.2459     0.1376   160.0000 </r>
       <r>    17.5523    -0.0001   160.0000 </r>
       <r>    17.8587     0.0000   160.0000 </r>
       <r>    18.1650     0.0000   160.0000 </r>
       <r>    18.4714     0.0000   160.0000 </r>
       <r>    18.7778     0.0000   160.0000 </r>
       <r>    19.0842     0.0000   160.0000 </r>
      </set>
     </set>
    </array>
   </total>
  </dos>
 </calculation>
 <structure name="finalpos" >
  <crystal>
   <varray name="basis" >
    <v>       3.22479600      -5.64383000       0.03157200 </v>
    <v>       3.22479600       5.64383000       0.03157200 </v>
    <v>      -2.10194600       0.00000000       6.07553700 </v>
   </varray>
   <i name="volume">    221.90106089 </i>
   <varray name="rec_basis" >
    <v>       0.15452516      -0.08859232       0.05346088 </v>
    <v>       0.15452516       0.08859232       0.05346088 </v>
    <v>      -0.00160600       0.00000000       0.16403888 </v>
   </varray>
  </crystal>
  <varray name="positions" >
   <v>       0.61844300       0.12117100       0.11953300 </v>
   <v>       0.12117100       0.61844300       0.61953300 </v>
   <v>       0.96295700       0.79032200       0.11881300 </v>
   <v>       0.79032200       0.96295700       0.61881300 </v>
   <v>       0.43973200       0.26728100       0.59904700 </v>
   <v>       0.26728100       0.43973200       0.09904700 </v>
   <v>       0.07949800       0.91167500       0.49736300 </v>
   <v>       0.57294140       0.41236400       0.98018400 </v>
   <v>       0.73711100       0.25006200       0.49504900 </v>
   <v>       0.41236400       0.57140300       0.48018400 </v>
   <v>       0.91167500       0.07949800       0.99736300 </v>
   <v>       0.25006200       0.73711100       0.99504900 </v>
  </varray>
 </structure>
</modeling>
