12   
36   

1    
  0.0049610412597624  -0.0086824944874295   0.0000485705125699
  -0.0328016900    0.0420460500    0.0031594500
  -0.0024846300    0.0005306600    0.0007936000
   0.0021103900   -0.0033071500    0.0010411100
   0.0033169700   -0.0011349000   -0.0001140000
   0.0014748400    0.0061625900    0.0031405600
   0.0085331600   -0.0073496300    0.0014445300
   0.0021163300    0.0010744600   -0.0017664000
  -0.0044296000   -0.0123458700    0.0008419800
  -0.0007028600    0.0010231400   -0.0011094000
  -0.0004150600    0.0064126300    0.0005642000
   0.0125137800   -0.0286814800   -0.0140923300
   0.0107683800   -0.0044305000    0.0060966900

1    
 -0.0049610412597624   0.0086824944874295  -0.0000485705125699
   0.0286342300   -0.0370544800   -0.0009651200
  -0.0033486700    0.0017316000   -0.0006583200
   0.0021907000    0.0015884600    0.0006685200
   0.0021254500    0.0000481400    0.0017336300
  -0.0007330600    0.0071394300   -0.0001161800
  -0.0078599200   -0.0065169200    0.0015431500
   0.0013702900    0.0011409100   -0.0023832300
   0.0037769200   -0.0019311300    0.0003274200
  -0.0030857600    0.0035098800   -0.0014409500
  -0.0003152700    0.0071428500    0.0007922800
  -0.0078542200    0.0240539700    0.0092203200
  -0.0149006900   -0.0008527000   -0.0087215100

1    
  0.0049610412597624   0.0086824944874295   0.0000485705125699
  -0.0159984300   -0.0286269700   -0.0025529000
  -0.0027075100    0.0012966200    0.0009624600
   0.0036457700   -0.0002105700    0.0005620000
   0.0028052000   -0.0002572100    0.0008828600
   0.0001200100    0.0071862300   -0.0026205200
  -0.0020554300   -0.0011861800    0.0003940000
   0.0016969300    0.0013510600   -0.0020466100
   0.0087615500    0.0047077000   -0.0022970100
  -0.0036501100    0.0015764000   -0.0017397200
  -0.0001181400    0.0064858900    0.0004589400
  -0.0034134700    0.0120780800    0.0044160600
   0.0109136300   -0.0044010500    0.0035804300

1    
 -0.0049610412597624  -0.0086824944874295  -0.0000485705125699
   0.0160595000    0.0339444400    0.0036203000
  -0.0034920300    0.0007556800   -0.0005932300
   0.0002659500   -0.0017011900    0.0011367200
   0.0023994500   -0.0010928300    0.0009115500
   0.0002878000    0.0059099600    0.0057662000
   0.0024616400   -0.0129000300    0.0026532500
   0.0014188100    0.0006173300   -0.0020259700
  -0.0093904100   -0.0183679400    0.0031197800
  -0.0004536500    0.0026424800   -0.0006983600
  -0.0009732900    0.0068144300    0.0009762700
   0.0069899300   -0.0156378500   -0.0087028200
  -0.0155737000   -0.0009844900   -0.0061636800

1    
 -0.0032695436127519   0.0000000000000000   0.0094504012911788
   0.0129214700   -0.0052796600   -0.0527611300
  -0.0017361800    0.0008395500    0.0020586500
   0.0015581400   -0.0005404800    0.0007714400
   0.0015948600   -0.0015448300    0.0035593200
  -0.0037046200    0.0116437700    0.0080366400
  -0.0017364300   -0.0083515400    0.0006366000
   0.0014175600    0.0009986300   -0.0017940200
  -0.0054684100   -0.0126759500    0.0038643500
   0.0017441300   -0.0004918100    0.0316847700
  -0.0005025000    0.0068294600    0.0008924000
  -0.0035890600    0.0121217700    0.0040975000
  -0.0024989700   -0.0035489200   -0.0010465200

1    
  0.0032695436127519   0.0000000000000000  -0.0094504012911788
  -0.0176338100    0.0055573600    0.0562992200
  -0.0040336800    0.0017439900   -0.0022586000
   0.0028310000   -0.0008983700    0.0004815500
   0.0039478600    0.0007208200   -0.0022409300
   0.0046059900    0.0018796800   -0.0054206300
   0.0025678600   -0.0052222700    0.0019930000
   0.0021029600    0.0015263400   -0.0027545800
   0.0048058400   -0.0012186600   -0.0030926300
  -0.0053206200    0.0054142700   -0.0324362000
  -0.0001593300    0.0070553100    0.0000298700
   0.0075035600   -0.0152224000   -0.0087201700
  -0.0012176100   -0.0013360600   -0.0018799100

3    
  0.0049610412597624  -0.0086824944874295   0.0000485705125699
  -0.0000859200   -0.0026974500    0.0002255900
  -0.0023076900    0.0003766400   -0.0013672700
  -0.0172422100    0.0515785500    0.0058332700
   0.0034301000   -0.0011874300    0.0009157500
  -0.0003817200    0.0051986100    0.0049563400
  -0.0033833100   -0.0140941000    0.0011070700
   0.0030959400    0.0018449800   -0.0028031000
   0.0066340400   -0.0052894500    0.0000630200
  -0.0016561500    0.0014020700   -0.0015305000
   0.0006941500    0.0061870500    0.0009346500
  -0.0037572700   -0.0175610500    0.0051820100
   0.0149600500   -0.0257584400   -0.0135168400

3    
 -0.0049610412597624   0.0086824944874295  -0.0000485705125699
  -0.0047624300    0.0004601500    0.0002869700
  -0.0034444500    0.0025467300    0.0013618500
   0.0224972800   -0.0534087500   -0.0013659300
   0.0019565600    0.0009350100    0.0004853100
   0.0011725700    0.0087796300   -0.0020239500
   0.0041212400    0.0009985300    0.0017972400
   0.0003892200    0.0010935200   -0.0015808400
  -0.0078670400   -0.0085533800    0.0010263200
  -0.0021923000    0.0038475200   -0.0009864500
  -0.0014786900    0.0080906300    0.0002948700
   0.0077022900    0.0155413900   -0.0095589900
  -0.0180942400    0.0196690200    0.0102636100

3    
  0.0049610412597624   0.0086824944874295   0.0000485705125699
  -0.0026135200    0.0016294000    0.0001194700
  -0.0021983200    0.0025920000    0.0004564800
  -0.0183306400   -0.0550289500    0.0040681000
   0.0035552600    0.0009688200   -0.0003145300
   0.0003383000    0.0094536800    0.0039747700
   0.0087422000   -0.0035289000    0.0021204700
   0.0033750100    0.0009808800   -0.0017482400
   0.0065821400   -0.0058219000    0.0025051500
  -0.0010571700    0.0033564900   -0.0009560800
  -0.0009246900    0.0081249000    0.0003554700
   0.0127316500    0.0262958000   -0.0144733300
  -0.0102002100    0.0109777700    0.0038922800

3    
 -0.0049610412597624  -0.0086824944874295  -0.0000485705125699
  -0.0021340600   -0.0039919700    0.0002910500
  -0.0035055300    0.0002568900   -0.0004348000
   0.0228159000    0.0514381200    0.0005905300
   0.0018517600   -0.0012866200    0.0017932200
   0.0004857400    0.0044202700   -0.0010703000
  -0.0080395300   -0.0096177400    0.0007268900
   0.0001600400    0.0018529400   -0.0026469700
  -0.0076365700   -0.0079939600   -0.0014405700
  -0.0027483200    0.0018212600   -0.0015605900
   0.0002092000    0.0060991400    0.0008704700
  -0.0081229600   -0.0271162100    0.0095230300
   0.0066643400   -0.0158821300   -0.0066419400

3    
 -0.0032695436127519   0.0000000000000000   0.0094504012911788
  -0.0031485100   -0.0016377100    0.0005225400
  -0.0041302900    0.0007419800    0.0032381500
   0.0210050900   -0.0018619600   -0.0552037000
   0.0013765700    0.0006611600    0.0038744400
   0.0079384600    0.0069621600    0.0051548400
  -0.0008971600   -0.0042143800    0.0003563800
  -0.0058409600    0.0018251600    0.0278244400
  -0.0009568600   -0.0065781700    0.0039764900
  -0.0024665000    0.0027491000   -0.0004180500
  -0.0008618000    0.0070914500    0.0014686900
  -0.0016413400   -0.0127913000    0.0037667400
  -0.0103767200    0.0070524900    0.0054390400

3    
  0.0032695436127519   0.0000000000000000  -0.0094504012911788
  -0.0014323200   -0.0008495900   -0.0002707900
  -0.0013990500    0.0020163000   -0.0032773300
  -0.0177506300    0.0003906600    0.0582790600
   0.0042398000   -0.0010459900   -0.0024447700
  -0.0070271400    0.0068401000   -0.0024098500
   0.0018147300   -0.0090300600    0.0024219800
   0.0095547800    0.0009859000   -0.0303427200
   0.0003363100   -0.0073672200   -0.0029218500
  -0.0011202700    0.0022906200   -0.0022122500
   0.0003462300    0.0071127400   -0.0003798100
   0.0056120800    0.0106264800   -0.0082120200
   0.0068254900   -0.0119699400   -0.0082296500

5    
  0.0049610412597624  -0.0086824944874295   0.0000485705125699
  -0.0023982300   -0.0014913000   -0.0062550400
   0.0046941400    0.0016579200    0.0003686400
   0.0006780400   -0.0014254700    0.0046520200
   0.0004869800   -0.0078736100    0.0016547500
  -0.1128507900    0.1502836800    0.0078653600
   0.0014244000   -0.0053597000    0.0074475400
   0.0568438800   -0.0060103400    0.0119118300
   0.0078526600   -0.0171793200    0.0035509700
   0.0552049800   -0.0884584000   -0.0284537200
  -0.0111789300   -0.0231178700    0.0032302800
   0.0009491600    0.0005871400   -0.0023995300
  -0.0017062900   -0.0016127300   -0.0035730800

5    
 -0.0049610412597624   0.0086824944874295  -0.0000485705125699
  -0.0022607400   -0.0008987900    0.0068921700
  -0.0102742100    0.0011745500   -0.0002477500
   0.0038438700    0.0002077800   -0.0027405900
   0.0049281600    0.0072881800   -0.0001192700
   0.1114709900   -0.1323031100   -0.0022786000
  -0.0005451400   -0.0079667600   -0.0043017100
  -0.0541532600    0.0083726000   -0.0164621700
  -0.0086589200    0.0032021600   -0.0024102600
  -0.0561600900    0.0893950300    0.0243571500
   0.0110215600    0.0376112400   -0.0021611100
   0.0028637800   -0.0030888300   -0.0016873900
  -0.0020759900   -0.0029940600    0.0011595300

5    
  0.0049610412597624   0.0086824944874295   0.0000485705125699
  -0.0019414500   -0.0013946300    0.0031204600
  -0.0051258300    0.0069072300   -0.0003609900
   0.0017637200    0.0005736700    0.0049528500
   0.0085326000    0.0004585600    0.0002119800
  -0.0706892600   -0.1120181600   -0.0125654800
  -0.0009968500   -0.0064308700   -0.0179912000
   0.0512378900    0.0067747800    0.0118690200
   0.0029291600    0.0004799200    0.0033506500
  -0.0210632000    0.0472560200    0.0107842700
   0.0344834400    0.0635738100   -0.0049613200
   0.0035277800   -0.0014662200   -0.0001194400
  -0.0026579800   -0.0047140900    0.0017091900

5    
 -0.0049610412597624  -0.0086824944874295  -0.0000485705125699
  -0.0027445300   -0.0009887300   -0.0024192400
  -0.0005221600   -0.0040480100    0.0004706200
   0.0026409000   -0.0017885300   -0.0030590800
  -0.0029651400   -0.0009661000    0.0013639900
   0.0698904100    0.1229368700    0.0176690400
   0.0019030000   -0.0069029500    0.0209898900
  -0.0483108000   -0.0035940100   -0.0163475600
  -0.0037167200   -0.0144188100   -0.0022383300
   0.0180790200   -0.0424897900   -0.0134721200
  -0.0334189600   -0.0467619100    0.0051314600
   0.0002803900   -0.0010628600   -0.0039355600
  -0.0011154300    0.0000848300   -0.0041531300

5    
 -0.0032695436127519   0.0000000000000000   0.0094504012911788
  -0.0048200300   -0.0039498000    0.0063254500
  -0.0056512100   -0.0001165300   -0.0022564100
   0.0088157400   -0.0013574500    0.0027231100
   0.0020273300    0.0015012200   -0.0017965600
   0.0513335600   -0.0120309300   -0.1088521500
  -0.0125803600    0.0067214400    0.0233282700
  -0.0058125500    0.0017671000    0.0062750300
   0.0043083200   -0.0131704700    0.0521436700
  -0.0263043000    0.0395529000    0.0186384100
  -0.0117851000   -0.0122647500    0.0111047900
   0.0020347800   -0.0018695500   -0.0045577200
  -0.0015661800   -0.0047831700   -0.0030759000

5    
  0.0032695436127519   0.0000000000000000  -0.0094504012911788
   0.0001416500    0.0015161800   -0.0055717300
  -0.0000394000    0.0029652600    0.0023404700
  -0.0041754600    0.0001298600   -0.0007623100
   0.0034370500   -0.0020478900    0.0032640000
  -0.0518188300    0.0257045200    0.1083665700
   0.0134830700   -0.0199579200   -0.0200870600
   0.0100160200    0.0009851500   -0.0101481500
  -0.0048883000   -0.0005766500   -0.0478502500
   0.0229349900   -0.0351086300   -0.0207644000
   0.0113971600    0.0268585500   -0.0098062100
   0.0017342500   -0.0006224200    0.0004317700
  -0.0022222100    0.0001540000    0.0005872800

7    
  0.0049610412597624  -0.0086824944874295   0.0000485705125699
  -0.0029426900   -0.0008173600    0.0001921900
  -0.0117595400   -0.0140276100    0.0072486900
   0.0033389000    0.0009988700   -0.0024603600
   0.0129792000   -0.0245555400   -0.0077163700
   0.0552261800   -0.0007535100    0.0160224400
   0.0022188200   -0.0063997500    0.0016161200
  -0.0732730500    0.0740779700   -0.0106943300
   0.0010458500   -0.0065279800    0.0037826600
   0.0108557200   -0.0053871600   -0.0006080100
   0.0026293500   -0.0036142200    0.0008451000
   0.0016007000   -0.0060720200   -0.0058538000
  -0.0019194600   -0.0069216900   -0.0023743200

7    
 -0.0049610412597624   0.0086824944874295  -0.0000485705125699
  -0.0017585300   -0.0015565600    0.0005746500
   0.0057649700    0.0165799200   -0.0070471500
   0.0012488100   -0.0022282800    0.0045828000
  -0.0083850900    0.0256524100    0.0098421200
  -0.0535719200    0.0149156800   -0.0126233700
  -0.0013320500   -0.0069279200    0.0014313100
   0.0770795300   -0.0731285100    0.0051049700
  -0.0017991800   -0.0074098500   -0.0023614900
  -0.0142853500    0.0104682800   -0.0018076800
  -0.0033069300    0.0177451500    0.0004259600
   0.0022077300    0.0035653100    0.0018915800
  -0.0018620000    0.0023243700   -0.0000137100

7    
  0.0049610412597624   0.0086824944874295   0.0000485705125699
  -0.0019743800   -0.0015203300    0.0005005000
   0.0096901800    0.0244750800   -0.0106806000
   0.0030956500   -0.0021173100   -0.0019870500
  -0.0046530700    0.0158706500    0.0075953400
   0.0516315900    0.0112733700    0.0155202300
  -0.0006498900   -0.0084238200    0.0018103200
  -0.0694042900   -0.0692297300   -0.0111815200
   0.0012994600   -0.0068990200    0.0037299800
  -0.0003067300    0.0131857500   -0.0010342700
   0.0095334100    0.0172736100    0.0001980800
   0.0024939700    0.0030036700   -0.0030831400
  -0.0007559000    0.0031080900   -0.0013878700

7    
 -0.0049610412597624  -0.0086824944874295  -0.0000485705125699
  -0.0027079500   -0.0008307700    0.0002422500
  -0.0163106000   -0.0232428800    0.0114288400
   0.0014560300    0.0008184500    0.0040660000
   0.0097322200   -0.0160534800   -0.0059172900
  -0.0501345800    0.0021608900   -0.0121694400
   0.0015213800   -0.0049155600    0.0012876700
   0.0734784200    0.0736966700    0.0056167100
  -0.0020325100   -0.0070613900   -0.0022913300
  -0.0033890800   -0.0081185000   -0.0014058800
  -0.0098993400   -0.0031759500    0.0010922900
   0.0013011700   -0.0055376500   -0.0009821500
  -0.0030151500   -0.0077398300   -0.0009676600

7    
 -0.0032695436127519   0.0000000000000000   0.0094504012911788
  -0.0019667600   -0.0011661500   -0.0003290400
  -0.0090923800   -0.0117679300    0.0048594900
   0.0013411000   -0.0001942100    0.0297084700
  -0.0028179800    0.0136352300    0.0042834600
  -0.0077006300    0.0079274800    0.0096260200
   0.0016937200   -0.0073942700   -0.0005844900
   0.0356748200    0.0004148300   -0.0768790800
   0.0049745500   -0.0058647900    0.0079955500
  -0.0071042700    0.0017265800   -0.0022189700
  -0.0057814500    0.0061005100    0.0014172200
  -0.0030022300   -0.0025264600    0.0128327800
  -0.0062185000   -0.0008908200    0.0092885900

7    
  0.0032695436127519   0.0000000000000000  -0.0094504012911788
  -0.0027262000   -0.0012246800    0.0011099900
   0.0033386500    0.0142073500   -0.0049043000
   0.0032029200   -0.0010751500   -0.0295903500
   0.0081072900   -0.0138040700   -0.0029990400
   0.0079552900    0.0058684300   -0.0068816100
  -0.0008424900   -0.0058878200    0.0036810700
  -0.0313376600    0.0023451900    0.0751274300
  -0.0057087700   -0.0080960300   -0.0065769200
   0.0034666200    0.0033099100   -0.0002069700
   0.0052021900    0.0080619500   -0.0001067300
   0.0068617200    0.0001806500   -0.0169187400
   0.0024804300   -0.0038857400   -0.0117338300

8    
  0.0049610412597624  -0.0086824944874295   0.0000485705125699
  -0.0060600900   -0.0053131400    0.0018451000
  -0.0033217000    0.0016310300   -0.0000230700
   0.0067452000    0.0008280700    0.0022272400
   0.0023346400    0.0003716300    0.0004867900
   0.0085688900   -0.0033197500    0.0128469600
   0.0328692100   -0.0610223300   -0.0104391200
   0.0029037600    0.0016417300    0.0001259700
  -0.0573280500    0.0869653300    0.0057979400
  -0.0011456500   -0.0012316500   -0.0079433400
  -0.0000457600    0.0075245500    0.0011853600
   0.0077665200   -0.0135971700   -0.0037341400
   0.0067130300   -0.0144783100   -0.0023756800

8    
 -0.0049610412597624   0.0086824944874295  -0.0000485705125699
   0.0011097400    0.0026588800   -0.0009079500
  -0.0023008600    0.0012076500    0.0000509200
  -0.0018152000   -0.0019817800   -0.0001055700
   0.0030823200   -0.0008824900    0.0009260400
  -0.0076545000    0.0171291400   -0.0096934000
  -0.0335882800    0.0502202200    0.0145697500
   0.0007408500    0.0011061000   -0.0042700500
   0.0581121200   -0.1035300800   -0.0059589800
  -0.0025237800    0.0062764100    0.0054129500
  -0.0006152900    0.0066434200    0.0002478600
  -0.0041241900    0.0111219000   -0.0002915100
  -0.0104229300    0.0100306300    0.0000199300

8    
  0.0049610412597624   0.0086824944874295   0.0000485705125699
   0.0051948500    0.0100252200   -0.0042755300
  -0.0026537000    0.0007629000    0.0001039900
   0.0111904000   -0.0021998900    0.0043291600
   0.0023755100    0.0000629700    0.0006537200
   0.0038529200    0.0142757500   -0.0002290700
  -0.0101107400    0.0233499100    0.0099911600
   0.0038048700    0.0012370700    0.0024597200
  -0.0194854000   -0.0800622800   -0.0069315600
  -0.0019847000    0.0060155400    0.0000093800
  -0.0009705800    0.0071819600   -0.0039139300
   0.0086495500    0.0072203500   -0.0016873700
   0.0001370300    0.0121304900   -0.0005096700

8    
 -0.0049610412597624  -0.0086824944874295  -0.0000485705125699
  -0.0105354900   -0.0134582100    0.0055766300
  -0.0029468700    0.0020516200   -0.0000743800
  -0.0065286800    0.0007982100   -0.0022724900
   0.0030689500   -0.0005145300    0.0007748200
  -0.0030140600   -0.0005267400    0.0036305400
   0.0106030300   -0.0364630800   -0.0067135900
  -0.0001623200    0.0015094600   -0.0066497000
   0.0196569900    0.0669858900    0.0072019100
  -0.0016587800   -0.0009849200   -0.0024761100
   0.0003496400    0.0069637300    0.0052364800
  -0.0048046000   -0.0097939000   -0.0023804800
  -0.0040278100   -0.0165675100   -0.0018536300

8    
 -0.0032695436127519   0.0000000000000000   0.0094504012911788
  -0.0061062400   -0.0053750200    0.0031156400
  -0.0029985800    0.0014049000   -0.0010284300
  -0.0005456700    0.0007066000    0.0019757400
   0.0031254400   -0.0001267700    0.0002088500
   0.0015223800    0.0076638900    0.0489924200
  -0.0095765800    0.0062762600    0.0126748200
   0.0065148900    0.0012669700    0.0049791800
   0.0252735900   -0.0212214100   -0.0935135100
  -0.0045902700    0.0011487000    0.0104242400
  -0.0042387200    0.0096791100    0.0126919600
  -0.0025275300    0.0003835900   -0.0009041800
  -0.0058527000   -0.0018068300    0.0003832700

8    
  0.0032695436127519   0.0000000000000000  -0.0094504012911788
   0.0011845700    0.0025919600   -0.0022426400
  -0.0026246800    0.0014071800    0.0010471000
   0.0050553500   -0.0018901700   -0.0000068100
   0.0024084000   -0.0002935600    0.0012070600
  -0.0008973700    0.0060039500   -0.0486732900
   0.0101573900   -0.0191023700   -0.0094550400
  -0.0028902100    0.0014559600   -0.0092028500
  -0.0252597300    0.0071999300    0.0976494400
   0.0009283200    0.0037873200   -0.0129050000
   0.0035781400    0.0045523400   -0.0114138500
   0.0062697600   -0.0028745100   -0.0031913900
   0.0020900600   -0.0028380400   -0.0028127400

9    
  0.0049610412597624  -0.0086824944874295   0.0000485705125699
  -0.0016098800   -0.0017265900    0.0054355100
   0.0073074600    0.0017805300    0.0025333600
   0.0026902000   -0.0003429900    0.0009431500
  -0.0022445600   -0.0102794200    0.0036001500
   0.0558962700   -0.0793872900   -0.0251286600
  -0.0013214500   -0.0048820500   -0.0011566000
   0.0063649500   -0.0110410200   -0.0025401100
   0.0000576000   -0.0107924200    0.0007396900
  -0.0790792500    0.1291402900    0.0130571000
   0.0068920600   -0.0042758800    0.0014916500
   0.0031654100   -0.0066110300   -0.0024632200
   0.0018811900   -0.0015821300    0.0034879900

9    
 -0.0049610412597624   0.0086824944874295  -0.0000485705125699
  -0.0030987100   -0.0006939000   -0.0046065400
  -0.0124486100    0.0011302800   -0.0023485500
   0.0018611500   -0.0009045200    0.0010308600
   0.0073647400    0.0093461700   -0.0019898100
  -0.0576984100    0.0972171900    0.0298504100
   0.0021886800   -0.0084814300    0.0042890100
  -0.0029362400    0.0138447100   -0.0016205900
  -0.0008858100   -0.0030698400    0.0007773200
   0.0780527300   -0.1281044200   -0.0177169200
  -0.0074408700    0.0186450700   -0.0002148300
   0.0006667800    0.0040829100   -0.0016166400
  -0.0056254100   -0.0030122200   -0.0058337200

9    
  0.0049610412597624   0.0086824944874295   0.0000485705125699
  -0.0043782700   -0.0021098200   -0.0005732900
   0.0129583600    0.0006214600    0.0062734500
   0.0018067300   -0.0005999500    0.0008882100
   0.0140608000    0.0230054300   -0.0077939300
  -0.0205651500    0.0525316400    0.0159733300
   0.0016172000   -0.0079440000    0.0043878000
   0.0112794600    0.0075013100   -0.0023184100
  -0.0003699700   -0.0035441900   -0.0018713500
  -0.0222378200   -0.0926879600   -0.0109643200
   0.0031038000    0.0223188500   -0.0007039500
   0.0017774100    0.0034115400   -0.0056317600
   0.0009474400   -0.0025043200    0.0023342200

9    
 -0.0049610412597624  -0.0086824944874295  -0.0000485705125699
  -0.0003667000   -0.0003702700    0.0014776900
  -0.0183285200    0.0020466200   -0.0060510100
   0.0027918800   -0.0005776000    0.0010597400
  -0.0093609800   -0.0251281400    0.0099325200
   0.0208172700   -0.0384752700   -0.0126409000
  -0.0007380000   -0.0053789900   -0.0012840100
  -0.0076487000   -0.0047756700   -0.0018636600
  -0.0004308600   -0.0103955000    0.0032949500
   0.0198657900    0.0991362600    0.0071716600
  -0.0038794900   -0.0080010800    0.0020039200
   0.0020083400   -0.0059560000    0.0016339500
  -0.0047300200   -0.0021243600   -0.0047348700

9    
 -0.0032695436127519   0.0000000000000000   0.0094504012911788
  -0.0025811200   -0.0009283000    0.0287408100
   0.0005958800    0.0027222200    0.0004667100
   0.0024263500   -0.0004907400    0.0003684100
  -0.0058947400   -0.0144263400    0.0058839100
  -0.0253793800    0.0423085200    0.0207432300
   0.0011869900   -0.0097455200   -0.0001250100
  -0.0021081800    0.0032551100   -0.0026009300
  -0.0058708600   -0.0023845800    0.0114134100
   0.0382463200   -0.0217347000   -0.0848020200
  -0.0043310800    0.0048638000    0.0022301300
   0.0000936100   -0.0015863900    0.0093744400
   0.0036162100   -0.0018530800    0.0083069100

9    
  0.0032695436127519   0.0000000000000000  -0.0094504012911788
  -0.0022554800   -0.0015528200   -0.0299584600
  -0.0063479700    0.0000788000   -0.0005440100
   0.0021549200   -0.0007517800    0.0016501600
   0.0111397900    0.0135640300   -0.0045424200
   0.0259882900   -0.0279512700   -0.0179659500
  -0.0002820300   -0.0036276900    0.0032723200
   0.0057068300   -0.0004625400   -0.0015763000
   0.0050545600   -0.0113463100   -0.0100360600
  -0.0411450300    0.0265145200    0.0848392800
   0.0037115000    0.0093081900   -0.0009487400
   0.0037179400   -0.0010169000   -0.0134249100
  -0.0074433300   -0.0027562300   -0.0107649100
