   12   12    1    1
  0.1849176E+02  0.6500240E-09  0.6500240E-09  0.6428867E-09  0.5000000E-15
  1.000000000000000E-004
  CAR 
 CGS                                     
  112   42   80
 
  0.0000000E+00  0.0000000E+00  0.0000000E+00  0.1250000E-01
   1      -68.654319
   2      -68.643714
   3      -68.634712
   4      -68.627794
   5      -68.624287
   6      -68.611994
   7      -68.604510
   8      -68.594119
   9      -68.578829
  10      -68.572964
  11      -68.562023
  12      -68.554881
  13      -12.719514
  14      -11.127667
  15      -10.915843
  16      -10.603044
  17      -10.250101
  18      -10.233721
  19       -5.986437
  20       -4.983144
  21       -2.758176
  22       -2.208654
  23       -2.070123
  24       -1.921232
  25       -1.577297
  26       -0.984214
  27       -0.951780
  28       -0.684295
  29       -0.406569
  30       -0.275981
  31       -0.262428
  32       -0.235234
  33       -0.193646
  34       -0.153333
  35       -0.037017
  36        0.028716
  37        1.347955
  38        1.361660
  39        1.412862
  40        1.458491
  41        1.471507
  42        1.474072
  43        1.518758
  44        1.532873
  45        1.572251
  46        1.710462
  47        1.893439
  48        1.929187
  49        2.059299
  50        2.649721
  51        2.729878
  52        3.090283
  53        3.215691
  54        4.007582
  55        4.039575
  56        4.174153
  57        5.533512
  58        6.357783
  59        7.631220
  60        7.987352
  61        8.609350
  62        8.789395
  63        9.563948
  64        9.738177
  65        9.811876
  66       10.419336
  67       10.584409
  68       10.700203
  69       10.717539
  70       11.277941
  71       11.715215
  72       12.395584
  73       12.449745
  74       12.734604
  75       13.321824
  76       13.385491
  77       13.832584
  78       13.886179
  79       14.144716
  80       14.180666
 
  0.2500000E+00  0.7372575E-17  0.1387779E-16  0.2500000E-01
   1      -68.654294
   2      -68.643668
   3      -68.634687
   4      -68.627755
   5      -68.624189
   6      -68.611887
   7      -68.604504
   8      -68.594144
   9      -68.578760
  10      -68.572913
  11      -68.561989
  12      -68.554845
  13      -12.594596
  14      -11.123796
  15      -10.982812
  16      -10.676244
  17      -10.366146
  18      -10.275765
  19       -5.934390
  20       -4.772989
  21       -2.645501
  22       -2.250251
  23       -2.087113
  24       -1.689585
  25       -1.342774
  26       -0.998546
  27       -0.768299
  28       -0.621882
  29       -0.552661
  30       -0.439931
  31       -0.364619
  32       -0.243878
  33       -0.193931
  34       -0.169879
  35       -0.044037
  36        0.034514
  37        1.277916
  38        1.337048
  39        1.355393
  40        1.389727
  41        1.424412
  42        1.471049
  43        1.499858
  44        1.529305
  45        1.724233
  46        1.856696
  47        2.057650
  48        2.096497
  49        2.231942
  50        2.414078
  51        2.554724
  52        2.824748
  53        2.947056
  54        3.243051
  55        3.665247
  56        4.039826
  57        6.165721
  58        6.905104
  59        8.139904
  60        8.267290
  61        8.588235
  62        9.011786
  63        9.242829
  64        9.531576
  65        9.861433
  66       10.373792
  67       10.638061
  68       10.812774
  69       10.939269
  70       11.189524
  71       11.660041
  72       11.769841
  73       12.115852
  74       12.446076
  75       12.615337
  76       13.007302
  77       13.509578
  78       13.874665
  79       14.215080
  80       14.708649
 
  0.5000000E+00  0.1474515E-16  0.2775558E-16  0.1250000E-01
   1      -68.654122
   2      -68.643552
   3      -68.634607
   4      -68.627676
   5      -68.624176
   6      -68.611835
   7      -68.604437
   8      -68.594058
   9      -68.578705
  10      -68.572901
  11      -68.561874
  12      -68.554676
  13      -12.435342
  14      -11.246185
  15      -10.956569
  16      -10.763005
  17      -10.428401
  18      -10.355999
  19       -5.871744
  20       -4.548289
  21       -2.494677
  22       -2.244465
  23       -1.945940
  24       -1.461339
  25       -1.224778
  26       -1.103851
  27       -0.901539
  28       -0.857863
  29       -0.598278
  30       -0.538452
  31       -0.280229
  32       -0.204164
  33       -0.201809
  34       -0.149523
  35       -0.028762
  36        0.076338
  37        1.253813
  38        1.329609
  39        1.344964
  40        1.392984
  41        1.471154
  42        1.480794
  43        1.499718
  44        1.552485
  45        1.750979
  46        1.790056
  47        1.971579
  48        2.144629
  49        2.322824
  50        2.363754
  51        2.550411
  52        2.670352
  53        2.936170
  54        3.080364
  55        3.254070
  56        3.859815
  57        6.379698
  58        7.096481
  59        7.980873
  60        8.204086
  61        8.517734
  62        8.820723
  63        9.325482
  64        9.890838
  65       10.011095
  66       10.515160
  67       10.690198
  68       10.795338
  69       11.140833
  70       11.404702
  71       11.619762
  72       11.774242
  73       11.943350
  74       12.493667
  75       12.774114
  76       13.007630
  77       13.394844
  78       13.537986
  79       13.939368
  80       14.270591
 
  0.7372575E-17  0.2500000E+00  0.1387779E-16  0.2500000E-01
   1      -68.654272
   2      -68.643689
   3      -68.634672
   4      -68.627768
   5      -68.624184
   6      -68.611891
   7      -68.604532
   8      -68.594118
   9      -68.578775
  10      -68.572897
  11      -68.561988
  12      -68.554848
  13      -12.594533
  14      -11.124226
  15      -10.982505
  16      -10.677459
  17      -10.362807
  18      -10.277723
  19       -5.934962
  20       -4.772944
  21       -2.643257
  22       -2.252075
  23       -2.084051
  24       -1.688413
  25       -1.346809
  26       -0.998830
  27       -0.769608
  28       -0.625942
  29       -0.556549
  30       -0.436615
  31       -0.360380
  32       -0.240832
  33       -0.196655
  34       -0.165753
  35       -0.050815
  36        0.038572
  37        1.278082
  38        1.334275
  39        1.353703
  40        1.392095
  41        1.425730
  42        1.471291
  43        1.496927
  44        1.531050
  45        1.724334
  46        1.861051
  47        2.056810
  48        2.093767
  49        2.231358
  50        2.414952
  51        2.555268
  52        2.825142
  53        2.947972
  54        3.243477
  55        3.662927
  56        4.041937
  57        6.163757
  58        6.904866
  59        8.137924
  60        8.267379
  61        8.588795
  62        9.011759
  63        9.240150
  64        9.530956
  65        9.861811
  66       10.374708
  67       10.630679
  68       10.818590
  69       10.942346
  70       11.191598
  71       11.657871
  72       11.771890
  73       12.118808
  74       12.438783
  75       12.621618
  76       13.011941
  77       13.526412
  78       13.897401
  79       14.270143
  80       14.837930
 
  0.2500000E+00  0.2500000E+00  0.0000000E+00  0.2500000E-01
   1      -68.654295
   2      -68.643691
   3      -68.634574
   4      -68.627652
   5      -68.624322
   6      -68.612024
   7      -68.604405
   8      -68.594019
   9      -68.578891
  10      -68.573028
  11      -68.562007
  12      -68.554864
  13      -12.439087
  14      -11.187444
  15      -10.942932
  16      -10.877815
  17      -10.390416
  18      -10.348691
  19       -5.877349
  20       -4.521674
  21       -2.417015
  22       -2.243980
  23       -1.790755
  24       -1.681539
  25       -1.355923
  26       -1.298982
  27       -1.079397
  28       -0.683633
  29       -0.528383
  30       -0.299237
  31       -0.284325
  32       -0.222804
  33       -0.187491
  34       -0.127950
  35       -0.091431
  36        0.076760
  37        1.291835
  38        1.310860
  39        1.414220
  40        1.424937
  41        1.461373
  42        1.482633
  43        1.495802
  44        1.571124
  45        1.671819
  46        1.881749
  47        1.941177
  48        2.134903
  49        2.279642
  50        2.319635
  51        2.558671
  52        2.649630
  53        2.904196
  54        2.944740
  55        3.700251
  56        3.831669
  57        6.165153
  58        6.989947
  59        8.004820
  60        8.321154
  61        8.435008
  62        8.570636
  63        9.144000
  64        9.248978
  65       10.362761
  66       10.493770
  67       10.923931
  68       11.184041
  69       11.328030
  70       11.561840
  71       11.809276
  72       11.965332
  73       12.315168
  74       12.504367
  75       12.710586
  76       12.915840
  77       13.336494
  78       13.443010
  79       14.260219
  80       14.360042
 
  0.5000000E+00  0.2500000E+00 -0.2775558E-16  0.2500000E-01
   1      -68.654067
   2      -68.643495
   3      -68.634626
   4      -68.627722
   5      -68.624110
   6      -68.611792
   7      -68.604470
   8      -68.594070
   9      -68.578650
  10      -68.572863
  11      -68.561868
  12      -68.554703
  13      -12.439682
  14      -11.350900
  15      -10.937868
  16      -10.737507
  17      -10.388089
  18      -10.270252
  19       -5.948768
  20       -4.642897
  21       -2.393615
  22       -2.225225
  23       -2.058508
  24       -1.639279
  25       -1.355311
  26       -1.281750
  27       -1.021849
  28       -0.513746
  29       -0.482159
  30       -0.330621
  31       -0.283637
  32       -0.217458
  33       -0.152183
  34       -0.139576
  35       -0.010988
  36        0.111017
  37        1.245740
  38        1.312502
  39        1.383852
  40        1.436891
  41        1.461242
  42        1.490092
  43        1.496861
  44        1.549128
  45        1.747041
  46        1.827481
  47        1.924078
  48        2.132924
  49        2.221521
  50        2.386276
  51        2.559846
  52        2.790839
  53        2.978884
  54        3.314126
  55        3.605782
  56        3.747479
  57        6.082560
  58        6.938690
  59        7.612372
  60        8.068912
  61        8.406118
  62        8.616656
  63        8.982573
  64        9.150769
  65       10.087140
  66       10.338643
  67       10.728279
  68       11.110255
  69       11.461235
  70       11.596096
  71       11.791657
  72       12.087701
  73       12.473577
  74       12.908287
  75       13.028477
  76       13.815138
  77       14.206658
  78       14.634164
  79       15.418283
  80       15.636014
 
 -0.2500000E+00  0.2500000E+00  0.0000000E+00  0.2500000E-01
   1      -68.654284
   2      -68.643680
   3      -68.634652
   4      -68.627733
   5      -68.624121
   6      -68.611822
   7      -68.604501
   8      -68.594115
   9      -68.578716
  10      -68.572853
  11      -68.561990
  12      -68.554848
  13      -12.597615
  14      -11.248387
  15      -10.991671
  16      -10.570239
  17      -10.364433
  18      -10.179200
  19       -6.011452
  20       -4.895021
  21       -2.646786
  22       -2.314148
  23       -1.970112
  24       -1.644563
  25       -1.492646
  26       -1.186594
  27       -0.789479
  28       -0.584014
  29       -0.446660
  30       -0.332750
  31       -0.296107
  32       -0.235329
  33       -0.175326
  34       -0.134573
  35       -0.011936
  36        0.072061
  37        1.258633
  38        1.319811
  39        1.361997
  40        1.423355
  41        1.431464
  42        1.475096
  43        1.503710
  44        1.540510
  45        1.722110
  46        1.811843
  47        1.996680
  48        2.072927
  49        2.417360
  50        2.464149
  51        2.529005
  52        2.870657
  53        3.143291
  54        3.229957
  55        3.785203
  56        4.071937
  57        5.974371
  58        6.688130
  59        7.534261
  60        8.222705
  61        8.613564
  62        8.913799
  63        9.305345
  64        9.429790
  65        9.802698
  66       10.268263
  67       10.540776
  68       10.829123
  69       10.970780
  70       11.385671
  71       11.470718
  72       11.736492
  73       12.101505
  74       12.662599
  75       12.939382
  76       13.109545
  77       13.351054
  78       13.522306
  79       14.476261
  80       14.756147
 
  0.1474515E-16  0.5000000E+00  0.2775558E-16  0.1250000E-01
   1      -68.654154
   2      -68.643518
   3      -68.634598
   4      -68.627682
   5      -68.624132
   6      -68.611879
   7      -68.604442
   8      -68.594053
   9      -68.578765
  10      -68.572838
  11      -68.561819
  12      -68.554737
  13      -12.435191
  14      -11.246131
  15      -10.956892
  16      -10.765585
  17      -10.422221
  18      -10.359254
  19       -5.872895
  20       -4.548048
  21       -2.491414
  22       -2.244123
  23       -1.942885
  24       -1.462548
  25       -1.228056
  26       -1.102193
  27       -0.903183
  28       -0.862712
  29       -0.603274
  30       -0.541369
  31       -0.273013
  32       -0.206442
  33       -0.200606
  34       -0.142841
  35       -0.030783
  36        0.077120
  37        1.253112
  38        1.325109
  39        1.345721
  40        1.396763
  41        1.469375
  42        1.478638
  43        1.498510
  44        1.555450
  45        1.753249
  46        1.794378
  47        1.966667
  48        2.148822
  49        2.318912
  50        2.360503
  51        2.556512
  52        2.669825
  53        2.940658
  54        3.077311
  55        3.249747
  56        3.863284
  57        6.377439
  58        7.096674
  59        7.980209
  60        8.202465
  61        8.506114
  62        8.821530
  63        9.330495
  64        9.887808
  65       10.013250
  66       10.520641
  67       10.691719
  68       10.791988
  69       11.141397
  70       11.413042
  71       11.609094
  72       11.778640
  73       11.941566
  74       12.520234
  75       12.827397
  76       13.018750
  77       13.549321
  78       13.686062
  79       14.552908
  80       15.252902
 
  0.2500000E+00  0.5000000E+00 -0.2775558E-16  0.2500000E-01
   1      -68.654092
   2      -68.643478
   3      -68.634597
   4      -68.627700
   5      -68.624101
   6      -68.611833
   7      -68.604468
   8      -68.594088
   9      -68.578685
  10      -68.572823
  11      -68.561825
  12      -68.554747
  13      -12.439586
  14      -11.351141
  15      -10.938129
  16      -10.737968
  17      -10.385806
  18      -10.271571
  19       -5.949280
  20       -4.642927
  21       -2.390942
  22       -2.226402
  23       -2.053230
  24       -1.641304
  25       -1.363672
  26       -1.279960
  27       -1.021671
  28       -0.512772
  29       -0.485101
  30       -0.330589
  31       -0.286128
  32       -0.213656
  33       -0.151191
  34       -0.136744
  35       -0.012716
  36        0.111526
  37        1.244681
  38        1.315293
  39        1.379655
  40        1.435306
  41        1.459364
  42        1.491490
  43        1.498427
  44        1.551800
  45        1.751062
  46        1.829000
  47        1.919198
  48        2.132781
  49        2.219116
  50        2.385747
  51        2.564520
  52        2.790554
  53        2.979727
  54        3.312692
  55        3.603669
  56        3.749728
  57        6.081239
  58        6.937684
  59        7.612566
  60        8.069415
  61        8.406427
  62        8.613004
  63        8.983505
  64        9.152327
  65       10.093008
  66       10.326478
  67       10.731221
  68       11.106350
  69       11.457991
  70       11.576512
  71       11.792866
  72       12.034843
  73       12.516239
  74       12.680060
  75       12.919153
  76       13.208486
  77       14.232734
  78       14.764350
  79       15.254982
  80       15.910403
 
  0.5000000E+00  0.5000000E+00  0.0000000E+00  0.1250000E-01
   1      -68.653918
   2      -68.643301
   3      -68.634441
   4      -68.627529
   5      -68.623990
   6      -68.611699
   7      -68.604275
   8      -68.593882
   9      -68.578597
  10      -68.572729
  11      -68.561657
  12      -68.554515
  13      -12.431743
  14      -11.498449
  15      -10.913315
  16      -10.617667
  17      -10.394995
  18      -10.198584
  19       -6.027508
  20       -4.811476
  21       -2.313690
  22       -2.263590
  23       -2.094609
  24       -1.698998
  25       -1.241710
  26       -1.109373
  27       -0.842992
  28       -0.781445
  29       -0.726653
  30       -0.245397
  31       -0.200831
  32       -0.185959
  33       -0.152112
  34       -0.041068
  35       -0.005412
  36        0.185263
  37        1.266767
  38        1.315452
  39        1.372801
  40        1.414437
  41        1.434873
  42        1.488814
  43        1.508907
  44        1.547329
  45        1.786906
  46        1.844863
  47        1.997802
  48        2.151318
  49        2.254194
  50        2.333373
  51        2.559945
  52        2.765161
  53        2.774639
  54        3.372034
  55        3.763679
  56        4.009157
  57        5.849476
  58        6.765187
  59        7.083384
  60        8.412511
  61        8.562277
  62        8.769487
  63        9.137757
  64        9.237576
  65        9.959380
  66       10.284083
  67       10.717357
  68       10.824402
  69       10.880540
  70       11.275919
  71       11.751188
  72       11.916884
  73       11.973562
  74       12.371388
  75       12.540732
  76       13.456631
  77       14.278841
  78       14.673480
  79       16.743349
  80       16.756998
 
 -0.2168404E-18 -0.2168404E-18  0.2000000E+00  0.2500000E-01
   1      -68.654320
   2      -68.643715
   3      -68.634681
   4      -68.627762
   5      -68.624216
   6      -68.611917
   7      -68.604525
   8      -68.594139
   9      -68.578802
  10      -68.572938
  11      -68.562025
  12      -68.554883
  13      -12.616263
  14      -11.423341
  15      -10.777608
  16      -10.608124
  17      -10.248962
  18      -10.235627
  19       -5.832266
  20       -5.046557
  21       -2.598761
  22       -2.371727
  23       -1.961072
  24       -1.773901
  25       -1.443559
  26       -1.126851
  27       -1.065896
  28       -0.772722
  29       -0.472398
  30       -0.296114
  31       -0.239749
  32       -0.233404
  33       -0.194311
  34       -0.146454
  35       -0.015455
  36        0.022307
  37        1.331461
  38        1.380461
  39        1.413735
  40        1.438863
  41        1.463940
  42        1.469226
  43        1.513592
  44        1.546734
  45        1.631069
  46        1.756513
  47        1.787215
  48        1.953454
  49        2.088681
  50        2.660365
  51        2.718306
  52        3.194979
  53        3.250998
  54        3.520826
  55        3.895983
  56        3.976970
  57        6.041872
  58        6.415659
  59        7.824509
  60        7.907749
  61        8.361075
  62        8.817148
  63        9.772589
  64        9.792692
  65       10.061315
  66       10.587162
  67       10.645317
  68       10.812306
  69       10.857167
  70       11.493788
  71       11.560711
  72       12.029587
  73       12.576181
  74       12.778414
  75       12.913135
  76       13.209592
  77       13.537990
  78       13.824474
  79       14.197398
  80       14.705726
 
  0.2500000E+00  0.1517883E-17  0.2000000E+00  0.2500000E-01
   1      -68.654259
   2      -68.643651
   3      -68.634666
   4      -68.627748
   5      -68.624249
   6      -68.611963
   7      -68.604489
   8      -68.594092
   9      -68.578817
  10      -68.572943
  11      -68.561956
  12      -68.554827
  13      -12.457302
  14      -11.464223
  15      -10.864193
  16      -10.687672
  17      -10.373485
  18      -10.243918
  19       -5.767197
  20       -4.804094
  21       -2.445112
  22       -2.231848
  23       -1.850483
  24       -1.712688
  25       -1.429878
  26       -1.190054
  27       -0.891036
  28       -0.744700
  29       -0.610511
  30       -0.521974
  31       -0.312938
  32       -0.245731
  33       -0.173596
  34       -0.124522
  35       -0.051013
  36        0.058251
  37        1.301733
  38        1.333416
  39        1.368544
  40        1.434082
  41        1.444117
  42        1.479107
  43        1.519505
  44        1.547755
  45        1.643004
  46        1.869544
  47        1.982258
  48        2.047787
  49        2.194017
  50        2.477416
  51        2.593183
  52        2.839002
  53        2.962355
  54        3.132069
  55        3.568381
  56        3.725546
  57        6.436424
  58        6.955809
  59        8.168731
  60        8.245821
  61        8.835192
  62        9.126340
  63        9.467070
  64        9.793884
  65       10.078767
  66       10.297640
  67       10.743804
  68       11.080136
  69       11.291943
  70       11.427390
  71       11.637933
  72       11.719171
  73       12.086899
  74       12.263616
  75       12.543850
  76       12.658321
  77       12.950946
  78       13.061744
  79       13.636421
  80       14.688628
 
  0.5000000E+00  0.9107298E-17  0.2000000E+00  0.2500000E-01
   1      -68.654075
   2      -68.643522
   3      -68.634551
   4      -68.627660
   5      -68.624131
   6      -68.611807
   7      -68.604418
   8      -68.594000
   9      -68.578689
  10      -68.572870
  11      -68.561895
  12      -68.554740
  13      -12.354938
  14      -11.410972
  15      -10.952924
  16      -10.682672
  17      -10.478687
  18      -10.332856
  19       -5.752576
  20       -4.722199
  21       -2.522652
  22       -2.184105
  23       -1.953679
  24       -1.532688
  25       -1.303238
  26       -1.096583
  27       -0.864371
  28       -0.757135
  29       -0.549963
  30       -0.444696
  31       -0.293903
  32       -0.181364
  33       -0.147095
  34       -0.107807
  35       -0.044567
  36        0.019151
  37        1.272494
  38        1.296930
  39        1.349024
  40        1.428634
  41        1.451274
  42        1.480344
  43        1.500767
  44        1.588153
  45        1.718934
  46        1.929384
  47        2.077115
  48        2.145171
  49        2.267842
  50        2.404311
  51        2.568637
  52        2.596880
  53        2.897832
  54        3.010668
  55        3.363311
  56        3.898631
  57        6.360207
  58        6.896231
  59        7.572695
  60        8.083760
  61        8.548217
  62        8.798147
  63        9.280106
  64        9.625404
  65        9.930467
  66       10.271022
  67       10.662434
  68       10.926565
  69       10.981221
  70       11.279998
  71       11.514353
  72       11.786771
  73       12.249212
  74       12.543587
  75       13.101563
  76       13.514217
  77       14.300291
  78       14.664914
  79       15.129868
  80       16.265864
 
 -0.2500000E+00 -0.4098284E-16  0.2000000E+00  0.2500000E-01
   1      -68.654309
   2      -68.643712
   3      -68.634657
   4      -68.627737
   5      -68.624229
   6      -68.611920
   7      -68.604510
   8      -68.594123
   9      -68.578812
  10      -68.572963
  11      -68.562023
  12      -68.554872
  13      -12.539888
  14      -11.335296
  15      -10.873143
  16      -10.605459
  17      -10.397793
  18      -10.281259
  19       -5.825998
  20       -4.974508
  21       -2.665179
  22       -2.452599
  23       -2.037141
  24       -1.576682
  25       -1.167739
  26       -0.984100
  27       -0.795398
  28       -0.657034
  29       -0.516984
  30       -0.388311
  31       -0.270136
  32       -0.254518
  33       -0.195065
  34       -0.142681
  35       -0.046047
  36        0.009166
  37        1.291418
  38        1.309091
  39        1.390086
  40        1.406264
  41        1.431706
  42        1.454124
  43        1.492106
  44        1.563761
  45        1.686188
  46        1.915725
  47        1.984324
  48        2.146914
  49        2.334682
  50        2.565455
  51        2.616294
  52        2.830298
  53        2.971327
  54        3.249504
  55        3.686834
  56        3.944493
  57        6.175434
  58        6.637020
  59        7.768971
  60        7.971988
  61        8.210200
  62        8.559175
  63        9.379801
  64        9.576281
  65        9.905684
  66       10.250817
  67       10.548157
  68       10.785452
  69       10.839665
  70       11.066089
  71       11.569119
  72       12.022400
  73       12.527858
  74       12.753118
  75       12.959168
  76       13.306090
  77       13.412584
  78       13.743302
  79       13.846131
  80       14.724188
 
  0.1517883E-17  0.2500000E+00  0.2000000E+00  0.2500000E-01
   1      -68.654256
   2      -68.643653
   3      -68.634666
   4      -68.627748
   5      -68.624258
   6      -68.611956
   7      -68.604481
   8      -68.594099
   9      -68.578807
  10      -68.572954
  11      -68.561968
  12      -68.554814
  13      -12.457199
  14      -11.464458
  15      -10.863342
  16      -10.689772
  17      -10.372227
  18      -10.243640
  19       -5.767951
  20       -4.803886
  21       -2.443454
  22       -2.232063
  23       -1.847842
  24       -1.712804
  25       -1.433963
  26       -1.186961
  27       -0.891044
  28       -0.754620
  29       -0.605828
  30       -0.523948
  31       -0.309005
  32       -0.241873
  33       -0.174780
  34       -0.124163
  35       -0.056314
  36        0.061267
  37        1.300039
  38        1.336147
  39        1.368339
  40        1.430076
  41        1.445990
  42        1.476457
  43        1.521720
  44        1.546766
  45        1.644298
  46        1.875911
  47        1.976473
  48        2.049200
  49        2.193800
  50        2.476464
  51        2.594200
  52        2.837592
  53        2.965937
  54        3.131207
  55        3.567345
  56        3.725861
  57        6.434915
  58        6.954264
  59        8.166321
  60        8.247191
  61        8.835107
  62        9.126996
  63        9.462323
  64        9.795649
  65       10.085794
  66       10.296480
  67       10.744105
  68       11.077944
  69       11.288656
  70       11.425758
  71       11.632290
  72       11.722925
  73       12.089153
  74       12.272499
  75       12.545239
  76       12.656799
  77       12.958516
  78       13.055705
  79       13.659353
  80       14.696707
 
  0.2500000E+00  0.2500000E+00  0.2000000E+00  0.2500000E-01
   1      -68.654166
   2      -68.643562
   3      -68.634517
   4      -68.627597
   5      -68.624096
   6      -68.611800
   7      -68.604358
   8      -68.593973
   9      -68.578683
  10      -68.572817
  11      -68.561874
  12      -68.554729
  13      -12.325596
  14      -11.472175
  15      -10.863299
  16      -10.856356
  17      -10.407279
  18      -10.284563
  19       -5.748683
  20       -4.691744
  21       -2.241058
  22       -2.137539
  23       -1.928109
  24       -1.847777
  25       -1.454567
  26       -1.397042
  27       -1.036646
  28       -0.523363
  29       -0.462562
  30       -0.349124
  31       -0.253887
  32       -0.215975
  33       -0.163534
  34       -0.112998
  35       -0.088991
  36        0.078691
  37        1.260881
  38        1.345706
  39        1.398767
  40        1.433846
  41        1.452170
  42        1.509840
  43        1.532399
  44        1.543220
  45        1.753600
  46        1.818974
  47        2.040942
  48        2.134873
  49        2.283124
  50        2.310966
  51        2.521395
  52        2.768916
  53        2.901279
  54        3.263195
  55        3.494738
  56        3.803545
  57        6.177624
  58        6.839422
  59        7.824281
  60        8.044125
  61        8.189536
  62        8.726207
  63        9.154658
  64        9.303505
  65       10.218843
  66       10.446580
  67       10.589703
  68       11.003210
  69       11.244948
  70       11.485407
  71       11.815219
  72       12.173469
  73       12.204381
  74       12.572441
  75       12.688728
  76       13.114702
  77       13.412964
  78       13.885111
  79       14.006426
  80       14.528343
 
  0.5000000E+00  0.2500000E+00  0.2000000E+00  0.2500000E-01
   1      -68.654045
   2      -68.643444
   3      -68.634578
   4      -68.627719
   5      -68.624116
   6      -68.611837
   7      -68.604453
   8      -68.594034
   9      -68.578671
  10      -68.572876
  11      -68.561820
  12      -68.554711
  13      -12.372382
  14      -11.470629
  15      -10.936935
  16      -10.653391
  17      -10.417356
  18      -10.303498
  19       -5.801615
  20       -4.836801
  21       -2.526447
  22       -2.246549
  23       -1.872152
  24       -1.642022
  25       -1.503330
  26       -1.302335
  27       -0.900611
  28       -0.534525
  29       -0.378709
  30       -0.349414
  31       -0.224948
  32       -0.181561
  33       -0.163484
  34       -0.077952
  35       -0.027583
  36        0.079611
  37        1.189617
  38        1.362599
  39        1.396814
  40        1.441996
  41        1.462640
  42        1.503862
  43        1.517519
  44        1.584357
  45        1.737381
  46        1.818242
  47        2.038801
  48        2.234602
  49        2.270212
  50        2.362945
  51        2.485592
  52        2.671965
  53        3.053169
  54        3.413444
  55        3.730666
  56        3.866423
  57        5.927383
  58        6.611761
  59        7.354388
  60        7.941337
  61        8.062769
  62        8.720987
  63        8.907550
  64        9.139719
  65        9.844892
  66       10.328733
  67       10.550695
  68       10.923276
  69       11.230566
  70       11.411872
  71       11.754219
  72       12.001157
  73       12.495155
  74       12.828322
  75       13.202888
  76       14.186632
  77       14.711569
  78       15.168020
  79       15.916055
  80       16.564192
 
 -0.2500000E+00  0.2500000E+00  0.2000000E+00  0.2500000E-01
   1      -68.654259
   2      -68.643617
   3      -68.634715
   4      -68.627788
   5      -68.624169