       N       E                     dE             d eps       ncg     rms          ort
SDA:   1     0.755423771940E+02    0.75542E+02   -0.21324E+03  3360   0.533E+03 0.000E+00
DMP:   2    -0.837714338360E+01   -0.83920E+02   -0.14689E+03  3360   0.395E+03-0.738E+02
DMP:   3    -0.151764969306E+02   -0.67994E+01   -0.20357E+03  3360   0.693E+03-0.481E+03
DMP:   4    -0.226527454801E+02   -0.74762E+01   -0.10739E+03  3360   0.390E+03-0.319E+03
DMP:   5    -0.608118238915E+02   -0.38159E+02   -0.15080E+02  3360   0.706E+02-0.862E+02
DMP:   6    -0.659118569512E+02   -0.51000E+01   -0.82295E+01  3360   0.248E+02-0.111E+02
DMP:   7    -0.674588923518E+02   -0.15470E+01   -0.41638E+01  3360   0.148E+02-0.115E+02
DMP:   8    -0.690822652281E+02   -0.16234E+01   -0.77407E+00  3360   0.285E+01-0.239E+01
DMP:   9    -0.693939700186E+02   -0.31170E+00   -0.38893E+00  3360   0.111E+01-0.366E+00
DMP:  10    -0.694983342229E+02   -0.10436E+00   -0.15325E+00  3360   0.551E+00-0.440E+00
DMP:  11    -0.695683764652E+02   -0.70042E-01   -0.36925E-01  3360   0.105E+00-0.341E-01
DMP:  12    -0.695806905974E+02   -0.12314E-01   -0.22997E-01  3360   0.694E-01-0.312E-01
DMP:  13    -0.695904132258E+02   -0.97226E-02   -0.51346E-02  3360   0.162E-01-0.882E-02
DMP:  14    -0.695928771394E+02   -0.24639E-02   -0.38052E-02  3360   0.971E-02-0.509E-03
DMP:  15    -0.695943921933E+02   -0.15151E-02   -0.10443E-02  3360   0.335E-02-0.195E-02
DMP:  16    -0.695949677916E+02   -0.57560E-03   -0.41180E-03  3360   0.920E-03 0.286E-03
DMP:  17    -0.695951418637E+02   -0.17407E-03   -0.21019E-03  3360   0.584E-03-0.152E-03
DMP:  18    -0.695952598032E+02   -0.11794E-03   -0.56446E-04  3360   0.120E-03 0.560E-04
DMP:  19    -0.695952888450E+02   -0.29042E-04   -0.35566E-04  3360   0.890E-04-0.107E-06
DMP:  20    -0.695953087752E+02   -0.19930E-04   -0.11671E-04  3360   0.243E-04 0.127E-04
DMP:  21    -0.695953162357E+02   -0.74605E-05   -0.70731E-05  3360   0.141E-04 0.926E-05
   1 F= -.69595316E+02 E0= -.69595501E+02  d E =0.554215E-03
