 vasp.5.3.3 18Dez12 (build Nov 13 2015 09:58:40) complex                        
  
 executed on             LinuxIFC date 2017.10.18  13:22:28
 running on   48 total cores
 distrk:  each k-point on   16 cores,    3 groups
 distr:  one band on NCORES_PER_BAND=   1 cores,   16 groups


--------------------------------------------------------------------------------------------------------


 INCAR:
 POTCAR:    PAW_PBE Cu_pv 06Sep2000               
 POTCAR:    PAW_PBE Ge 05Jan2001                  
 POTCAR:    PAW_PBE S 17Jan2003                   

 ----------------------------------------------------------------------------- 
|                                                                             |
|           W    W    AA    RRRRR   N    N  II  N    N   GGGG   !!!           |
|           W    W   A  A   R    R  NN   N  II  NN   N  G    G  !!!           |
|           W    W  A    A  R    R  N N  N  II  N N  N  G       !!!           |
|           W WW W  AAAAAA  RRRRR   N  N N  II  N  N N  G  GGG   !            |
|           WW  WW  A    A  R   R   N   NN  II  N   NN  G    G                |
|           W    W  A    A  R    R  N    N  II  N    N   GGGG   !!!           |
|                                                                             |
|      For optimal performance we recommend that you set                      |
|        NPAR = 4 - approx SQRT( number of cores)                             |
|      (number of cores/NPAR must be integer)                                 |
|      This setting will greatly improve the performance of VASP for DFT.     |
|      The default NPAR=number of cores might be grossly inefficient          |
|      on modern multi-core architectures or massively parallel machines.     |
|      Do your own testing.                                                   |
|      Unfortunately you need to use the default for hybrid, GW and RPA       |
|      calculations.                                                          |
|                                                                             |
 ----------------------------------------------------------------------------- 


 ----------------------------------------------------------------------------- 
|                                                                             |
|           W    W    AA    RRRRR   N    N  II  N    N   GGGG   !!!           |
|           W    W   A  A   R    R  NN   N  II  NN   N  G    G  !!!           |
|           W    W  A    A  R    R  N N  N  II  N N  N  G       !!!           |
|           W WW W  AAAAAA  RRRRR   N  N N  II  N  N N  G  GGG   !            |
|           WW  WW  A    A  R   R   N   NN  II  N   NN  G    G                |
|           W    W  A    A  R    R  N    N  II  N    N   GGGG   !!!           |
|                                                                             |
|      You have enabled k-point parallelism (KPAR>1).                         |
|      This developmental code was originally  written by Paul Kent at ORNL,  |
|      and carefully double checked in Vienna.                                |
|      GW as well as linear response parallelism added by Martijn Marsman     |
|      and Georg Kresse.                                                      |
|      Carefully verify results versus KPAR=1.                                |
|      Report problems to Paul Kent and Vienna.                               |
|                                                                             |
 ----------------------------------------------------------------------------- 

 POTCAR:    PAW_PBE Cu_pv 06Sep2000               
   VRHFIN =Cu: d10 p1                                                           
   LEXCH  = PE                                                                  
   EATOM  =  4120.1201 eV,  302.8203 Ry                                         
                                                                                
   TITEL  = PAW_PBE Cu_pv 06Sep2000                                             
   LULTRA =        F    use ultrasoft PP ?                                      
   IUNSCR =        1    unscreen: 0-lin 1-nonlin 2-no                           
   RPACOR =    1.500    partial core radius                                     
   POMASS =   63.546; ZVAL   =   17.000    mass and valenz                      
   RCORE  =    2.000    outmost cutoff radius                                   
   RWIGS  =    2.000; RWIGS  =    1.058    wigner-seitz radius (au A)           
   ENMAX  =  368.648; ENMIN  =  276.486 eV                                      
   RCLOC  =    1.304    cutoff for local pot                                    
   LCOR   =        T    correct aug charges                                     
   LPAW   =        T    paw PP                                                  
   EAUG   =  758.233                                                            
   DEXC   =    0.000                                                            
   RMAX   =    2.046    core radius for proj-oper                               
   RAUG   =    1.300    factor for augmentation sphere                          
   RDEP   =    2.025    radius for radial grids                                 
   RDEPT  =    1.558    core radius for aug-charge                              
                                                                                
   Atomic configuration                                                         
    8 entries                                                                   
     n  l   j            E        occ.                                          
     1  0  0.50     -8850.2467   2.0000                                         
     2  0  0.50     -1062.3498   2.0000                                         
     2  1  1.50      -916.8226   6.0000                                         
     3  0  0.50      -114.6929   2.0000                                         
     3  1  1.50       -72.1325   6.0000                                         
     3  2  2.50        -5.0394  10.0000                                         
     4  0  0.50        -4.6097   1.0000                                         
     4  3  2.50        -1.3606   0.0000                                         
   Description                                                                  
     l       E           TYP  RCUT    TYP  RCUT                                 
     1    -72.1324777     23  1.700                                             
     1     -1.3605826     23  1.700                                             
     2     -5.0393776     23  2.000                                             
     2     -6.3999602     23  2.000                                             
     0     -4.6097062     23  1.800                                             
     0     14.1620818     23  1.800                                             
  local pseudopotential read in
  partial core-charges read in
  partial kinetic energy density read in
  atomic valenz-charges read in
  non local Contribution for L=           1  read in
    real space projection operators read in
  non local Contribution for L=           1  read in
    real space projection operators read in
  non local Contribution for L=           2  read in
    real space projection operators read in
  non local Contribution for L=           2  read in
    real space projection operators read in
  non local Contribution for L=           0  read in
    real space projection operators read in
  non local Contribution for L=           0  read in
    real space projection operators read in
    PAW grid and wavefunctions read in
 
   number of l-projection  operators is LMAX  =           6
   number of lm-projection operators is LMMAX =          18
 
 POTCAR:    PAW_PBE Ge 05Jan2001                  
   VRHFIN =Ge: s2p2                                                             
   LEXCH  = PE                                                                  
   EATOM  =   104.9960 eV,    7.7170 Ry                                         
                                                                                
   TITEL  = PAW_PBE Ge 05Jan2001                                                
   LULTRA =        F    use ultrasoft PP ?                                      
   IUNSCR =        1    unscreen: 0-lin 1-nonlin 2-no                           
   RPACOR =    2.170    partial core radius                                     
   POMASS =   72.610; ZVAL   =    4.000    mass and valenz                      
   RCORE  =    2.300    outmost cutoff radius                                   
   RWIGS  =    2.300; RWIGS  =    1.217    wigner-seitz radius (au A)           
   ENMAX  =  173.807; ENMIN  =  130.355 eV                                      
   ICORE  =        3    local potential                                         
   LCOR   =        T    correct aug charges                                     
   LPAW   =        T    paw PP                                                  
   EAUG   =  385.843                                                            
   DEXC   =    0.000                                                            
   RMAX   =    2.342    core radius for proj-oper                               
   RAUG   =    1.300    factor for augmentation sphere                          
   RDEP   =    2.318    radius for radial grids                                 
   RDEPT  =    2.103    core radius for aug-charge                              
                                                                                
   Atomic configuration                                                         
   10 entries                                                                   
     n  l   j            E        occ.                                          
     1  0  0.50    -10959.8463   2.0000                                         
     2  0  0.50     -1371.6056   2.0000                                         
     2  1  1.50     -1198.4791   6.0000                                         
     3  0  0.50      -168.4733   2.0000                                         
     3  1  1.50      -115.6019   6.0000                                         
     3  2  2.50       -29.3106  10.0000                                         
     4  0  0.50       -11.7309   2.0000                                         
     4  1  0.50        -3.8952   2.0000                                         
     4  2  1.50        -4.0817   0.0000                                         
     4  3  2.50        -4.0817   0.0000                                         
   Description                                                                  
     l       E           TYP  RCUT    TYP  RCUT                                 
     0    -11.7309493     23  2.300                                             
     0     -7.4578696     23  2.300                                             
     1     -3.8952261     23  2.300                                             
     1      6.1178114     23  2.300                                             
     2     -4.0817478     23  2.300                                             
     3     -1.3605826      7  2.300                                             
  local pseudopotential read in
  partial core-charges read in
  partial kinetic energy density read in
  atomic valenz-charges read in
  non local Contribution for L=           0  read in
    real space projection operators read in
  non local Contribution for L=           0  read in
    real space projection operators read in
  non local Contribution for L=           1  read in
    real space projection operators read in
  non local Contribution for L=           1  read in
    real space projection operators read in
  non local Contribution for L=           2  read in
    real space projection operators read in
    PAW grid and wavefunctions read in
 
   number of l-projection  operators is LMAX  =           5
   number of lm-projection operators is LMMAX =          13
 
 POTCAR:    PAW_PBE S 17Jan2003                   
   VRHFIN =S : s2p4                                                             
   LEXCH  = PE                                                                  
   EATOM  =   276.8230 eV,   20.3459 Ry                                         
                                                                                
   TITEL  = PAW_PBE S 17Jan2003                                                 
   LULTRA =        F    use ultrasoft PP ?                                      
   IUNSCR =        1    unscreen: 0-lin 1-nonlin 2-no                           
   RPACOR =    1.500    partial core radius                                     
   POMASS =   32.066; ZVAL   =    6.000    mass and valenz                      
   RCORE  =    1.900    outmost cutoff radius                                   
   RWIGS  =    2.200; RWIGS  =    1.164    wigner-seitz radius (au A)           
   ENMAX  =  280.000; ENMIN  =  194.016 eV                                      
   ICORE  =        2    local potential                                         
   LCOR   =        T    correct aug charges                                     
   LPAW   =        T    paw PP                                                  
   EAUG   =  335.092                                                            
   DEXC   =     .000                                                            
   RMAX   =    2.867    core radius for proj-oper                               
   RAUG   =    1.300    factor for augmentation sphere                          
   RDEP   =    1.954    radius for radial grids                                 
   QCUT   =   -4.360; QGAM   =    8.721    optimization parameters              
                                                                                
   Description                                                                  
     l     E      TYP  RCUT    TYP  RCUT                                        
     0   .000     23  1.900                                                     
     0   .000     23  1.900                                                     
     1   .000     23  1.900                                                     
     1   .000     23  1.900                                                     
     2   .000     23  1.900                                                     
  local pseudopotential read in
  partial core-charges read in
  atomic valenz-charges read in
  non local Contribution for L=           0  read in
    real space projection operators read in
  non local Contribution for L=           0  read in
    real space projection operators read in
  non local Contribution for L=           1  read in
    real space projection operators read in
  non local Contribution for L=           1  read in
    real space projection operators read in
    PAW grid and wavefunctions read in
 
   number of l-projection  operators is LMAX  =           4
   number of lm-projection operators is LMMAX =           8
 
  PAW_PBE Cu_pv 06Sep2000               :
 energy of atom  1       EATOM=-4120.1201
 kinetic energy error for atom=    0.0996 (will be added to EATOM!!)
  PAW_PBE Ge 05Jan2001                  :
 energy of atom  2       EATOM= -104.9960
 kinetic energy error for atom=    0.0003 (will be added to EATOM!!)
  PAW_PBE S 17Jan2003                   :
 energy of atom  3       EATOM= -276.8230
 kinetic energy error for atom=    0.0046 (will be added to EATOM!!)
 
 
 POSCAR: Cu Ge S                                 
  positions in direct lattice
  No initial velocities read in
 exchange correlation table for  LEXCH =        8
   RHO(1)=    0.500       N(1)  =     2000
   RHO(2)=  100.500       N(2)  =     4000
 


--------------------------------------------------------------------------------------------------------


 ion  position               nearest neighbor table
   1  0.618  0.121  0.120-   9 2.28  11 2.29  12 2.30   8 2.35
   2  0.121  0.618  0.620-  12 2.29   7 2.29   9 2.30  10 2.35
   3  0.963  0.790  0.119-  11 2.30  12 2.30   7 2.31   8 2.36
   4  0.790  0.963  0.619-   7 2.30   9 2.30  11 2.31  10 2.36
   5  0.440  0.267  0.599-   7 2.19   9 2.20  10 2.31   8 2.33
   6  0.267  0.440  0.099-  11 2.19  12 2.19   8 2.31  10 2.33
   7  0.079  0.912  0.497-   5 2.19   2 2.29   4 2.30   3 2.31
   8  0.571  0.412  0.980-   6 2.31   5 2.33   1 2.35   3 2.36
   9  0.737  0.250  0.493-   5 2.20   1 2.28   4 2.30   2 2.30
  10  0.412  0.571  0.480-   5 2.31   6 2.33   2 2.35   4 2.36
  11  0.912  0.079  0.997-   6 2.19   1 2.29   3 2.30   4 2.31
  12  0.250  0.737  0.995-   6 2.19   2 2.29   3 2.30   1 2.30
 
  Warning from LATTYP: Got some problem with cell dimensions!
  Tried to take original basis but could not verify dimensions!
  LATTYP: Found a base centered monoclinic cell.
 ALAT       =     6.4499010947
 B/A-ratio  =     1.7500516418
 C/A-ratio  =     1.9305142024
 COS(beta)  =    -0.4326083233
  
  Lattice vectors:
  
 A1 = (   3.2247960000,   5.6438300000,   0.0315720000)
 A2 = (   3.2247960000,  -5.6438300000,   0.0315720000)
 A3 = ( -10.7972380000,   0.0000000000,  -6.2018250000)


Analysis of symmetry for initial positions (statically):
=====================================================================
 Subroutine PRICEL returns:
 Original cell was already a primitive cell.
 

 Routine SETGRP: Setting up the symmetry group for a 
 base centered monoclinic supercell.


 Subroutine GETGRP returns: Found  1 space group operations
 (whereof  1 operations were pure point group operations)
 out of a pool of  4 trial point group operations.


The static configuration has the point symmetry C_1 .


Analysis of symmetry for dynamics (positions and initial velocities):
=====================================================================
 Subroutine PRICEL returns:
 Original cell was already a primitive cell.
 

 Routine SETGRP: Setting up the symmetry group for a 
 base centered monoclinic supercell.


 Subroutine GETGRP returns: Found  1 space group operations
 (whereof  1 operations were pure point group operations)
 out of a pool of  4 trial point group operations.


The dynamic configuration has the point symmetry C_1 .


 irot  :   1
 --------------------------------------------------------------------
 isymop:   1   0   0
           0   1   0
           0   0   1

 gtrans:     0.0000000     0.0000000     0.0000000

 ptrans:     0.0000000     0.0000000     0.0000000
 rotmap:
 (   1->   1)  (   2->   2)  (   3->   3)  (   4->   4)  (   5->   5) 
 (   6->   6)  (   7->   7)  (   8->   8)  (   9->   9)  (  10->  10) 
 (  11->  11)  (  12->  12) 
 
 
 KPOINTS: pymatgen 4.7.6+ generated KPOINTS with g

Automatic generation of k-mesh.
Space group operators:
 irot       det(A)        alpha          n_x          n_y          n_z        tau_x        tau_y        tau_z
    1     1.000000     0.000000     1.000000     0.000000     0.000000     0.000000     0.000000     0.000000
 
 Subroutine IBZKPT returns following result:
 ===========================================
 
 Found     42 irreducible k-points:
 
 Following reciprocal coordinates:
            Coordinates               Weight
  0.000000  0.000000  0.000000      1.000000
  0.250000  0.000000  0.000000      2.000000
  0.500000  0.000000  0.000000      1.000000
  0.000000  0.250000  0.000000      2.000000
  0.250000  0.250000  0.000000      2.000000
  0.500000  0.250000 -0.000000      2.000000
 -0.250000  0.250000  0.000000      2.000000
  0.000000  0.500000  0.000000      1.000000
  0.250000  0.500000 -0.000000      2.000000
  0.500000  0.500000  0.000000      1.000000
 -0.000000 -0.000000  0.200000      2.000000
  0.250000  0.000000  0.200000      2.000000
  0.500000  0.000000  0.200000      2.000000
 -0.250000 -0.000000  0.200000      2.000000
  0.000000  0.250000  0.200000      2.000000
  0.250000  0.250000  0.200000      2.000000
  0.500000  0.250000  0.200000      2.000000
 -0.250000  0.250000  0.200000      2.000000
  0.000000  0.500000  0.200000      2.000000
  0.250000  0.500000  0.200000      2.000000
  0.500000  0.500000  0.200000      2.000000
 -0.250000  0.500000  0.200000      2.000000
 -0.000000 -0.250000  0.200000      2.000000
  0.250000 -0.250000  0.200000      2.000000
  0.500000 -0.250000  0.200000      2.000000
 -0.250000 -0.250000  0.200000      2.000000
 -0.000000 -0.000000  0.400000      2.000000
  0.250000  0.000000  0.400000      2.000000
  0.500000  0.000000  0.400000      2.000000
 -0.250000  0.000000  0.400000      2.000000
  0.000000  0.250000  0.400000      2.000000
  0.250000  0.250000  0.400000      2.000000
  0.500000  0.250000  0.400000      2.000000
 -0.250000  0.250000  0.400000      2.000000
  0.000000  0.500000  0.400000      2.000000
  0.250000  0.500000  0.400000      2.000000
  0.500000  0.500000  0.400000      2.000000
 -0.250000  0.500000  0.400000      2.000000
  0.000000 -0.250000  0.400000      2.000000
  0.250000 -0.250000  0.400000      2.000000
  0.500000 -0.250000  0.400000      2.000000
 -0.250000 -0.250000  0.400000      2.000000
 
 Following cartesian coordinates:
            Coordinates               Weight
  0.000000  0.000000  0.000000      1.000000
  0.038631 -0.022148  0.013365      2.000000
  0.077263 -0.044296  0.026730      1.000000
  0.038631  0.022148  0.013365      2.000000
  0.077263  0.000000  0.026730      2.000000
  0.115894 -0.022148  0.040096      2.000000
  0.000000  0.044296  0.000000      2.000000
  0.077263  0.044296  0.026730      1.000000
  0.115894  0.022148  0.040096      2.000000
  0.154525  0.000000  0.053461      1.000000
 -0.000321  0.000000  0.032808      2.000000
  0.038310 -0.022148  0.046173      2.000000
  0.076941 -0.044296  0.059538      2.000000
 -0.038952  0.022148  0.019443      2.000000
  0.038310  0.022148  0.046173      2.000000
  0.076941  0.000000  0.059538      2.000000
  0.115573 -0.022148  0.072903      2.000000
 -0.000321  0.044296  0.032808      2.000000
  0.076941  0.044296  0.059538      2.000000
  0.115573  0.022148  0.072903      2.000000
  0.154204  0.000000  0.086269      2.000000
  0.038310  0.066444  0.046173      2.000000
 -0.038952 -0.022148  0.019443      2.000000
 -0.000321 -0.044296  0.032808      2.000000
  0.038310 -0.066444  0.046173      2.000000
 -0.077584  0.000000  0.006077      2.000000
 -0.000642  0.000000  0.065616      2.000000
  0.037989 -0.022148  0.078981      2.000000
  0.076620 -0.044296  0.092346      2.000000
 -0.039274  0.022148  0.052250      2.000000
  0.037989  0.022148  0.078981      2.000000
  0.076620  0.000000  0.092346      2.000000
  0.115251 -0.022148  0.105711      2.000000
 -0.000642  0.044296  0.065616      2.000000
  0.076620  0.044296  0.092346      2.000000
  0.115251  0.022148  0.105711      2.000000
  0.153883  0.000000  0.119076      2.000000
  0.037989  0.066444  0.078981      2.000000
 -0.039274 -0.022148  0.052250      2.000000
 -0.000642 -0.044296  0.065616      2.000000
  0.037989 -0.066444  0.078981      2.000000
 -0.077905  0.000000  0.038885      2.000000
 
 
 Subroutine IBZKPT_HF returns following result:
 ==============================================
 
 Found     80 k-points in 1st BZ
 the following     80 k-points will be used (e.g. in the exchange kernel)
 Following reciprocal coordinates:   # in IRBZ
  0.000000  0.000000  0.000000       1 t-inv F
  0.250000  0.000000  0.000000       2 t-inv F
  0.500000  0.000000  0.000000       3 t-inv F
  0.000000  0.250000  0.000000       4 t-inv F
  0.250000  0.250000  0.000000       5 t-inv F
  0.500000  0.250000 -0.000000       6 t-inv F
 -0.250000  0.250000  0.000000       7 t-inv F
  0.000000  0.500000  0.000000       8 t-inv F
  0.250000  0.500000 -0.000000       9 t-inv F
  0.500000  0.500000  0.000000      10 t-inv F
 -0.000000 -0.000000  0.200000      11 t-inv F
  0.250000  0.000000  0.200000      12 t-inv F
  0.500000  0.000000  0.200000      13 t-inv F
 -0.250000 -0.000000  0.200000      14 t-inv F
  0.000000  0.250000  0.200000      15 t-inv F
  0.250000  0.250000  0.200000      16 t-inv F
  0.500000  0.250000  0.200000      17 t-inv F
 -0.250000  0.250000  0.200000      18 t-inv F
  0.000000  0.500000  0.200000      19 t-inv F
  0.250000  0.500000  0.200000      20 t-inv F
  0.500000  0.500000  0.200000      21 t-inv F
 -0.250000  0.500000  0.200000      22 t-inv F
 -0.000000 -0.250000  0.200000      23 t-inv F
  0.250000 -0.250000  0.200000      24 t-inv F
  0.500000 -0.250000  0.200000      25 t-inv F
 -0.250000 -0.250000  0.200000      26 t-inv F
 -0.000000 -0.000000  0.400000      27 t-inv F
  0.250000  0.000000  0.400000      28 t-inv F
  0.500000  0.000000  0.400000      29 t-inv F
 -0.250000  0.000000  0.400000      30 t-inv F
  0.000000  0.250000  0.400000      31 t-inv F
  0.250000  0.250000  0.400000      32 t-inv F
  0.500000  0.250000  0.400000      33 t-inv F
 -0.250000  0.250000  0.400000      34 t-inv F
  0.000000  0.500000  0.400000      35 t-inv F
  0.250000  0.500000  0.400000      36 t-inv F
  0.500000  0.500000  0.400000      37 t-inv F
 -0.250000  0.500000  0.400000      38 t-inv F
  0.000000 -0.250000  0.400000      39 t-inv F
  0.250000 -0.250000  0.400000      40 t-inv F
  0.500000 -0.250000  0.400000      41 t-inv F
 -0.250000 -0.250000  0.400000      42 t-inv F
 -0.250000 -0.000000 -0.000000       2 t-inv T
 -0.000000 -0.250000 -0.000000       4 t-inv T
 -0.250000 -0.250000  0.000000       5 t-inv T
 -0.500000 -0.250000  0.000000       6 t-inv T
  0.250000 -0.250000  0.000000       7 t-inv T
 -0.250000 -0.500000  0.000000       9 t-inv T
  0.000000  0.000000 -0.200000      11 t-inv T
 -0.250000 -0.000000 -0.200000      12 t-inv T
 -0.500000 -0.000000 -0.200000      13 t-inv T
  0.250000  0.000000 -0.200000      14 t-inv T
 -0.000000 -0.250000 -0.200000      15 t-inv T
 -0.250000 -0.250000 -0.200000      16 t-inv T
 -0.500000 -0.250000 -0.200000      17 t-inv T
  0.250000 -0.250000 -0.200000      18 t-inv T
 -0.000000 -0.500000 -0.200000      19 t-inv T
 -0.250000 -0.500000 -0.200000      20 t-inv T
 -0.500000 -0.500000 -0.200000      21 t-inv T
  0.250000 -0.500000 -0.200000      22 t-inv T
  0.000000  0.250000 -0.200000      23 t-inv T
 -0.250000  0.250000 -0.200000      24 t-inv T
 -0.500000  0.250000 -0.200000      25 t-inv T
  0.250000  0.250000 -0.200000      26 t-inv T
  0.000000  0.000000 -0.400000      27 t-inv T
 -0.250000 -0.000000 -0.400000      28 t-inv T
 -0.500000 -0.000000 -0.400000      29 t-inv T
  0.250000 -0.000000 -0.400000      30 t-inv T
 -0.000000 -0.250000 -0.400000      31 t-inv T
 -0.250000 -0.250000 -0.400000      32 t-inv T
 -0.500000 -0.250000 -0.400000      33 t-inv T
  0.250000 -0.250000 -0.400000      34 t-inv T
 -0.000000 -0.500000 -0.400000      35 t-inv T
 -0.250000 -0.500000 -0.400000      36 t-inv T
 -0.500000 -0.500000 -0.400000      37 t-inv T
  0.250000 -0.500000 -0.400000      38 t-inv T
 -0.000000  0.250000 -0.400000      39 t-inv T
 -0.250000  0.250000 -0.400000      40 t-inv T
 -0.500000  0.250000 -0.400000      41 t-inv T
  0.250000  0.250000 -0.400000      42 t-inv T


--------------------------------------------------------------------------------------------------------




 Dimension of arrays:
   k-points           NKPTS =     42   k-points in BZ     NKDIM =     80   number of bands    NBANDS=     80
   number of dos      NEDOS =    301   number of ions     NIONS =     12
   non local maximal  LDIM  =      6   non local SUM 2l+1 LMDIM =     18
   total plane-waves  NPLWV =  32768
   max r-space proj   IRMAX =      1   max aug-charges    IRDMAX=   8224
   dimension x,y,z NGX =    32 NGY =   32 NGZ =   32
   dimension x,y,z NGXF=    64 NGYF=   64 NGZF=   64
   support grid    NGXF=    64 NGYF=   64 NGZF=   64
   ions per type =               4   2   6
 NGX,Y,Z   is equivalent  to a cutoff of   8.18,  8.18,  8.27 a.u.
 NGXF,Y,Z  is equivalent  to a cutoff of  16.37, 16.37, 16.55 a.u.


 I would recommend the setting:
   dimension x,y,z NGX =    32 NGY =   32 NGZ =   31
 SYSTEM =  CGS                                     
 POSCAR =  Cu Ge S                                 

 Startparameter for this run:
   NWRITE =      2    write-flag & timer
   PREC   = normal    normal or accurate (medium, high low for compatibility)
   ISTART =      1    job   : 0-new  1-cont  2-samecut
   ICHARG =      0    charge: 1-file 2-atom 10-const
   ISPIN  =      1    spin polarized calculation?
   LNONCOLLINEAR =      F non collinear calculations
   LSORBIT =      F    spin-orbit coupling
   INIWAV =      1    electr: 0-lowe 1-rand  2-diag
   LASPH  =      F    aspherical Exc in radial PAW
   METAGGA=      F    non-selfconsistent MetaGGA calc.

 Electronic Relaxation 1
   ENCUT  =  400.0 eV  29.40 Ry    5.42 a.u.  10.60 10.60 10.48*2*pi/ulx,y,z
   ENINI  =  400.0     initial cutoff
   ENAUG  =  758.2 eV  augmentation charge cutoff
   NELM   =     60;   NELMIN=  2; NELMDL=  0     # of ELM steps 
   EDIFF  = 0.1E-04   stopping-criterion for ELM
   LREAL  =      F    real-space projection
   NLSPLINE    = F    spline interpolate recip. space projectors
   LCOMPAT=      F    compatible to vasp.4.4
   GGA_COMPAT  = T    GGA compatible to vasp.4.4-vasp.4.6
   LMAXPAW     = -100 max onsite density
   LMAXMIX     =    2 max onsite mixed and CHGCAR
   VOSKOWN=      0    Vosko Wilk Nusair interpolation
   ROPT   =    0.00000   0.00000   0.00000
 Ionic relaxation
   EDIFFG = 0.1E-03   stopping-criterion for IOM
   NSW    =      0    number of steps for IOM
   NBLOCK =      1;   KBLOCK =      1    inner block; outer block 
   IBRION =     -1    ionic relax: 0-MD 1-quasi-New 2-CG
   NFREE  =      0    steps in history (QN), initial steepest desc. (CG)
   ISIF   =      0    stress and relaxation
   IWAVPR =     10    prediction:  0-non 1-charg 2-wave 3-comb
   ISYM   =      3    0-nonsym 1-usesym 2-fastsym
   LCORR  =      T    Harris-Foulkes like correction to forces

   POTIM  = 0.5000    time-step for ionic-motion
   TEIN   =    0.0    initial temperature
   TEBEG  =    0.0;   TEEND  =   0.0 temperature during run
   SMASS  =  -3.00    Nose mass-parameter (am)
   estimated Nose-frequenzy (Omega)   =  0.10E-29 period in steps =****** mass=  -0.966E-27a.u.
   SCALEE = 1.0000    scale energy and forces
   NPACO  =    256;   APACO  = 16.0  distance and # of slots for P.C.
   PSTRESS=    0.0 pullay stress

  Mass of Ions in am
   POMASS =  63.55 72.61 32.07
  Ionic Valenz
   ZVAL   =  17.00  4.00  6.00
  Atomic Wigner-Seitz radii
   RWIGS  =  -1.00 -1.00 -1.00
  virtual crystal weights 
   VCA    =   1.00  1.00  1.00
   NELECT =     112.0000    total number of electrons
   NUPDOWN=      -1.0000    fix difference up-down

 DOS related values:
   EMIN   =  10.00;   EMAX   =-10.00  energy-range for DOS
   EFERMI =   0.00
   ISMEAR =     1;   SIGMA  =   0.10  broadening in eV -4-tet -1-fermi 0-gaus

 Electronic relaxation 2 (details)
   IALGO  =     53    algorithm
   LDIAG  =      T    sub-space diagonalisation (order eigenvalues)
   LSUBROT=      T    optimize rotation matrix (better conditioning)
   TURBO    =      0    0=normal 1=particle mesh
   IRESTART =      0    0=no restart 2=restart with 2 vectors
   NREBOOT  =      0    no. of reboots
   NMIN     =      0    reboot dimension
   EREF     =   0.00    reference energy to select bands
   IMIX   =      4    mixing-type and parameters
     AMIX     =   0.40;   BMIX     =  1.00
     AMIX_MAG =   1.60;   BMIX_MAG =  1.00
     AMIN     =   0.10
     WC   =   100.;   INIMIX=   1;  MIXPRE=   1;  MAXMIX= -45

 Intra band minimization:
   WEIMIN = 0.0000     energy-eigenvalue tresh-hold
   EBREAK =  0.31E-07  absolut break condition
   DEPER  =   0.30     relativ break condition  

   TIME   =   0.40     timestep for ELM

  volume/ion in A,a.u.               =      18.49       124.79
  Fermi-wavevector in a.u.,A,eV,Ry     =   1.303450  2.463163 23.116052  1.698982
  Thomas-Fermi vector in A             =   2.434451
 
 Write flags
   LWAVE  =      T    write WAVECAR
   LCHARG =      T    write CHGCAR
   LVTOT  =      F    write LOCPOT, total local potential
   LVHAR  =      F    write LOCPOT, Hartree potential only
   LELF   =      F    write electronic localiz. function (ELF)
   LORBIT =      0    0 simple, 1 ext, 2 COOP (PROOUT)


 Dipole corrections
   LMONO  =      F    monopole corrections only (constant potential shift)
   LDIPOL =      F    correct potential (dipole corrections)
   IDIPOL =      0    1-x, 2-y, 3-z, 4-all directions 
   EPSILON=  1.0000000 bulk dielectric constant

 Exchange correlation treatment:
   GGA     =    PE    GGA type
   LEXCH   =     8    internal setting for exchange type
   VOSKOWN=      0    Vosko Wilk Nusair interpolation
   EXXOEP  =     0    0=HF, 1=EXX-LHF (local Hartree Fock) 2=EXX OEP
   LHFCALC =     T    Hartree Fock is set to
   LSYMGRAD=     F    symmetrize gradient (conserves proper symmetry)
   PRECFOCK=fast      Normal, Fast or Accurate (Low or Medium for compatibility)
   LRHFCALC=     F    long range Hartree Fock
   LRSCOR  =     F    long range correlation only (use DFT for short range part)
   LTHOMAS =     F    Thomas Fermi screening in HF
   LMODELHF=     F    short range full HF, long range fraction AEXX
   ENCUT4O =  -1.0   cutoff for four orbital integrals eV
   LMAXFOCK=     4    L truncation for augmentation on plane wave grid
   LMAXFOCKAE=  -1    L truncation for all-electron charge restoration on plane wave grid
   NMAXFOCKAE=   1    number of basis functions for all-electron charge restoration
   LFOCKAEDFT=     F  apply the AE augmentation even for DFT
   NKREDX  =     1    reduce k-point grid by
   NKREDY  =     1    reduce k-point grid by
   NKREDZ  =     1    reduce k-point grid by
   SHIFTRED=     F    shift reduced grid of Gamma
   HFKIDENT=     F    idential grid for each k-point
   ODDONLY =     F    use only odd q-grid points
   EVENONLY=     F    use only even q-grid points
   HFALPHA =   -1.0000 decay constant for conv. correction
   MCALPHA =    0.0000 extent of test-charge in conv. correction in multipole expansion
   AEXX    =    0.2500 exact exchange contribution
   HFSCREEN=    0.2000 screening length (either q_TF or 0.3 A-1)
   HFSCREENC=   0.2000 screening length for correlation (either q_TF or 0.3 A-1)
   HFRCUT  =    0.0000 spherical cutoff for potential kernel
   ALDAX   =    0.7500 LDA exchange part
   AGGAX   =    0.7500 GGA exchange part
   ALDAC   =    1.0000 LDA correlation
   AGGAC   =    1.0000 GGA correlation
   NBANDSGWLOW=     1    first orbital included in HF term
 Linear response parameters
   LEPSILON=     F    determine dielectric tensor
   LRPA    =     F    only Hartree local field effects (RPA)
   LNABLA  =     F    use nabla operator in PAW spheres
   LVEL    =     F    velocity operator in full k-point grid
   LINTERFAST=   F  fast interpolation
   KINTER  =     0    interpolate to denser k-point grid
   CSHIFT  =0.1000    complex shift for real part using Kramers Kronig
   OMEGAMAX=  -1.0    maximum frequency
   DEG_THRESHOLD= 0.2000000E-02 threshold for treating states as degnerate
   RTIME   =    0.100 relaxation time in fs

 Orbital magnetization related:
   ORBITALMAG=     F  switch on orbital magnetization
   LCHIMAG   =     F  perturbation theory with respect to B field
   DQ        =  0.001000  dq finite difference perturbation B field



--------------------------------------------------------------------------------------------------------


 Static calculation
 charge density and potential will be updated during run
 non-spin polarized calculation
 Conjugate gradient for all bands, subspace preconditioning
 perform sub-space diagonalisation
    before iterative eigenvector-optimisation
 modified Broyden-mixing scheme, WC =      100.0
 initial mixing is a Kerker type mixing with AMIX =  0.4000 and BMIX =      1.0000
 Hartree-type preconditioning will be used
 using additional bands           24
 reciprocal scheme for non local part
 use partial core corrections
 no Harris-corrections to forces 
 use gradient corrections 
 use of overlap-Matrix (Vanderbilt PP)
 Methfessel and Paxton  Order N= 1 SIGMA  =   0.10


--------------------------------------------------------------------------------------------------------


  energy-cutoff  :      400.00
  volume of cell :      221.90
      direct lattice vectors                 reciprocal lattice vectors
     3.224796000 -5.643830000  0.031572000     0.154525165 -0.088592321  0.053460880
     3.224796000  5.643830000  0.031572000     0.154525165  0.088592321  0.053460880
    -2.101946000  0.000000000  6.075537000    -0.001606004  0.000000000  0.164038877

  length of vectors
     6.500240234  6.500240234  6.428866683     0.185969598  0.185969598  0.164046738


 
 old parameters found on file WAVECAR:
  energy-cutoff  :      400.00
  volume of cell :      222.35
      direct lattice vectors                 reciprocal lattice vectors
     3.227235519 -5.642745207  0.030241751     0.154430495 -0.088609353  0.053450002
     3.227235519  5.642745207  0.030241751     0.154430495  0.088609353  0.053450002
    -2.106135241  0.000000000  6.085154262    -0.001534965  0.000000000  0.163803104

  length of vectors

 
 k-points in units of 2pi/SCALE and weight: pymatgen 4.7.6+ generated KPOINTS with g
   0.00000000  0.00000000  0.00000000       0.013
   0.03863129 -0.02214808  0.01336522       0.025
   0.07726258 -0.04429616  0.02673044       0.013
   0.03863129  0.02214808  0.01336522       0.025
   0.07726258  0.00000000  0.02673044       0.025
   0.11589387 -0.02214808  0.04009566       0.025
   0.00000000  0.04429616  0.00000000       0.025
   0.07726258  0.04429616  0.02673044       0.013
   0.11589387  0.02214808  0.04009566       0.025
   0.15452516  0.00000000  0.05346088       0.013
  -0.00032120  0.00000000  0.03280778       0.025
   0.03831009 -0.02214808  0.04617300       0.025
   0.07694138 -0.04429616  0.05953822       0.025
  -0.03895249  0.02214808  0.01944256       0.025
   0.03831009  0.02214808  0.04617300       0.025
   0.07694138  0.00000000  0.05953822       0.025
   0.11557267 -0.02214808  0.07290344       0.025
  -0.00032120  0.04429616  0.03280778       0.025
   0.07694138  0.04429616  0.05953822       0.025
   0.11557267  0.02214808  0.07290344       0.025
   0.15420396  0.00000000  0.08626865       0.025
   0.03831009  0.06644424  0.04617300       0.025
  -0.03895249 -0.02214808  0.01944256       0.025
  -0.00032120 -0.04429616  0.03280778       0.025
   0.03831009 -0.06644424  0.04617300       0.025
  -0.07758378  0.00000000  0.00607734       0.025
  -0.00064240  0.00000000  0.06561555       0.025
   0.03798889 -0.02214808  0.07898077       0.025
   0.07662018 -0.04429616  0.09234599       0.025
  -0.03927369  0.02214808  0.05225033       0.025
   0.03798889  0.02214808  0.07898077       0.025
   0.07662018  0.00000000  0.09234599       0.025
   0.11525147 -0.02214808  0.10571121       0.025
  -0.00064240  0.04429616  0.06561555       0.025
   0.07662018  0.04429616  0.09234599       0.025
   0.11525147  0.02214808  0.10571121       0.025
   0.15388276  0.00000000  0.11907643       0.025
   0.03798889  0.06644424  0.07898077       0.025
  -0.03927369 -0.02214808  0.05225033       0.025
  -0.00064240 -0.04429616  0.06561555       0.025
   0.03798889 -0.06644424  0.07898077       0.025
  -0.07790498  0.00000000  0.03888511       0.025
 
 k-points in reciprocal lattice and weights: pymatgen 4.7.6+ generated KPOINTS with g
   0.00000000  0.00000000  0.00000000       0.013
   0.25000000  0.00000000  0.00000000       0.025
   0.50000000  0.00000000  0.00000000       0.013
   0.00000000  0.25000000  0.00000000       0.025
   0.25000000  0.25000000  0.00000000       0.025
   0.50000000  0.25000000 -0.00000000       0.025
  -0.25000000  0.25000000  0.00000000       0.025
   0.00000000  0.50000000  0.00000000       0.013
   0.25000000  0.50000000 -0.00000000       0.025
   0.50000000  0.50000000  0.00000000       0.013
  -0.00000000 -0.00000000  0.20000000       0.025
   0.25000000  0.00000000  0.20000000       0.025
   0.50000000  0.00000000  0.20000000       0.025
  -0.25000000 -0.00000000  0.20000000       0.025
   0.00000000  0.25000000  0.20000000       0.025
   0.25000000  0.25000000  0.20000000       0.025
   0.50000000  0.25000000  0.20000000       0.025
  -0.25000000  0.25000000  0.20000000       0.025
   0.00000000  0.50000000  0.20000000       0.025
   0.25000000  0.50000000  0.20000000       0.025
   0.50000000  0.50000000  0.20000000       0.025
  -0.25000000  0.50000000  0.20000000       0.025
  -0.00000000 -0.25000000  0.20000000       0.025
   0.25000000 -0.25000000  0.20000000       0.025
   0.50000000 -0.25000000  0.20000000       0.025
  -0.25000000 -0.25000000  0.20000000       0.025
  -0.00000000 -0.00000000  0.40000000       0.025
   0.25000000  0.00000000  0.40000000       0.025
   0.50000000  0.00000000  0.40000000       0.025
  -0.25000000  0.00000000  0.40000000       0.025
   0.00000000  0.25000000  0.40000000       0.025
   0.25000000  0.25000000  0.40000000       0.025
   0.50000000  0.25000000  0.40000000       0.025
  -0.25000000  0.25000000  0.40000000       0.025
   0.00000000  0.50000000  0.40000000       0.025
   0.25000000  0.50000000  0.40000000       0.025
   0.50000000  0.50000000  0.40000000       0.025
  -0.25000000  0.50000000  0.40000000       0.025
   0.00000000 -0.25000000  0.40000000       0.025
   0.25000000 -0.25000000  0.40000000       0.025
   0.50000000 -0.25000000  0.40000000       0.025
  -0.25000000 -0.25000000  0.40000000       0.025
 
 position of ions in fractional coordinates (direct lattice) 
   0.61844300  0.12117100  0.11953300
   0.12117100  0.61844300  0.61953300
   0.96295700  0.79032200  0.11881300
   0.79032200  0.96295700  0.61881300
   0.43973200  0.26728100  0.59904700
   0.26728100  0.43973200  0.09904700
   0.07949800  0.91167500  0.49736300
   0.57140300  0.41236400  0.98018400
   0.73711100  0.25006200  0.49349352
   0.41236400  0.57140300  0.48018400
   0.91167500  0.07949800  0.99736300
   0.25006200  0.73711100  0.99504900
 
 position of ions in cartesian coordinates  (Angst):
   2.13385236 -2.80651863  0.74957826
   1.08287936  2.80651863  3.78734676
   5.40422860 -0.97432259  0.77720730
   4.35325560  0.97432259  3.81497580
   1.02080825 -0.97328413  3.66185403
   2.07178125  0.97328413  0.62408553
   2.15090056  4.69666552  3.05304062
   1.11215405 -0.89758908  5.98620365
   2.14613482 -2.74882176  3.02940514
   2.16312705  0.89758908  2.94843515
   1.09992756 -4.69666552  6.09080912
   1.09189228  2.74882176  6.07662404
 


--------------------------------------------------------------------------------------------------------


 k-point  1 :   0.0000 0.0000 0.0000  plane waves:    4051
 k-point  2 :   0.2500 0.0000 0.0000  plane waves:    4032
 k-point  3 :   0.5000 0.0000 0.0000  plane waves:    4030
 k-point  4 :   0.0000 0.2500 0.0000  plane waves:    4032
 k-point  5 :   0.2500 0.2500 0.0000  plane waves:    4038
 k-point  6 :   0.5000 0.2500-0.0000  plane waves:    4037
 k-point  7 :  -0.2500 0.2500 0.0000  plane waves:    4042
 k-point  8 :   0.0000 0.5000 0.0000  plane waves:    4030
 k-point  9 :   0.2500 0.5000-0.0000  plane waves:    4037
 k-point 10 :   0.5000 0.5000 0.0000  plane waves:    4026
 k-point 11 :  -0.0000-0.0000 0.2000  plane waves:    4046
 k-point 12 :   0.2500 0.0000 0.2000  plane waves:    4034
 k-point 13 :   0.5000 0.0000 0.2000  plane waves:    4025
 k-point 14 :  -0.2500-0.0000 0.2000  plane waves:    4044
 k-point 15 :   0.0000 0.2500 0.2000  plane waves:    4034
 k-point 16 :   0.2500 0.2500 0.2000  plane waves:    4017
 k-point 17 :   0.5000 0.2500 0.2000  plane waves:    4039
 k-point 18 :  -0.2500 0.2500 0.2000  plane waves:    4042
 k-point 19 :   0.0000 0.5000 0.2000  plane waves:    4025
 k-point 20 :   0.2500 0.5000 0.2000  plane waves:    4039
 k-point 21 :   0.5000 0.5000 0.2000  plane waves:    4030
 k-point 22 :  -0.2500 0.5000 0.2000  plane waves:    4030
 k-point 23 :  -0.0000-0.2500 0.2000  plane waves:    4044
 k-point 24 :   0.2500-0.2500 0.2000  plane waves:    4042
 k-point 25 :   0.5000-0.2500 0.2000  plane waves:    4030
 k-point 26 :  -0.2500-0.2500 0.2000  plane waves:    4020
 k-point 27 :  -0.0000-0.0000 0.4000  plane waves:    4027
 k-point 28 :   0.2500 0.0000 0.4000  plane waves:    4034
 k-point 29 :   0.5000 0.0000 0.4000  plane waves:    4013
 k-point 30 :  -0.2500 0.0000 0.4000  plane waves:    4042
 k-point 31 :   0.0000 0.2500 0.4000  plane waves:    4034
 k-point 32 :   0.2500 0.2500 0.4000  plane waves:    4009
 k-point 33 :   0.5000 0.2500 0.4000  plane waves:    4026
 k-point 34 :  -0.2500 0.2500 0.4000  plane waves:    4027
 k-point 35 :   0.0000 0.5000 0.4000  plane waves:    4013
 k-point 36 :   0.2500 0.5000 0.4000  plane waves:    4026
 k-point 37 :   0.5000 0.5000 0.4000  plane waves:    4037
 k-point 38 :  -0.2500 0.5000 0.4000  plane waves:    4022
 k-point 39 :   0.0000-0.2500 0.4000  plane waves:    4042
 k-point 40 :   0.2500-0.2500 0.4000  plane waves:    4027
 k-point 41 :   0.5000-0.2500 0.4000  plane waves:    4022
 k-point 42 :  -0.2500-0.2500 0.4000  plane waves:    4015

 maximum and minimum number of plane-waves per node :      4051     4009

 maximum number of plane-waves:      4051
 maximum index in each direction: 
   IXMAX=   10   IYMAX=   10   IZMAX=   10
   IXMIN=  -11   IYMIN=  -11   IZMIN=  -10

 WARNING: aliasing errors must be expected set NGX to  44 to avoid them
 WARNING: aliasing errors must be expected set NGY to  44 to avoid them
 WARNING: aliasing errors must be expected set NGZ to  42 to avoid them
 aliasing errors are usually negligible using standard VASP settings
 and one can safely disregard these warnings

 serial   3D FFT for wavefunctions
 parallel 3D FFT for charge:
    minimum data exchange during FFTs selected (reduces bandwidth)


 FFT grid for exact exchange (Hartree Fock) 
  NGX = 24; NGY = 24; NGZ = 24

 
 Radii for the augmentation spheres in the non-local exchange
 for species   1 augmentation radius   1.120 (default was   0.830)
       energy cutoff for augmentation   1600.0
 for species   2 augmentation radius   1.570 (default was   1.163)
       energy cutoff for augmentation   1600.0
 for species   3 augmentation radius   1.034 (default was   0.970)
       energy cutoff for augmentation   1600.0

 total amount of memory used by VASP on root node   151696. kBytes
========================================================================

   base      :      30000. kBytes
   nonl-proj :      74517. kBytes
   fftplans  :        702. kBytes
   grid      :       2400. kBytes
   one-center:        186. kBytes
   HF        :        194. kBytes
   nonlr-proj:       1121. kBytes
   wavefun   :      42576. kBytes
 
 Broyden mixing: mesh for mixing (old mesh)
   NGX = 21   NGY = 21   NGZ = 21
  (NGX  = 64   NGY  = 64   NGZ  = 64)
  gives a total of   9261 points

 charge density for first step will be calculated from the start-wavefunctions


--------------------------------------------------------------------------------------------------------


 Maximum index for augmentation-charges          485 (set IRDMAX)


--------------------------------------------------------------------------------------------------------


 initial charge from wavefunction
 First call to EWALD:  gamma=   0.293
 Maximum number of real-space cells 3x 3x 3
 Maximum number of reciprocal cells 3x 3x 3

 FEWALD executed in parallel
    FEWALD:  cpu time    0.00: real time    0.00


----------------------------------------- Iteration    1(   1)  ---------------------------------------


    POTLOK:  cpu time    0.06: real time    0.06
    SETDIJ:  cpu time    1.93: real time    1.92
 
    SUBROT:  cpu time    0.86: real time    0.86
    SUBROT:  cpu time    0.41: real time    0.41
    SUBROT:  cpu time    0.45: real time    0.45
    --------------------------------------------
    SUBRT+:  cpu time    1.72: real time    1.73

 Broyden mixing:
  rms(total) = 0.26539E-01    rms(broyden)= 0.26521E-01
  rms(prec ) = 0.42670E-01
  weight for this iteration     100.00

 eigenvalues of (default mixing * dielectric matrix)
  average eigenvalue GAMMA=   1.7863
  1.1346  2.4380
 
    TRIAL :  cpu time  250.42: real time  250.21
    CORREC:  cpu time    0.00: real time    0.00
    CHARGE:  cpu time    0.06: real time    0.06
    --------------------------------------------
      LOOP:  cpu time  252.47: real time  252.27

 eigenvalue-minimisations  :     0
 total energy-change (2. order) : 0.7554238E+02  (-0.2132395E+03)
 number of electron     112.0001483 magnetization 
 augmentation part       38.9115195 magnetization 

 Free energy of the ion-electron system (eV)
  ---------------------------------------------------
  alpha Z        PSCENC =       339.31929130
  Ewald energy   TEWEN  =     -9063.96382106
  -1/2 Hartree   DENC   =     -8067.44171957
  -exchange  EXHF       =       327.44909679
  -V(xc)+E(xc)   XCENC  =       369.90402834
  PAW double counting   =     16899.31346227   -17392.12653840
  entropy T*S    EENTRO =        -0.00145914
  eigenvalues    EBANDS =     -1657.89510583
  atomic energy  EATOM  =     18320.98302006
  ---------------------------------------------------
  free energy    TOTEN  =        75.54237719 eV

  energy without entropy =       75.54383633  energy(sigma->0) =       75.54286357


--------------------------------------------------------------------------------------------------------




----------------------------------------- Iteration    1(   2)  ---------------------------------------


    POTLOK:  cpu time    0.05: real time    0.05
    SETDIJ:  cpu time    1.99: real time    1.99
 
    SUBROT:  cpu time    0.82: real time    0.82
    SUBROT:  cpu time    0.41: real time    0.41
    SUBROT:  cpu time    0.43: real time    0.43
    SUBROT:  cpu time    0.41: real time    0.41
    --------------------------------------------
    SUBRT+:  cpu time    2.08: real time    2.10

 Broyden mixing:
  rms(total) = 0.27814E-01    rms(broyden)= 0.27804E-01
  rms(prec ) = 0.50862E-01
  weight for this iteration     100.00

 eigenvalues of (default mixing * dielectric matrix)
  average eigenvalue GAMMA=   1.5440
  2.5439  1.2352  0.8530
 
    TRIAL :  cpu time  258.46: real time  258.28
    CORREC:  cpu time    0.00: real time    0.00
    CHARGE:  cpu time    0.06: real time    0.06
    --------------------------------------------
      LOOP:  cpu time  260.57: real time  260.40

 eigenvalue-minimisations  :     0
 total energy-change (2. order) :-0.8391952E+02  (-0.1468919E+03)
 number of electron     112.0001387 magnetization 
 augmentation part       35.4539532 magnetization 

 Free energy of the ion-electron system (eV)
  ---------------------------------------------------
  alpha Z        PSCENC =       339.31929130
  Ewald energy   TEWEN  =     -9063.96382106
  -1/2 Hartree   DENC   =     -8371.16578998
  -exchange  EXHF       =       338.95772412
  -V(xc)+E(xc)   XCENC  =       377.32261401
  PAW double counting   =     17401.57828771   -17940.72029653
  entropy T*S    EENTRO =        -0.00076572
  eigenvalues    EBANDS =     -1410.68671389
  atomic energy  EATOM  =     18320.98302006
  ---------------------------------------------------
  free energy    TOTEN  =        -8.37714338 eV

  energy without entropy =       -8.37637767  energy(sigma->0) =       -8.37688814


--------------------------------------------------------------------------------------------------------




----------------------------------------- Iteration    1(   3)  ---------------------------------------


    POTLOK:  cpu time    0.10: real time    0.10
    SETDIJ:  cpu time    1.99: real time    1.99
 
    SUBROT:  cpu time    0.86: real time    0.86
    SUBROT:  cpu time    0.40: real time    0.40
    SUBROT:  cpu time    0.41: real time    0.41
    SUBROT:  cpu time    0.40: real time    0.40
    --------------------------------------------
    SUBRT+:  cpu time    2.07: real time    2.08

 Broyden mixing:
  rms(total) = 0.28139E-01    rms(broyden)= 0.28128E-01
  rms(prec ) = 0.52406E-01
  weight for this iteration     100.00

 eigenvalues of (default mixing * dielectric matrix)
  average eigenvalue GAMMA=   1.7748
  1.0115  2.4990  1.8139
 
    TRIAL :  cpu time  256.58: real time  256.39
    CORREC:  cpu time    0.00: real time    0.00
    CHARGE:  cpu time    0.06: real time    0.06
    --------------------------------------------
      LOOP:  cpu time  258.74: real time  258.55

 eigenvalue-minimisations  :     0
 total energy-change (2. order) :-0.6799354E+01  (-0.2035732E+03)
 number of electron     112.0001513 magnetization 
 augmentation part       39.6841423 magnetization 

 Free energy of the ion-electron system (eV)
  ---------------------------------------------------
  alpha Z        PSCENC =       339.31929130
  Ewald energy   TEWEN  =     -9063.96382106
  -1/2 Hartree   DENC   =     -7478.60539750
  -exchange  EXHF       =       324.98574385
  -V(xc)+E(xc)   XCENC  =       357.39410134
  PAW double counting   =     15150.40115068   -15579.87295717
  entropy T*S    EENTRO =         0.00025352
  eigenvalues    EBANDS =     -2385.81686271
  atomic energy  EATOM  =     18320.98302006
  ---------------------------------------------------
  free energy    TOTEN  =       -15.17649693 eV

  energy without entropy =      -15.17675045  energy(sigma->0) =      -15.17658144


--------------------------------------------------------------------------------------------------------




----------------------------------------- Iteration    1(   4)  ---------------------------------------


    POTLOK:  cpu time    0.10: real time    0.10
    SETDIJ:  cpu time    2.12: real time    2.12
 
    SUBROT:  cpu time    0.84: real time    0.84
    SUBROT:  cpu time    0.41: real time    0.41
    SUBROT:  cpu time    0.40: real time    0.40
    SUBROT:  cpu time    0.42: real time    0.42
    SUBROT:  cpu time    0.41: real time    0.41
    --------------------------------------------
    SUBRT+:  cpu time    2.49: real time    2.49

 Broyden mixing:
  rms(total) = 0.12304E+00    rms(broyden)= 0.12285E+00
  rms(prec ) = 0.21591E+00
  weight for this iteration     100.00

 eigenvalues of (default mixing * dielectric matrix)
  average eigenvalue GAMMA=   1.1646
  2.5096  1.1679  0.6095  0.3713
 
    TRIAL :  cpu time  257.20: real time  256.98
    CORREC:  cpu time    0.00: real time    0.00
    CHARGE:  cpu time    0.07: real time    0.07
    --------------------------------------------
      LOOP:  cpu time  259.49: real time  259.28

 eigenvalue-minimisations  :     0
 total energy-change (2. order) :-0.7476249E+01  (-0.1073856E+03)
 number of electron     112.0001433 magnetization 
 augmentation part       37.2412485 magnetization 

 Free energy of the ion-electron system (eV)
  ---------------------------------------------------
  alpha Z        PSCENC =       339.31929130
  Ewald energy   TEWEN  =     -9063.96382106
  -1/2 Hartree   DENC   =     -8544.02114407
  -exchange  EXHF       =       342.99061342
  -V(xc)+E(xc)   XCENC  =       381.65257346
  PAW double counting   =     17633.06603283   -18213.79467599
  entropy T*S    EENTRO =         0.00038192
  eigenvalues    EBANDS =     -1218.88488895
  atomic energy  EATOM  =     18320.98302006
  ---------------------------------------------------
  free energy    TOTEN  =       -22.65274548 eV

  energy without entropy =      -22.65312740  energy(sigma->0) =      -22.65287279


--------------------------------------------------------------------------------------------------------




----------------------------------------- Iteration    1(   5)  ---------------------------------------


    POTLOK:  cpu time    0.05: real time    0.05
    SETDIJ:  cpu time    2.14: real time    2.13
 
    SUBROT:  cpu time    0.86: real time    0.86
    SUBROT:  cpu time    0.41: real time    0.41
    SUBROT:  cpu time    0.40: real time    0.40
    SUBROT:  cpu time    0.42: real time    0.42
    --------------------------------------------
    SUBRT+:  cpu time    2.09: real time    2.11

 Broyden mixing:
  rms(total) = 0.48726E-01    rms(broyden)= 0.48715E-01
  rms(prec ) = 0.97975E-01
  weight for this iteration     100.00

 eigenvalues of (default mixing * dielectric matrix)
  average eigenvalue GAMMA=   1.6851
  2.4559  0.9361  1.6633
 
    TRIAL :  cpu time  258.43: real time  258.22
    CORREC:  cpu time    0.00: real time    0.00
    CHARGE:  cpu time    0.06: real time    0.06
    --------------------------------------------
      LOOP:  cpu time  260.68: real time  260.47

 eigenvalue-minimisations  :     0
 total energy-change (2. order) :-0.3815908E+02  (-0.1507978E+02)
 number of electron     112.0001432 magnetization 
 augmentation part       37.2411833 magnetization 

 Free energy of the ion-electron system (eV)
  ---------------------------------------------------
  alpha Z        PSCENC =       339.31929130
  Ewald energy   TEWEN  =     -9063.96382106
  -1/2 Hartree   DENC   =     -8008.29986825
  -exchange  EXHF       =       336.36793281
  -V(xc)+E(xc)   XCENC  =       368.38354766
  PAW double counting   =     15869.10190929   -16338.51793045
  entropy T*S    EENTRO =         0.00063865
  eigenvalues    EBANDS =     -1884.18628717
  atomic energy  EATOM  =     18320.98302006
  ---------------------------------------------------
  free energy    TOTEN  =       -60.81182389 eV

  energy without entropy =      -60.81246254  energy(sigma->0) =      -60.81203677


--------------------------------------------------------------------------------------------------------




----------------------------------------- Iteration    1(   6)  ---------------------------------------


    POTLOK:  cpu time    0.11: real time    0.11
    SETDIJ:  cpu time    2.15: real time    2.15
 
    SUBROT:  cpu time    0.85: real time    0.85
    SUBROT:  cpu time    0.41: real time    0.41
    SUBROT:  cpu time    0.41: real time    0.41
    SUBROT:  cpu time    0.41: real time    0.42
    --------------------------------------------
    SUBRT+:  cpu time    2.09: real time    2.10

 Broyden mixing:
  rms(total) = 0.27487E-02    rms(broyden)= 0.27481E-02
  rms(prec ) = 0.45643E-02
  weight for this iteration     100.00

 eigenvalues of (default mixing * dielectric matrix)
  average eigenvalue GAMMA=   1.8358
  1.0150  2.5263  1.9661
 
    TRIAL :  cpu time  257.48: real time  257.27
    CORREC:  cpu time    0.00: real time    0.00
    CHARGE:  cpu time    0.06: real time    0.06
    --------------------------------------------
      LOOP:  cpu time  259.80: real time  259.60

 eigenvalue-minimisations  :     0
 total energy-change (2. order) :-0.5100033E+01  (-0.8229465E+01)
 number of electron     112.0001463 magnetization 
 augmentation part       38.2293403 magnetization 

 Free energy of the ion-electron system (eV)
  ---------------------------------------------------
  alpha Z        PSCENC =       339.31929130
  Ewald energy   TEWEN  =     -9063.96382106
  -1/2 Hartree   DENC   =     -8000.48665511
  -exchange  EXHF       =       337.11132319
  -V(xc)+E(xc)   XCENC  =       368.75354758
  PAW double counting   =     15768.96361238   -16237.98793219
  entropy T*S    EENTRO =         0.00068020
  eigenvalues    EBANDS =     -1898.60488175
  atomic energy  EATOM  =     18320.98302006
  ---------------------------------------------------
  free energy    TOTEN  =       -65.91185695 eV

  energy without entropy =      -65.91253715  energy(sigma->0) =      -65.91208368


--------------------------------------------------------------------------------------------------------




----------------------------------------- Iteration    1(   7)  ---------------------------------------


    POTLOK:  cpu time    0.05: real time    0.05
    SETDIJ:  cpu time    1.99: real time    1.99
 
    SUBROT:  cpu time    0.83: real time    0.83
    SUBROT:  cpu time    0.39: real time    0.39
    SUBROT:  cpu time    0.40: real time    0.39
    SUBROT:  cpu time    0.40: real time    0.40
    --------------------------------------------
    SUBRT+:  cpu time    2.02: real time    2.02

 Broyden mixing:
  rms(total) = 0.13496E-01    rms(broyden)= 0.13492E-01
  rms(prec ) = 0.23840E-01
  weight for this iteration     100.00

 eigenvalues of (default mixing * dielectric matrix)
  average eigenvalue GAMMA=   1.5659
  2.4999  1.3161  0.8816
 
    TRIAL :  cpu time  257.90: real time  257.68
    CORREC:  cpu time    0.00: real time    0.00
    CHARGE:  cpu time    0.06: real time    0.06
    --------------------------------------------
      LOOP:  cpu time  260.01: real time  259.79

 eigenvalue-minimisations  :     0
 total energy-change (2. order) :-0.1547035E+01  (-0.4163755E+01)
 number of electron     112.0001446 magnetization 
 augmentation part       37.7037464 magnetization 

 Free energy of the ion-electron system (eV)
  ---------------------------------------------------
  alpha Z        PSCENC =       339.31929130
  Ewald energy   TEWEN  =     -9063.96382106
  -1/2 Hartree   DENC   =     -8244.33057471
  -exchange  EXHF       =       341.61437321
  -V(xc)+E(xc)   XCENC  =       374.56666047
  PAW double counting   =     16208.56943642   -16712.11852746
  entropy T*S    EENTRO =         0.00043849
  eigenvalues    EBANDS =     -1632.09943079
  atomic energy  EATOM  =     18320.98302006
  ---------------------------------------------------
  free energy    TOTEN  =       -67.45889235 eV

  energy without entropy =      -67.45933084  energy(sigma->0) =      -67.45903851


--------------------------------------------------------------------------------------------------------




----------------------------------------- Iteration    1(   8)  ---------------------------------------


    POTLOK:  cpu time    0.05: real time    0.05
    SETDIJ:  cpu time    2.00: real time    2.00
 
    SUBROT:  cpu time    0.80: real time    0.81
    SUBROT:  cpu time    0.39: real time    0.39
    SUBROT:  cpu time    0.41: real time    0.41
    SUBROT:  cpu time    0.40: real time    0.40
    --------------------------------------------
    SUBRT+:  cpu time    2.01: real time    2.03

 Broyden mixing:
  rms(total) = 0.85782E-02    rms(broyden)= 0.85757E-02
  rms(prec ) = 0.14299E-01
  weight for this iteration     100.00

 eigenvalues of (default mixing * dielectric matrix)
  average eigenvalue GAMMA=   1.6632
  2.4589  0.9458  1.5850
 
    TRIAL :  cpu time  258.50: real time  258.29
    CORREC:  cpu time    0.00: real time    0.00
    CHARGE:  cpu time    0.08: real time    0.08
    --------------------------------------------
      LOOP:  cpu time  260.63: real time  260.43

 eigenvalue-minimisations  :     0
 total energy-change (2. order) :-0.1623373E+01  (-0.7740650E+00)
 number of electron     112.0001446 magnetization 
 augmentation part       37.7231001 magnetization 

 Free energy of the ion-electron system (eV)
  ---------------------------------------------------
  alpha Z        PSCENC =       339.31929130
  Ewald energy   TEWEN  =     -9063.96382106
  -1/2 Hartree   DENC   =     -8116.98823401
  -exchange  EXHF       =       339.50382848
  -V(xc)+E(xc)   XCENC  =       371.36966439
  PAW double counting   =     15915.53641473   -16396.90692819
  entropy T*S    EENTRO =         0.00071326
  eigenvalues    EBANDS =     -1777.93593942
  atomic energy  EATOM  =     18320.98302006
  ---------------------------------------------------
  free energy    TOTEN  =       -69.08226523 eV

  energy without entropy =      -69.08297849  energy(sigma->0) =      -69.08250298


--------------------------------------------------------------------------------------------------------




----------------------------------------- Iteration    1(   9)  ---------------------------------------


    POTLOK:  cpu time    0.05: real time    0.06
    SETDIJ:  cpu time    2.00: real time    2.00
 
    SUBROT:  cpu time    0.87: real time    0.87
    SUBROT:  cpu time    0.42: real time    0.42
    SUBROT:  cpu time    0.43: real time    0.43
    SUBROT:  cpu time    0.42: real time    0.42
    --------------------------------------------
    SUBRT+:  cpu time    2.14: real time    2.17

 Broyden mixing:
  rms(total) = 0.51451E-03    rms(broyden)= 0.51389E-03
  rms(prec ) = 0.83265E-03
  weight for this iteration     100.00

 eigenvalues of (default mixing * dielectric matrix)
  average eigenvalue GAMMA=   1.7060
  2.5261  1.0016  1.5903
 
    TRIAL :  cpu time  258.16: real time  257.97
    CORREC:  cpu time    0.00: real time    0.00
    CHARGE:  cpu time    0.06: real time    0.06
    --------------------------------------------
      LOOP:  cpu time  260.28: real time  260.09

 eigenvalue-minimisations  :     0
 total energy-change (2. order) :-0.3117048E+00  (-0.3889309E+00)
 number of electron     112.0001452 magnetization 
 augmentation part       37.9055325 magnetization 

 Free energy of the ion-electron system (eV)
  ---------------------------------------------------
  alpha Z        PSCENC =       339.31929130
  Ewald energy   TEWEN  =     -9063.96382106
  -1/2 Hartree   DENC   =     -8124.81195818
  -exchange  EXHF       =       339.58231496
  -V(xc)+E(xc)   XCENC  =       371.43607177
  PAW double counting   =     15912.13970242   -16393.39358082
  entropy T*S    EENTRO =         0.00084594
  eigenvalues    EBANDS =     -1770.68572373
  atomic energy  EATOM  =     18320.98302006
  ---------------------------------------------------
  free energy    TOTEN  =       -69.39397002 eV

  energy without entropy =      -69.39481595  energy(sigma->0) =      -69.39425200


--------------------------------------------------------------------------------------------------------




----------------------------------------- Iteration    1(  10)  ---------------------------------------


    POTLOK:  cpu time    0.05: real time    0.05
    SETDIJ:  cpu time    2.10: real time    2.10
 
    SUBROT:  cpu time    0.85: real time    0.85
    SUBROT:  cpu time    0.43: real time    0.43
    SUBROT:  cpu time    0.44: real time    0.45
    SUBROT:  cpu time    0.43: real time    0.43
    --------------------------------------------
    SUBRT+:  cpu time    2.17: real time    2.17

 Broyden mixing:
  rms(total) = 0.23205E-02    rms(broyden)= 0.23200E-02
  rms(prec ) = 0.38903E-02
  weight for this iteration     100.00

 eigenvalues of (default mixing * dielectric matrix)
  average eigenvalue GAMMA=   1.6819
  2.4753  0.9878  1.5826
 
    TRIAL :  cpu time  260.46: real time  260.25
    CORREC:  cpu time    0.00: real time    0.00
    CHARGE:  cpu time    0.07: real time    0.07
    --------------------------------------------
      LOOP:  cpu time  262.69: real time  262.48

 eigenvalue-minimisations  :     0
 total energy-change (2. order) :-0.1043642E+00  (-0.1532462E+00)
 number of electron     112.0001450 magnetization 
 augmentation part       37.8179336 magnetization 

 Free energy of the ion-electron system (eV)
  ---------------------------------------------------
  alpha Z        PSCENC =       339.31929130
  Ewald energy   TEWEN  =     -9063.96382106
  -1/2 Hartree   DENC   =     -8172.51196730
  -exchange  EXHF       =       340.39302556
  -V(xc)+E(xc)   XCENC  =       372.54096422
  PAW double counting   =     15994.51392562   -16482.52842129
  entropy T*S    EENTRO =         0.00070821
  eigenvalues    EBANDS =     -1718.24519727
  atomic energy  EATOM  =     18320.98302006
  ---------------------------------------------------
  free energy    TOTEN  =       -69.49833422 eV

  energy without entropy =      -69.49904243  energy(sigma->0) =      -69.49857029


--------------------------------------------------------------------------------------------------------




----------------------------------------- Iteration    1(  11)  ---------------------------------------


    POTLOK:  cpu time    0.05: real time    0.05
    SETDIJ:  cpu time    2.08: real time    2.08
 
    SUBROT:  cpu time    0.89: real time    0.89
    SUBROT:  cpu time    0.43: real time    0.43
    SUBROT:  cpu time    0.45: real time    0.45
    SUBROT:  cpu time    0.45: real time    0.45
    --------------------------------------------
    SUBRT+:  cpu time    2.22: real time    2.24

 Broyden mixing:
  rms(total) = 0.78836E-03    rms(broyden)= 0.78811E-03
  rms(prec ) = 0.15750E-02
  weight for this iteration     100.00

 eigenvalues of (default mixing * dielectric matrix)
  average eigenvalue GAMMA=   1.6575
  2.4964  0.9832  1.4929
 
    TRIAL :  cpu time  259.92: real time  259.73
    CORREC:  cpu time    0.00: real time    0.00
    CHARGE:  cpu time    0.09: real time    0.09
    --------------------------------------------
      LOOP:  cpu time  262.16: real time  261.96

 eigenvalue-minimisations  :     0
 total energy-change (2. order) :-0.7004224E-01  (-0.3692541E-01)
 number of electron     112.0001449 magnetization 
 augmentation part       37.7850358 magnetization 

 Free energy of the ion-electron system (eV)
  ---------------------------------------------------
  alpha Z        PSCENC =       339.31929130
  Ewald energy   TEWEN  =     -9063.96382106
  -1/2 Hartree   DENC   =     -8151.03320084
  -exchange  EXHF       =       340.06378949
  -V(xc)+E(xc)   XCENC  =       372.06545210
  PAW double counting   =     15942.16265902   -16427.11493649
  entropy T*S    EENTRO =         0.00059087
  eigenvalues    EBANDS =     -1742.05133826
  atomic energy  EATOM  =     18320.98302006
  ---------------------------------------------------
  free energy    TOTEN  =       -69.56837647 eV

  energy without entropy =      -69.56896734  energy(sigma->0) =      -69.56857342


--------------------------------------------------------------------------------------------------------




----------------------------------------- Iteration    1(  12)  ---------------------------------------


    POTLOK:  cpu time    0.16: real time    0.17
    SETDIJ:  cpu time    2.10: real time    2.09
 
    SUBROT:  cpu time    0.90: real time    0.90
    SUBROT:  cpu time    0.44: real time    0.44
    SUBROT:  cpu time    0.42: real time    0.42
    SUBROT:  cpu time    0.42: real time    0.42
    --------------------------------------------
    SUBRT+:  cpu time    2.18: real time    2.20

 Broyden mixing:
  rms(total) = 0.21094E-03    rms(broyden)= 0.21084E-03
  rms(prec ) = 0.46019E-03
  weight for this iteration     100.00

 eigenvalues of (default mixing * dielectric matrix)
  average eigenvalue GAMMA=   1.6496
  2.5060  0.9988  1.4441
 
    TRIAL :  cpu time  259.71: real time  259.54
    CORREC:  cpu time    0.00: real time    0.00
    CHARGE:  cpu time    0.08: real time    0.08
    --------------------------------------------
      LOOP:  cpu time  262.06: real time  261.89

 eigenvalue-minimisations  :     0
 total energy-change (2. order) :-0.1231413E-01  (-0.2299735E-01)
 number of electron     112.0001450 magnetization 
 augmentation part       37.8255854 magnetization 

 Free energy of the ion-electron system (eV)
  ---------------------------------------------------
  alpha Z        PSCENC =       339.31929130
  Ewald energy   TEWEN  =     -9063.96382106
  -1/2 Hartree   DENC   =     -8142.63611064
  -exchange  EXHF       =       339.94759157
  -V(xc)+E(xc)   XCENC  =       371.88998910
  PAW double counting   =     15920.17908960   -16404.04078505
  entropy T*S    EENTRO =         0.00054023
  eigenvalues    EBANDS =     -1751.25954636
  atomic energy  EATOM  =     18320.98302006
  ---------------------------------------------------
  free energy    TOTEN  =       -69.58069060 eV

  energy without entropy =      -69.58123082  energy(sigma->0) =      -69.58087067


--------------------------------------------------------------------------------------------------------




----------------------------------------- Iteration    1(  13)  ---------------------------------------


    POTLOK:  cpu time    0.06: real time    0.06
    SETDIJ:  cpu time    2.10: real time    2.10
 
    SUBROT:  cpu time    0.90: real time    0.90
    SUBROT:  cpu time    0.45: real time    0.45
    SUBROT:  cpu time    0.45: real time    0.46
    SUBROT:  cpu time    0.45: real time    0.45
    --------------------------------------------
    SUBRT+:  cpu time    2.25: real time    2.26

 Broyden mixing:
  rms(total) = 0.55626E-03    rms(broyden)= 0.55614E-03
  rms(prec ) = 0.94709E-03
  weight for this iteration     100.00

 eigenvalues of (default mixing * dielectric matrix)
  average eigenvalue GAMMA=   1.6919
  2.4806  0.9957  1.5994
 
    TRIAL :  cpu time  261.33: real time  261.12
    CORREC:  cpu time    0.00: real time    0.00
    CHARGE:  cpu time    0.09: real time    0.09
    --------------------------------------------
      LOOP:  cpu time  263.58: real time  263.37

 eigenvalue-minimisations  :     0
 total energy-change (2. order) :-0.9722628E-02  (-0.5134645E-02)
 number of electron     112.0001450 magnetization 
 augmentation part       37.8294780 magnetization 

 Free energy of the ion-electron system (eV)
  ---------------------------------------------------
  alpha Z        PSCENC =       339.31929130
  Ewald energy   TEWEN  =     -9063.96382106
  -1/2 Hartree   DENC   =     -8152.59116825
  -exchange  EXHF       =       340.12091445
  -V(xc)+E(xc)   XCENC  =       372.12521727
  PAW double counting   =     15936.42064585   -16421.78409365
  entropy T*S    EENTRO =         0.00052935
  eigenvalues    EBANDS =     -1740.22095943
  atomic energy  EATOM  =     18320.98302006
  ---------------------------------------------------
  free energy    TOTEN  =       -69.59041323 eV

  energy without entropy =      -69.59094257  energy(sigma->0) =      -69.59058968


--------------------------------------------------------------------------------------------------------




----------------------------------------- Iteration    1(  14)  ---------------------------------------


    POTLOK:  cpu time    0.07: real time    0.07
    SETDIJ:  cpu time    2.10: real time    2.10
 
    SUBROT:  cpu time    0.92: real time    0.92
    SUBROT:  cpu time    0.45: real time    0.45
    SUBROT:  cpu time    0.44: real time    0.44
    SUBROT:  cpu time    0.44: real time    0.44
    --------------------------------------------
    SUBRT+:  cpu time    2.25: real time    2.26

 Broyden mixing:
  rms(total) = 0.68338E-04    rms(broyden)= 0.68324E-04
  rms(prec ) = 0.14123E-03
  weight for this iteration     100.00

 eigenvalues of (default mixing * dielectric matrix)
  average eigenvalue GAMMA=   1.6769
  2.5145  0.9905  1.5256
 
    TRIAL :  cpu time  259.73: real time  259.74
    CORREC:  cpu time    0.00: real time    0.00
    CHARGE:  cpu time    0.09: real time    0.09
    --------------------------------------------
      LOOP:  cpu time  261.99: real time  262.01

 eigenvalue-minimisations  :     0
 total energy-change (2. order) :-0.2463914E-02  (-0.3805222E-02)
 number of electron     112.0001449 magnetization 
 augmentation part       37.8118274 magnetization 

 Free energy of the ion-electron system (eV)
  ---------------------------------------------------
  alpha Z        PSCENC =       339.31929130
  Ewald energy   TEWEN  =     -9063.96382106
  -1/2 Hartree   DENC   =     -8153.11895293
  -exchange  EXHF       =       340.11879168
  -V(xc)+E(xc)   XCENC  =       372.13446944
  PAW double counting   =     15934.32318768   -16419.85095370
  entropy T*S    EENTRO =         0.00054687
  eigenvalues    EBANDS =     -1739.53843895
  atomic energy  EATOM  =     18320.98302006
  ---------------------------------------------------
  free energy    TOTEN  =       -69.59287714 eV

  energy without entropy =      -69.59342401  energy(sigma->0) =      -69.59305943


--------------------------------------------------------------------------------------------------------




----------------------------------------- Iteration    1(  15)  ---------------------------------------


    POTLOK:  cpu time    0.11: real time    0.11
    SETDIJ:  cpu time    2.08: real time    2.08
 
    SUBROT:  cpu time    0.92: real time    0.92
    SUBROT:  cpu time    0.44: real time    0.44
    SUBROT:  cpu time    0.45: real time    0.46
    SUBROT:  cpu time    0.44: real time    0.44
    --------------------------------------------
    SUBRT+:  cpu time    2.25: real time    2.27

 Broyden mixing:
  rms(total) = 0.19364E-03    rms(broyden)= 0.19358E-03
  rms(prec ) = 0.33087E-03
  weight for this iteration     100.00

 eigenvalues of (default mixing * dielectric matrix)
  average eigenvalue GAMMA=   1.6863
  2.4719  0.9889  1.5981
 
    TRIAL :  cpu time  259.18: real time  259.33
    CORREC:  cpu time    0.00: real time    0.00
    CHARGE:  cpu time    0.09: real time    0.09
    --------------------------------------------
      LOOP:  cpu time  261.46: real time  261.62

 eigenvalue-minimisations  :     0
 total energy-change (2. order) :-0.1515054E-02  (-0.1044253E-02)
 number of electron     112.0001449 magnetization 
 augmentation part       37.8161775 magnetization 

 Free energy of the ion-electron system (eV)
  ---------------------------------------------------
  alpha Z        PSCENC =       339.31929130
  Ewald energy   TEWEN  =     -9063.96382106
  -1/2 Hartree   DENC   =     -8148.37749193
  -exchange  EXHF       =       340.02911468
  -V(xc)+E(xc)   XCENC  =       372.02258432
  PAW double counting   =     15922.19584877   -16407.11013694
  entropy T*S    EENTRO =         0.00055963
  eigenvalues    EBANDS =     -1744.69334826
  atomic energy  EATOM  =     18320.98302006
  ---------------------------------------------------
  free energy    TOTEN  =       -69.59439219 eV

  energy without entropy =      -69.59495183  energy(sigma->0) =      -69.59457874


--------------------------------------------------------------------------------------------------------




----------------------------------------- Iteration    1(  16)  ---------------------------------------


    POTLOK:  cpu time    0.05: real time    0.05
    SETDIJ:  cpu time    2.10: real time    2.10
 
    SUBROT:  cpu time    0.92: real time    0.92
    SUBROT:  cpu time    0.45: real time    0.45
    SUBROT:  cpu time    0.44: real time    0.44
    SUBROT:  cpu time    0.45: real time    0.45
    --------------------------------------------
    SUBRT+:  cpu time    2.27: real time    2.31

 Broyden mixing:
  rms(total) = 0.86058E-04    rms(broyden)= 0.86040E-04
  rms(prec ) = 0.14295E-03
  weight for this iteration     100.00

 eigenvalues of (default mixing * dielectric matrix)
  average eigenvalue GAMMA=   1.6799
  2.4871  0.9886  1.5639
 
    TRIAL :  cpu time  260.66: real time  260.83
    CORREC:  cpu time    0.00: real time    0.00
    CHARGE:  cpu time    0.09: real time    0.09
    --------------------------------------------
      LOOP:  cpu time  262.91: real time  263.08

 eigenvalue-minimisations  :     0
 total energy-change (2. order) :-0.5755983E-03  (-0.4118038E-03)
 number of electron     112.0001450 magnetization 
 augmentation part       37.8210094 magnetization 

 Free energy of the ion-electron system (eV)
  ---------------------------------------------------
  alpha Z        PSCENC =       339.31929130
  Ewald energy   TEWEN  =     -9063.96382106
  -1/2 Hartree   DENC   =     -8149.50156866
  -exchange  EXHF       =       340.04780256
  -V(xc)+E(xc)   XCENC  =       372.04995582
  PAW double counting   =     15923.05046187   -16408.15500450
  entropy T*S    EENTRO =         0.00056052
  eigenvalues    EBANDS =     -1743.42566481
  atomic energy  EATOM  =     18320.98302006
  ---------------------------------------------------
  free energy    TOTEN  =       -69.59496779 eV

[...]
     22      -2.2877      2.00000
     23      -1.9493      2.00000
     24      -1.6179      2.00000
     25      -1.2187      2.00000
     26      -1.0048      2.00000
     27      -0.9751      2.00000
     28      -0.7157      2.00000
     29      -0.5512      2.00000
     30      -0.3907      2.00000
     31      -0.2848      2.00000
     32      -0.1947      2.00000
     33      -0.1835      2.00000
     34      -0.1470      2.00000
     35      -0.0207      2.00000
     36       0.0192      2.00000
     37       1.2960      2.00000
     38       1.3076      2.00000
     39       1.3680      2.00000
     40       1.4110      2.00000
     41       1.4488      2.00000
     42       1.4637      2.00000
     43       1.5078      2.00000
     44       1.5478      2.00000
     45       1.7630      2.00000
     46       1.8935      2.00000
     47       1.9809      2.00000
     48       2.1533      2.00000
     49       2.3719      2.00000
     50       2.5766      2.00000
     51       2.7057      2.00000
     52       2.9101      2.00000
     53       3.0129      2.00000
     54       3.2219      2.00000
     55       3.3998      2.00000
     56       3.6571      2.00000
     57       6.3784     -0.00000
     58       6.5108     -0.00000
     59       7.7192      0.00000
     60       7.9012      0.00000
     61       8.2931      0.00000
     62       8.5746      0.00000
     63       9.3252      0.00000
     64       9.8435      0.00000
     65      10.0183      0.00000
     66      10.3503      0.00000
     67      10.5889      0.00000
     68      10.7878      0.00000
     69      10.9796      0.00000
     70      11.2579      0.00000
     71      11.3077      0.00000
     72      11.7061      0.00000
     73      12.2495      0.00000
     74      12.4656      0.00000
     75      13.0963      0.00000
     76      13.4612      0.00000
     77      13.7970      0.00000
     78      14.6666      0.00000
     79      14.9943      0.00000
     80      15.7221      0.00000

 k-point  40 :       0.2500   -0.2500    0.4000
  band No.  band energies     occupation 
      1     -68.6541      2.00000
      2     -68.6435      2.00000
      3     -68.6347      2.00000
      4     -68.6277      2.00000
      5     -68.6241      2.00000
      6     -68.6118      2.00000
      7     -68.6045      2.00000
      8     -68.5941      2.00000
      9     -68.5787      2.00000
     10     -68.5728      2.00000
     11     -68.5618      2.00000
     12     -68.5547      2.00000
     13     -12.2186      2.00000
     14     -11.8167      2.00000
     15     -10.8216      2.00000
     16     -10.6701      2.00000
     17     -10.3484      2.00000
     18     -10.2760      2.00000
     19      -5.4463      2.00000
     20      -5.1168      2.00000
     21      -2.4298      2.00000
     22      -2.1533      2.00000
     23      -2.0170      2.00000
     24      -1.5225      2.00000
     25      -1.3546      2.00000
     26      -1.1640      2.00000
     27      -0.9397      2.00000
     28      -0.8143      2.00000
     29      -0.5857      2.00000
     30      -0.5360      2.00000
     31      -0.2800      2.00000
     32      -0.2409      2.00000
     33      -0.1342      2.00000
     34      -0.0906      2.00000
     35      -0.0272      2.00000
     36       0.0327      2.00000
     37       1.3123      2.00000
     38       1.3445      2.00000
     39       1.3632      2.00000
     40       1.3942      2.00000
     41       1.4509      2.00000
     42       1.4826      2.00000
     43       1.5001      2.00000
     44       1.5659      2.00000
     45       1.8022      2.00000
     46       1.8460      2.00000
     47       1.9596      2.00000
     48       2.1098      2.00000
     49       2.2954      2.00000
     50       2.5297      2.00000
     51       2.6398      2.00000
     52       2.7700      2.00000
     53       2.9308      2.00000
     54       3.1601      2.00000
     55       3.3024      2.00000
     56       3.5746      2.00000
     57       6.5579     -0.00000
     58       6.7129     -0.00000
     59       7.9637      0.00000
     60       8.0036      0.00000
     61       8.7314      0.00000
     62       9.0931      0.00000
     63       9.4531      0.00000
     64       9.8265      0.00000
     65      10.2970      0.00000
     66      10.3687      0.00000
     67      10.7802      0.00000
     68      10.8455      0.00000
     69      11.1155      0.00000
     70      11.2716      0.00000
     71      11.3683      0.00000
     72      11.6220      0.00000
     73      12.0509      0.00000
     74      12.2947      0.00000
     75      12.6457      0.00000
     76      13.1238      0.00000
     77      13.2841      0.00000
     78      14.2417      0.00000
     79      15.6301      0.00000
     80      15.8458      0.00000

 k-point  41 :       0.5000   -0.2500    0.4000
  band No.  band energies     occupation 
      1     -68.6540      2.00000
      2     -68.6434      2.00000
      3     -68.6345      2.00000
      4     -68.6275      2.00000
      5     -68.6241      2.00000
      6     -68.6118      2.00000
      7     -68.6043      2.00000
      8     -68.5939      2.00000
      9     -68.5787      2.00000
     10     -68.5728      2.00000
     11     -68.5618      2.00000
     12     -68.5546      2.00000
     13     -12.0778      2.00000
     14     -11.7747      2.00000
     15     -10.8482      2.00000
     16     -10.7544      2.00000
     17     -10.5328      2.00000
     18     -10.3149      2.00000
     19      -5.4193      2.00000
     20      -4.9408      2.00000
     21      -2.3995      2.00000
     22      -2.1306      2.00000
     23      -1.8625      2.00000
     24      -1.7216      2.00000
     25      -1.4507      2.00000
     26      -1.1170      2.00000
     27      -0.8853      2.00000
     28      -0.6464      2.00000
     29      -0.6028      2.00000
     30      -0.4484      2.00000
     31      -0.2630      2.00000
     32      -0.1856      2.00000
     33      -0.1231      2.00000
     34      -0.0512      2.00000
     35      -0.0242      2.00000
     36       0.0193      2.00000
     37       1.2608      2.00000
     38       1.3134      2.00000
     39       1.4079      2.00000
     40       1.4382      2.00000
     41       1.4844      2.00000
     42       1.4908      2.00000
     43       1.5165      2.00000
     44       1.5751      2.00000
     45       1.7619      2.00000
     46       1.8413      2.00000
     47       2.1192      2.00000
     48       2.1841      2.00000
     49       2.3652      2.00000
     50       2.4614      2.00000
     51       2.4906      2.00000
     52       2.6951      2.00000
     53       2.8221      2.00000
     54       3.0898      2.00000
     55       3.2909      2.00000
     56       3.5267      2.00000
     57       6.4902     -0.00000
     58       6.5843     -0.00000
     59       7.4559      0.00000
     60       7.7138      0.00000
     61       8.5902      0.00000
     62       8.7448      0.00000
     63       9.2984      0.00000
     64       9.5337      0.00000
     65       9.9532      0.00000
     66      10.1830      0.00000
     67      10.6834      0.00000
     68      11.1124      0.00000
     69      11.2461      0.00000
     70      11.5720      0.00000
     71      11.7044      0.00000
     72      11.8939      0.00000
     73      12.3004      0.00000
     74      12.6558      0.00000
     75      13.0137      0.00000
     76      13.2256      0.00000
     77      13.6654      0.00000
     78      14.0624      0.00000
     79      14.3902      0.00000
     80      16.5185      0.00000

 k-point  42 :      -0.2500   -0.2500    0.4000
  band No.  band energies     occupation 
      1     -68.6542      2.00000
      2     -68.6436      2.00000
      3     -68.6344      2.00000
      4     -68.6275      2.00000
      5     -68.6241      2.00000
      6     -68.6118      2.00000
      7     -68.6043      2.00000
      8     -68.5939      2.00000
      9     -68.5787      2.00000
     10     -68.5728      2.00000
     11     -68.5619      2.00000
     12     -68.5548      2.00000
     13     -12.1769      2.00000
     14     -11.7045      2.00000
     15     -10.7170      2.00000
     16     -10.6914      2.00000
     17     -10.5873      2.00000
     18     -10.3891      2.00000
     19      -5.4466      2.00000
     20      -5.0720      2.00000
     21      -2.5077      2.00000
     22      -2.3796      2.00000
     23      -1.9610      2.00000
     24      -1.3696      2.00000
     25      -1.3315      2.00000
     26      -1.0531      2.00000
     27      -0.8327      2.00000
     28      -0.7651      2.00000
     29      -0.4237      2.00000
     30      -0.3395      2.00000
     31      -0.2714      2.00000
     32      -0.2089      2.00000
     33      -0.1430      2.00000
     34      -0.1391      2.00000
     35      -0.0165      2.00000
     36       0.0250      2.00000
     37       1.1730      2.00000
     38       1.3701      2.00000
     39       1.3966      2.00000
     40       1.4511      2.00000
     41       1.4537      2.00000
     42       1.4993      2.00000
     43       1.5162      2.00000
     44       1.5460      2.00000
     45       1.7446      2.00000
     46       1.8213      2.00000
     47       1.9698      2.00000
     48       2.2273      2.00000
     49       2.3974      2.00000
     50       2.6137      2.00000
     51       2.6573      2.00000
     52       2.9154      2.00000
     53       3.0692      2.00000
     54       3.1170      2.00000
     55       3.2885      2.00000
     56       3.5852      2.00000
     57       6.2885     -0.00000
     58       6.3756     -0.00000
     59       7.3588      0.00000
     60       7.5200      0.00000
     61       8.3070      0.00000
     62       8.3361      0.00000
     63       9.1036      0.00000
     64       9.3608      0.00000
     65       9.7171      0.00000
     66       9.9459      0.00000
     67      10.5230      0.00000
     68      10.9900      0.00000
     69      11.4251      0.00000
     70      11.5638      0.00000
     71      12.0206      0.00000
     72      12.2884      0.00000
     73      12.4270      0.00000
     74      12.4767      0.00000
     75      13.0306      0.00000
     76      13.1490      0.00000
     77      14.1441      0.00000
     78      14.4343      0.00000
     79      15.1656      0.00000
     80      15.8619      0.00000


--------------------------------------------------------------------------------------------------------


 soft charge-density along one line, spin component           1
         0         1         2         3         4         5         6         7         8         9
 total charge-density along one line
 
 pseudopotential strength for first ion, spin component:           1
-65.430   0.002   0.006   7.366   0.000  -0.003   0.001   0.009
  0.002 -65.401  -0.005   0.000   7.356   0.002  -0.001  -0.023
  0.006  -0.005 -65.390  -0.003   0.002   7.352  -0.036  -0.001
  7.366   0.000  -0.003   6.110   0.000   0.001   0.002  -0.004
  0.000   7.356   0.002   0.000   6.112  -0.000   0.000   0.007
 -0.003   0.002   7.352   0.001  -0.000   6.113   0.008   0.000
  0.001  -0.001  -0.036   0.002   0.000   0.008  -2.985  -0.003
  0.009  -0.023  -0.001  -0.004   0.007   0.000  -0.003  -2.991
  0.022   0.044   0.009  -0.005  -0.009  -0.003  -0.004   0.008
 -0.001  -0.017   0.009   0.000   0.004  -0.004   0.004   0.008
  0.025   0.000  -0.034  -0.007  -0.000   0.007  -0.000   0.007
  0.001  -0.001  -0.036   0.002   0.000   0.008  -3.631  -0.003
  0.008  -0.023  -0.001  -0.004   0.007   0.000  -0.003  -3.638
  0.022   0.043   0.009  -0.005  -0.008  -0.002  -0.004   0.008
 -0.001  -0.017   0.008   0.000   0.004  -0.004   0.004   0.007
  0.025   0.000  -0.034  -0.007  -0.000   0.006  -0.000   0.007
  0.007  -0.005   0.004  -0.001   0.001  -0.001  -0.002   0.000
  0.015  -0.011   0.009  -0.002   0.002  -0.002  -0.003   0.001
 total augmentation occupancy for first ion, spin component:           1
  2.000  -0.000   0.000  -0.003  -0.000   0.000   0.007  -0.005   0.001  -0.001  -0.005  -0.007   0.006  -0.001   0.001   0.004
 -0.000   2.000  -0.000  -0.000  -0.003   0.000  -0.001   0.005   0.003   0.001   0.000   0.001  -0.005  -0.004  -0.001  -0.000
  0.000  -0.000   2.000   0.000   0.000  -0.003  -0.000  -0.000  -0.001  -0.005  -0.004   0.001   0.000   0.001   0.005   0.005
 -0.003  -0.000   0.000   0.095   0.006  -0.005  -0.334   0.232  -0.075   0.011   0.017   0.281  -0.196   0.059  -0.007  -0.011
 -0.000  -0.003   0.000   0.006   0.104   0.001   0.020  -0.049  -0.453   0.015   0.011  -0.013   0.038   0.385  -0.010  -0.009
  0.000   0.000  -0.003  -0.005   0.001   0.099   0.098  -0.003  -0.014   0.235   0.354  -0.077   0.001   0.011  -0.201  -0.297
  0.007  -0.001  -0.000  -0.334   0.020   0.098   4.014  -0.793   0.097   0.215   0.147  -1.740   0.744  -0.089  -0.182  -0.141
 -0.005   0.005  -0.000   0.232  -0.049  -0.003  -0.793   3.517   0.297   0.164   0.298   0.744  -1.277  -0.220  -0.118  -0.207
  0.001   0.003  -0.001  -0.075  -0.453  -0.014   0.097   0.297   4.725  -0.040  -0.117  -0.089  -0.220  -2.437   0.033   0.087
 -0.001   0.001  -0.005   0.011   0.015   0.235   0.215   0.164  -0.040   3.642   0.798  -0.182  -0.118   0.033  -1.361  -0.760
 -0.005   0.000  -0.004   0.017   0.011   0.354   0.147   0.298  -0.117   0.798   4.001  -0.142  -0.206   0.087  -0.760  -1.745
 -0.007   0.001   0.001   0.281  -0.013  -0.077  -1.740   0.744  -0.089  -0.182  -0.142   1.443  -0.696   0.082   0.154   0.136
  0.006  -0.005   0.000  -0.196   0.038   0.001   0.744  -1.277  -0.220  -0.118  -0.206  -0.696   1.013   0.158   0.081   0.133
 -0.001  -0.004   0.001   0.059   0.385   0.011  -0.089  -0.220  -2.437   0.033   0.087   0.082   0.158   2.124  -0.027  -0.063
  0.001  -0.001   0.005  -0.007  -0.010  -0.201  -0.182  -0.118   0.033  -1.361  -0.760   0.154   0.081  -0.027   1.067   0.722
  0.004  -0.000   0.005  -0.011  -0.009  -0.297  -0.141  -0.207   0.087  -0.760  -1.745   0.136   0.133  -0.063   0.722   1.462
 -0.024   0.017  -0.013  -0.020   0.014  -0.006   0.081  -0.103  -0.044  -0.008   0.026  -0.063   0.090   0.053   0.007   0.005
  0.011  -0.008   0.006   0.001  -0.001  -0.000  -0.009   0.003  -0.001   0.005  -0.019   0.004  -0.005  -0.004  -0.001   0.003


------------------------ aborting loop because EDIFF is reached ----------------------------------------


    FORLOC:  cpu time    0.00: real time    0.00
    FORHF :  cpu time  508.34: real time  507.91
    FORNL :  cpu time    0.42: real time    0.42
    FORCOR:  cpu time    2.22: real time    2.22

 VOLUME and BASIS-vectors are now :
 -----------------------------------------------------------------------------
  energy-cutoff  :      400.00
  volume of cell :      221.90
      direct lattice vectors                 reciprocal lattice vectors
     3.224796000 -5.643830000  0.031572000     0.154525165 -0.088592321  0.053460880
     3.224796000  5.643830000  0.031572000     0.154525165  0.088592321  0.053460880
    -2.101946000  0.000000000  6.075537000    -0.001606004  0.000000000  0.164038877

  length of vectors
     6.500240234  6.500240234  6.428866683     0.185969598  0.185969598  0.164046738


 FORCES acting on ions:
    Electron-Ion                     Ewald-Force                    Non-Local-Force
 -----------------------------------------------------------------------------------------------
   -.142E+02 -.971E+02 0.143E+02   0.130E+02 0.947E+02 -.126E+02   0.102E+01 0.209E+01 -.153E+01
   -.142E+02 0.972E+02 0.105E+02   0.130E+02 -.948E+02 -.894E+01   0.105E+01 -.210E+01 -.139E+01
   0.254E+02 -.169E+02 0.478E+01   -.222E+02 0.167E+02 -.350E+01   -.284E+01 0.165E+00 -.112E+01
   0.250E+02 0.156E+02 0.395E+01   -.218E+02 -.154E+02 -.269E+01   -.284E+01 -.141E+00 -.111E+01
   -.111E+02 -.312E+02 -.113E+02   0.104E+02 0.299E+02 0.102E+02   0.707E+00 0.130E+01 0.113E+01
   -.110E+02 0.315E+02 -.111E+02   0.103E+02 -.302E+02 0.993E+01   0.683E+00 -.135E+01 0.113E+01
   -.135E+03 -.990E+01 -.493E+02   0.132E+03 0.993E+01 0.485E+02   0.279E+01 -.306E-01 0.729E+00
   0.702E+02 -.126E+03 0.965E+02   -.685E+02 0.123E+03 -.944E+02   -.155E+01 0.230E+01 -.190E+01
   0.668E+02 -.132E+03 -.519E+02   -.653E+02 0.129E+03 0.509E+02   -.139E+01 0.220E+01 0.964E+00
   0.702E+02 0.126E+03 0.960E+02   -.685E+02 -.123E+03 -.940E+02   -.155E+01 -.229E+01 -.188E+01
   -.135E+03 0.989E+01 -.489E+02   0.132E+03 -.993E+01 0.481E+02   0.279E+01 0.337E-01 0.718E+00
   0.667E+02 0.133E+03 -.496E+02   -.652E+02 -.130E+03 0.486E+02   -.136E+01 -.218E+01 0.861E+00
 -----------------------------------------------------------------------------------------------
   0.276E+01 0.106E-01 0.382E+01   -.142E-13 0.568E-13 -.853E-13   -.251E+01 -.312E-02 -.339E+01
 
 
 POSITION                                       TOTAL-FORCE (eV/Angst)
 -----------------------------------------------------------------------------------
      2.13385     -2.80652      0.74958        -0.002255     -0.001553     -0.029958
      1.08288      2.80652      3.78735        -0.006348      0.000079     -0.000544
      5.40423     -0.97432      0.77721         0.002155     -0.000752      0.001650
      4.35326      0.97432      3.81498         0.011140      0.013564     -0.004542
      1.02081     -0.97328      3.66185         0.025988     -0.027951     -0.017966
      2.07178      0.97328      0.62409        -0.000282     -0.003628      0.003272
      2.15090      4.69667      3.05304         0.005707     -0.000463     -0.001576
      1.11215     -0.89759      5.98620         0.005055     -0.011346     -0.010036
      2.14613     -2.74882      3.02941        -0.041145      0.026515      0.084839
      2.16313      0.89759      2.94844         0.003712      0.009308     -0.000949
      1.09993     -4.69667      6.09081         0.003718     -0.001017     -0.013425
      1.09189      2.74882      6.07662        -0.007443     -0.002756     -0.010765
 -----------------------------------------------------------------------------------
    total drift:                               -0.058981     -0.001036     -0.053934


--------------------------------------------------------------------------------------------------------



  FREE ENERGIE OF THE ION-ELECTRON SYSTEM (eV)
  ---------------------------------------------------
  free  energy   TOTEN  =       -69.59531624 eV

  energy  without entropy=      -69.59587045  energy(sigma->0) =      -69.59550097
 


--------------------------------------------------------------------------------------------------------


    POTLOK:  cpu time    2.30: real time    2.30


--------------------------------------------------------------------------------------------------------


 writing wavefunctions
     LOOP+:  cpu time 5994.71: real time 5993.08
    4ORBIT:  cpu time    0.00: real time    0.00

 total amount of memory used by VASP on root node   155701. kBytes
========================================================================

   base      :      30000. kBytes
   nonl-proj :      74517. kBytes
   fftplans  :        702. kBytes
   grid      :       2400. kBytes
   one-center:        186. kBytes
   HF        :        194. kBytes
   nonlr-proj:       5126. kBytes
   wavefun   :      42576. kBytes
 
  
  
 General timing and accounting informations for this job:
 ========================================================
  
                  Total CPU time used (sec):     6031.550
                            User time (sec):     6028.716
                          System time (sec):        2.834
                         Elapsed time (sec):     6031.069
  
                   Maximum memory used (kb):      297332.
                   Average memory used (kb):           0.
  
                          Minor page faults:        78570
                          Major page faults:            0
                 Voluntary context switches:         3488
