   12   12    1    1
  0.1849176E+02  0.6500240E-09  0.6500240E-09  0.6428867E-09  0.5000000E-15
  1.000000000000000E-004
  CAR 
 CGS                                     
  112   42   80
 
  0.0000000E+00  0.0000000E+00  0.0000000E+00  0.1250000E-01
   1      -68.646663
   2      -68.640935
   3      -68.633199
   4      -68.628546
   5      -68.615325
   6      -68.609409
   7      -68.597675
   8      -68.591249
   9      -68.577391
  10      -68.573503
  11      -68.560678
  12      -68.555345
  13      -12.724831
  14      -11.137025
  15      -10.918374
  16      -10.603406
  17      -10.255300
  18      -10.237466
  19       -5.982848
  20       -4.986495
  21       -2.762426
  22       -2.212353
  23       -2.071638
  24       -1.924310
  25       -1.576775
  26       -0.979686
  27       -0.950173
  28       -0.684776
  29       -0.398183
  30       -0.276398
  31       -0.257063
  32       -0.233385
  33       -0.187978
  34       -0.152253
  35       -0.036909
  36        0.033390
  37        1.351793
  38        1.363529
  39        1.415234
  40        1.458712
  41        1.472701
  42        1.475597
  43        1.521875
  44        1.535043
  45        1.575430
  46        1.712414
  47        1.892657
  48        1.928389
  49        2.060357
  50        2.652725
  51        2.729284
  52        3.088003
  53        3.216345
  54        4.001607
  55        4.033277
  56        4.167565
  57        5.543926
  58        6.364786
  59        7.631603
  60        7.987206
  61        8.628345
  62        8.792662
  63        9.585673
  64        9.737309
  65        9.815246
  66       10.418527
  67       10.574042
  68       10.703596
  69       10.708858
  70       11.282091
  71       11.707748
  72       12.385473
  73       12.453019
  74       12.729939
  75       13.321647
  76       13.378130
  77       13.834717
  78       13.882615
  79       14.145561
  80       14.177615
 
  0.2500000E+00  0.7372575E-17  0.1387779E-16  0.2500000E-01
   1      -68.646639
   2      -68.640888
   3      -68.633174
   4      -68.628507
   5      -68.615219
   6      -68.609306
   7      -68.597676
   8      -68.591272
   9      -68.577321
  10      -68.573450
  11      -68.560644
  12      -68.555311
  13      -12.599991
  14      -11.136744
  15      -10.982119
  16      -10.676055
  17      -10.369262
  18      -10.281616
  19       -5.931301
  20       -4.775109
  21       -2.646870
  22       -2.254477
  23       -2.089049
  24       -1.690049
  25       -1.349996
  26       -0.997555
  27       -0.766980
  28       -0.619525
  29       -0.552367
  30       -0.438911
  31       -0.355632
  32       -0.240719
  33       -0.190357
  34       -0.169289
  35       -0.040848
  36        0.041642
  37        1.280708
  38        1.338320
  39        1.356345
  40        1.392987
  41        1.428441
  42        1.473718
  43        1.500783
  44        1.530523
  45        1.726382
  46        1.860230
  47        2.058803
  48        2.095770
  49        2.231774
  50        2.413728
  51        2.555192
  52        2.824685
  53        2.947400
  54        3.241854
  55        3.657924
  56        4.036382
  57        6.175285
  58        6.911453
  59        8.138224
  60        8.270028
  61        8.603312
  62        9.015425
  63        9.244235
  64        9.531667
  65        9.870307
  66       10.373548
  67       10.632784
  68       10.816243
  69       10.932465
  70       11.186455
  71       11.657510
  72       11.770031
  73       12.118598
  74       12.439715
  75       12.618340
  76       13.007188
  77       13.505290
  78       13.875778
  79       14.213854
  80       14.708595
 
  0.5000000E+00  0.1474515E-16  0.2775558E-16  0.1250000E-01
   1      -68.646468
   2      -68.640773
   3      -68.633096
   4      -68.628427
   5      -68.615205
   6      -68.609256
   7      -68.597609
   8      -68.591185
   9      -68.577266
  10      -68.573436
  11      -68.560530
  12      -68.555143
  13      -12.440849
  14      -11.256762
  15      -10.957557
  16      -10.764227
  17      -10.429136
  18      -10.363278
  19       -5.869067
  20       -4.549296
  21       -2.495333
  22       -2.247827
  23       -1.945756
  24       -1.463713
  25       -1.227621
  26       -1.106254
  27       -0.902215
  28       -0.865324
  29       -0.597866
  30       -0.536143
  31       -0.273164
  32       -0.202363
  33       -0.198355
  34       -0.143364
  35       -0.022292
  36        0.082161
  37        1.256235
  38        1.331072
  39        1.347871
  40        1.397573
  41        1.474080
  42        1.481189
  43        1.501809
  44        1.552857
  45        1.752779
  46        1.791635
  47        1.971318
  48        2.147833
  49        2.323038
  50        2.363905
  51        2.553891
  52        2.670279
  53        2.936320
  54        3.078032
  55        3.247016
  56        3.859464
  57        6.390933
  58        7.102187
  59        7.987836
  60        8.203152
  61        8.518625
  62        8.822296
  63        9.327961
  64        9.881683
  65       10.018709
  66       10.523526
  67       10.689794
  68       10.793649
  69       11.138678
  70       11.408613
  71       11.609047
  72       11.776921
  73       11.937386
  74       12.499909
  75       12.783055
  76       12.999704
  77       13.399524
  78       13.539975
  79       13.938453
  80       14.274962
 
  0.7372575E-17  0.2500000E+00  0.1387779E-16  0.2500000E-01
   1      -68.646617
   2      -68.640911
   3      -68.633159
   4      -68.628521
   5      -68.615215
   6      -68.609310
   7      -68.597702
   8      -68.591245
   9      -68.577336
  10      -68.573436
  11      -68.560643
  12      -68.555312
  13      -12.599913
  14      -11.136548
  15      -10.981789
  16      -10.676657
  17      -10.371929
  18      -10.279113
  19       -5.931047
  20       -4.775183
  21       -2.647390
  22       -2.253410
  23       -2.088529
  24       -1.691686
  25       -1.345444
  26       -0.998818
  27       -0.769083
  28       -0.619241
  29       -0.550492
  30       -0.435661
  31       -0.358736
  32       -0.241004
  33       -0.189283
  34       -0.166849
  35       -0.045934
  36        0.041325
  37        1.281053
  38        1.336780
  39        1.355424
  40        1.394780
  41        1.429006
  42        1.473280
  43        1.498779
  44        1.533029
  45        1.726424
  46        1.858250
  47        2.057964
  48        2.094306
  49        2.233017
  50        2.413894
  51        2.557695
  52        2.824530
  53        2.943350
  54        3.239610
  55        3.659659
  56        4.036590
  57        6.176919
  58        6.914257
  59        8.137917
  60        8.274711
  61        8.601107
  62        9.014607
  63        9.251183
  64        9.531355
  65        9.862014
  66       10.372041
  67       10.634727
  68       10.812415
  69       10.934280
  70       11.190234
  71       11.660488
  72       11.769081
  73       12.114665
  74       12.446400
  75       12.616618
  76       13.005506
  77       13.515104
  78       13.897851
  79       14.269051
  80       14.840069
 
  0.2500000E+00  0.2500000E+00  0.0000000E+00  0.2500000E-01
   1      -68.646640
   2      -68.640911
   3      -68.633063
   4      -68.628404
   5      -68.615351
   6      -68.609443
   7      -68.597578
   8      -68.591146
   9      -68.577453
  10      -68.573567
  11      -68.560662
  12      -68.555328
  13      -12.444559
  14      -11.199628
  15      -10.943912
  16      -10.876972
  17      -10.391787
  18      -10.356093
  19       -5.873920
  20       -4.522681
  21       -2.419555
  22       -2.248337
  23       -1.792735
  24       -1.684100
  25       -1.355419
  26       -1.299484
  27       -1.079062
  28       -0.682793
  29       -0.525590
  30       -0.294558
  31       -0.281159
  32       -0.221303
  33       -0.186217
  34       -0.122631
  35       -0.089376
  36        0.081967
  37        1.294592
  38        1.312867
  39        1.417230
  40        1.427765
  41        1.464669
  42        1.484383
  43        1.495813
  44        1.572100
  45        1.671892
  46        1.881272
  47        1.942317
  48        2.134860
  49        2.280039
  50        2.320134
  51        2.559101
  52        2.650286
  53        2.900001
  54        2.944261
  55        3.696376
  56        3.830660
  57        6.179319
  58        6.997379
  59        8.005472
  60        8.334609
  61        8.437469
  62        8.574195
  63        9.146539
  64        9.248919
  65       10.360920
  66       10.500075
  67       10.916854
  68       11.182853
  69       11.328269
  70       11.559396
  71       11.808246
  72       11.957025
  73       12.312959
  74       12.505538
  75       12.708739
  76       12.918272
  77       13.338259
  78       13.446323
  79       14.257181
  80       14.364746
 
  0.5000000E+00  0.2500000E+00 -0.2775558E-16  0.2500000E-01
   1      -68.646396
   2      -68.640713
   3      -68.633125
   4      -68.628490
   5      -68.615130
   6      -68.609214
   7      -68.597633
   8      -68.591197
   9      -68.577201
  10      -68.573415
  11      -68.560524
  12      -68.555172
  13      -12.444596
  14      -11.362367
  15      -10.938654
  16      -10.737096
  17      -10.394261
  18      -10.273719
  19       -5.946421
  20       -4.642814
  21       -2.392774
  22       -2.228344
  23       -2.060688
  24       -1.640942
  25       -1.365379
  26       -1.281709
  27       -1.022543
  28       -0.512633
  29       -0.483267
  30       -0.328518
  31       -0.280664
  32       -0.214065
  33       -0.149912
  34       -0.131978
  35       -0.004377
  36        0.116201
  37        1.248743
  38        1.315713
  39        1.385444
  40        1.439315
  41        1.464168
  42        1.492853
  43        1.498664
  44        1.550847
  45        1.749310
  46        1.829367
  47        1.924789
  48        2.135109
  49        2.221602
  50        2.387328
  51        2.561386
  52        2.788593
  53        2.978131
  54        3.310396
  55        3.597713
  56        3.747045
  57        6.093407
  58        6.945050
  59        7.614229
  60        8.068244
  61        8.416479
  62        8.619838
  63        8.986645
  64        9.152617
  65       10.086513
  66       10.334420
  67       10.732222
  68       11.110881
  69       11.462252
  70       11.590310
  71       11.799467
  72       12.081215
  73       12.476459
  74       12.912221
  75       13.033171
  76       13.832285
  77       14.219536
  78       14.655041
  79       15.434517
  80       15.643033
 
 -0.2500000E+00  0.2500000E+00  0.0000000E+00  0.2500000E-01
   1      -68.646630
   2      -68.640901
   3      -68.633140
   4      -68.628485
   5      -68.615150
   6      -68.609241
   7      -68.597673
   8      -68.591242
   9      -68.577278
  10      -68.573391
  11      -68.560645
  12      -68.555313
  13      -12.602634
  14      -11.260423
  15      -10.990973
  16      -10.569330
  17      -10.372762
  18      -10.181937
  19       -6.008790
  20       -4.895954
  21       -2.648137
  22       -2.316730
  23       -1.976182
  24       -1.647527
  25       -1.493000
  26       -1.186354
  27       -0.789264
  28       -0.583014
  29       -0.445088
  30       -0.332926
  31       -0.291542
  32       -0.229651
  33       -0.172397
  34       -0.128519
  35       -0.006989
  36        0.074218
  37        1.260542
  38        1.322772
  39        1.365955
  40        1.425193
  41        1.432332
  42        1.477576
  43        1.505874
  44        1.544042
  45        1.726525
  46        1.814498
  47        1.996056
  48        2.073357
  49        2.419445
  50        2.461142
  51        2.527420
  52        2.873589
  53        3.140410
  54        3.226916
  55        3.782092
  56        4.063885
  57        5.983692
  58        6.692242
  59        7.540641
  60        8.222605
  61        8.623766
  62        8.915092
  63        9.312804
  64        9.435320
  65        9.805547
  66       10.271852
  67       10.539798
  68       10.831752
  69       10.967685
  70       11.378203
  71       11.463988
  72       11.733771
  73       12.105959
  74       12.664638
  75       12.944407
  76       13.101979
  77       13.350690
  78       13.515647
  79       14.475990
  80       14.754947
 
  0.1474515E-16  0.5000000E+00  0.2775558E-16  0.1250000E-01
   1      -68.646497
   2      -68.640740
   3      -68.633087
   4      -68.628435
   5      -68.615161
   6      -68.609297
   7      -68.597616
   8      -68.591181
   9      -68.577327
  10      -68.573381
  11      -68.560474
  12      -68.555198
  13      -12.440618
  14      -11.256628
  15      -10.956998
  16      -10.765000
  17      -10.435002
  18      -10.357860
  19       -5.868538
  20       -4.549520
  21       -2.495531
  22       -2.247355
  23       -1.947119
  24       -1.463659
  25       -1.226180
  26       -1.102799
  27       -0.896680
  28       -0.863715
  29       -0.599542
  30       -0.534986
  31       -0.272659
  32       -0.204875
  33       -0.200786
  34       -0.141098
  35       -0.027569
  36        0.081911
  37        1.255643
  38        1.327852
  39        1.348366
  40        1.399919
  41        1.471594
  42        1.480057
  43        1.501775
  44        1.556592
  45        1.752338
  46        1.794613
  47        1.968831
  48        2.145543
  49        2.320978
  50        2.362866
  51        2.548228
  52        2.668431
  53        2.937986
  54        3.075636
  55        3.250603
  56        3.860338
  57        6.392090
  58        7.106601
  59        7.980844
  60        8.207281
  61        8.536319
  62        8.827681
  63        9.328213
  64        9.891345
  65       10.008309
  66       10.513517
  67       10.691461
  68       10.788582
  69       11.142886
  70       11.407000
  71       11.606751
  72       11.767015
  73       11.940196
  74       12.502209
  75       12.820034
  76       13.033386
  77       13.552884
  78       13.686095
  79       14.550101
  80       15.244212
 
  0.2500000E+00  0.5000000E+00 -0.2775558E-16  0.2500000E-01
   1      -68.646425
   2      -68.640696
   3      -68.633091
   4      -68.628481
   5      -68.615106
   6      -68.609255
   7      -68.597633
   8      -68.591217
   9      -68.577236
  10      -68.573379
  11      -68.560478
  12      -68.555214
  13      -12.444485
  14      -11.362362
  15      -10.938183
  16      -10.737662
  17      -10.395859
  18      -10.272302
  19       -5.946184
  20       -4.642839
  21       -2.393777
  22       -2.228465
  23       -2.061005
  24       -1.638314
  25       -1.362188
  26       -1.282362
  27       -1.022387
  28       -0.513008
  29       -0.483981
  30       -0.327347
  31       -0.281674
  32       -0.213086
  33       -0.148281
  34       -0.129998
  35       -0.009523
  36        0.114847
  37        1.247360
  38        1.318008
  39        1.383170
  40        1.438183
  41        1.463454
  42        1.492662
  43        1.498844
  44        1.552824
  45        1.748678
  46        1.830827
  47        1.922906
  48        2.134798
  49        2.222795
  50        2.384182
  51        2.558812
  52        2.789469
  53        2.977169
  54        3.310634
  55        3.600250
  56        3.747875
  57        6.094641
  58        6.947309
  59        7.613776
  60        8.071063
  61        8.416193
  62        8.621322
  63        8.981534
  64        9.154835
  65       10.087463
  66       10.335802
  67       10.731770
  68       11.105644
  69       11.456300
  70       11.572642
  71       11.786714
  72       12.034619
  73       12.526159
  74       12.680663
  75       12.911677
  76       13.205953
  77       14.228159
  78       14.767839
  79       15.247682
  80       15.908705
 
  0.5000000E+00  0.5000000E+00  0.0000000E+00  0.1250000E-01
   1      -68.646256
   2      -68.640515
   3      -68.632932
   4      -68.628294
   5      -68.615004
   6      -68.609135
   7      -68.597436
   8      -68.591012
   9      -68.577159
  10      -68.573269
  11      -68.560312
  12      -68.554980
  13      -12.436026
  14      -11.509575
  15      -10.913544
  16      -10.616712
  17      -10.405213
  18      -10.200205
  19       -6.025397
  20       -4.810428
  21       -2.311776
  22       -2.267512
  23       -2.097268
  24       -1.702763
  25       -1.248714
  26       -1.111831
  27       -0.841659
  28       -0.783685
  29       -0.726021
  30       -0.240945
  31       -0.196160
  32       -0.178485
  33       -0.151303
  34       -0.038445
  35        0.001519
  36        0.188157
  37        1.267734
  38        1.319333
  39        1.376315
  40        1.415565
  41        1.436429
  42        1.494386
  43        1.509231
  44        1.550948
  45        1.789478
  46        1.850735
  47        1.995790
  48        2.150604
  49        2.253642
  50        2.338205
  51        2.558862
  52        2.760192
  53        2.776318
  54        3.368100
  55        3.764395
  56        4.000077
  57        5.860027
  58        6.766596
  59        7.092737
  60        8.407399
  61        8.561355
  62        8.772056
  63        9.144881
  64        9.250529
  65        9.959084
  66       10.285210
  67       10.725426
  68       10.823743
  69       10.874655
  70       11.274451
  71       11.758561
  72       11.915278
  73       11.973389
  74       12.364430
  75       12.542507
  76       13.451428
  77       14.279588
  78       14.673358
  79       16.746134
  80       16.757525
 
 -0.2168404E-18 -0.2168404E-18  0.2000000E+00  0.2500000E-01
   1      -68.646665
   2      -68.640936
   3      -68.633168
   4      -68.628515
   5      -68.615245
   6      -68.609336
   7      -68.597697
   8      -68.591266
   9      -68.577363
  10      -68.573477
  11      -68.560680
  12      -68.555348
  13      -12.621678
  14      -11.430450
  15      -10.781624
  16      -10.608843
  17      -10.254098
  18      -10.239520
  19       -5.829378
  20       -5.049416
  21       -2.602700
  22       -2.373456
  23       -1.963291
  24       -1.777812
  25       -1.445317
  26       -1.124292
  27       -1.061514
  28       -0.771875
  29       -0.468651
  30       -0.290877
  31       -0.235489
  32       -0.232434
  33       -0.189247
  34       -0.144588
  35       -0.014386
  36        0.025713
  37        1.335210
  38        1.382707
  39        1.417656
  40        1.440936
  41        1.466378
  42        1.467677
  43        1.515922
  44        1.547741
  45        1.633414
  46        1.759856
  47        1.787045
  48        1.951382
  49        2.089790
  50        2.659294
  51        2.719509
  52        3.192979
  53        3.252218
  54        3.515408
  55        3.890253
  56        3.974307
  57        6.053661
  58        6.424335
  59        7.826456
  60        7.907013
  61        8.371999
  62        8.820568
  63        9.776399
  64        9.798439
  65       10.068928
  66       10.584094
  67       10.645638
  68       10.810418
  69       10.858657
  70       11.489956
  71       11.554544
  72       12.024943
  73       12.582256
  74       12.775093
  75       12.906145
  76       13.202917
  77       13.534685
  78       13.817948
  79       14.198807
  80       14.702205
 
  0.2500000E+00  0.1517883E-17  0.2000000E+00  0.2500000E-01
   1      -68.646603
   2      -68.640872
   3      -68.633153
   4      -68.628501
   5      -68.615283
   6      -68.609380
   7      -68.597658
   8      -68.591220
   9      -68.577378
  10      -68.573483
  11      -68.560611
  12      -68.555290
  13      -12.462830
  14      -11.471904
  15      -10.866180
  16      -10.691228
  17      -10.375518
  18      -10.249235
  19       -5.764960
  20       -4.805762
  21       -2.447014
  22       -2.235623
  23       -1.850962
  24       -1.714030
  25       -1.439550
  26       -1.186971
  27       -0.888347
  28       -0.744651
  29       -0.603969
  30       -0.522173
  31       -0.308421
  32       -0.241389
  33       -0.169393
  34       -0.122666
  35       -0.047910
  36        0.063140
  37        1.304448
  38        1.336416
  39        1.370677
  40        1.434966
  41        1.446930
  42        1.481510
  43        1.521694
  44        1.548854
  45        1.644241
  46        1.871596
  47        1.981975
  48        2.047823
  49        2.196593
  50        2.474681
  51        2.592664
  52        2.837182
  53        2.962894
  54        3.132010
  55        3.565642
  56        3.720972
  57        6.451198
  58        6.962538
  59        8.174170
  60        8.252452
  61        8.832864
  62        9.132099
  63        9.464060
  64        9.796594
  65       10.083239
  66       10.301622
  67       10.739256
  68       11.072193
  69       11.292210
  70       11.425711
  71       11.632802
  72       11.718721
  73       12.086338
  74       12.268155
  75       12.542675
  76       12.653757
  77       12.955108
  78       13.061069
  79       13.638441
  80       14.692379
 
  0.5000000E+00  0.9107298E-17  0.2000000E+00  0.2500000E-01
   1      -68.646399
   2      -68.640740
   3      -68.633053
   4      -68.628429
   5      -68.615153
   6      -68.609233
   7      -68.597582
   8      -68.591122
   9      -68.577244
  10      -68.573418
  11      -68.560549
  12      -68.555208
  13      -12.360583
  14      -11.419033
  15      -10.954454
  16      -10.686789
  17      -10.480164
  18      -10.338347
  19       -5.749906
  20       -4.722591
  21       -2.524620
  22       -2.185337
  23       -1.954371
  24       -1.536106
  25       -1.303981
  26       -1.101435
  27       -0.871034
  28       -0.756400
  29       -0.548516
  30       -0.444359
  31       -0.288339
  32       -0.177718
  33       -0.141751
  34       -0.105728
  35       -0.036520
  36        0.023870
  37        1.275391
  38        1.299469
  39        1.353106
  40        1.431341
  41        1.453764
  42        1.482672
  43        1.502905
  44        1.588504
  45        1.720617
  46        1.931696
  47        2.078628
  48        2.146226
  49        2.269095
  50        2.405314
  51        2.568075
  52        2.598836
  53        2.896672
  54        3.006687
  55        3.356300
  56        3.896961
  57        6.373860
  58        6.900028
  59        7.582008
  60        8.083031
  61        8.549392
  62        8.799442
  63        9.276284
  64        9.633578
  65        9.930265
  66       10.275439
  67       10.658603
  68       10.930595
  69       10.968861
  70       11.282283
  71       11.521681
  72       11.783902
  73       12.247833
  74       12.538407
  75       13.100090
  76       13.514684
  77       14.301198
  78       14.559828
  79       15.130564
  80       16.269388
 
 -0.2500000E+00 -0.4098284E-16  0.2000000E+00  0.2500000E-01
   1      -68.646655
   2      -68.640933
   3      -68.633144
   4      -68.628490
   5      -68.615257
   6      -68.609340
   7      -68.597683
   8      -68.591249
   9      -68.577373
  10      -68.573501
  11      -68.560679
  12      -68.555336
  13      -12.545370
  14      -11.342890
  15      -10.876073
  16      -10.606443
  17      -10.402257
  18      -10.286356
  19       -5.822726
  20       -4.976019
  21       -2.666833
  22       -2.454132
  23       -2.039586
  24       -1.580475
  25       -1.175125
  26       -0.983530
  27       -0.795468
  28       -0.651305
  29       -0.515651
  30       -0.386025
  31       -0.268234
  32       -0.251794
  33       -0.189220
  34       -0.141949
  35       -0.042983
  36        0.016448
  37        1.291827
  38        1.311920
  39        1.391838
  40        1.410061
  41        1.435497
  42        1.457106
  43        1.494638
  44        1.566339
  45        1.688470
  46        1.915565
  47        1.988397
  48        2.146700
  49        2.334295
  50        2.566952
  51        2.618002
  52        2.826657
  53        2.972413
  54        3.249097
  55        3.676970
  56        3.939969
  57        6.184572
  58        6.642448
  59        7.767861
  60        7.974953
  61        8.220785
  62        8.565801
  63        9.387716
  64        9.577612
  65        9.906787
  66       10.249078
  67       10.545935
  68       10.785246
  69       10.842663
  70       11.065788
  71       11.566103
  72       12.020465
  73       12.529934
  74       12.757442
  75       12.945023
  76       13.307039
  77       13.410258
  78       13.740026
  79       13.847750
  80       14.725993
 
  0.1517883E-17  0.2500000E+00  0.2000000E+00  0.2500000E-01
   1      -68.646601
   2      -68.640874
   3      -68.633153
   4      -68.628501
   5      -68.615290
   6      -68.609374
   7      -68.597651
   8      -68.591228
   9      -68.577368
  10      -68.573492
  11      -68.560623
  12      -68.555279
  13      -12.462656
  14      -11.472195
  15      -10.866386
  16      -10.690606
  17      -10.375917
  18      -10.249287
  19       -5.764918
  20       -4.805612
  21       -2.447426
  22       -2.235087
  23       -1.850069
  24       -1.714670
  25       -1.434101
  26       -1.188808
  27       -0.889850
  28       -0.744793
  29       -0.604659
  30       -0.522602
  31       -0.306806
  32       -0.239218
  33       -0.172281
  34       -0.120596
  35       -0.050785
  36        0.062107
  37        1.303018
  38        1.338806
  39        1.371483
  40        1.432034
  41        1.447448
  42        1.479815
  43        1.523184
  44        1.548071
  45        1.644512
  46        1.869965
  47        1.979124
  48        2.050299
  49        2.197073
  50        2.474335
  51        2.596275
  52        2.836841
  53        2.959122
  54        3.130921
  55        3.565923
  56        3.722952
  57        6.449890
  58        6.967366
  59        8.175389
  60        8.247381
  61        8.838921
  62        9.129406
  63        9.463830
  64        9.802125
  65       10.085811
  66       10.297188
  67       10.738040
  68       11.076941
  69       11.285759
  70       11.424711
  71       11.631602
  72       11.721884
  73       12.086491
  74       12.266218
  75       12.540766
  76       12.656280
  77       12.953651
  78       13.059718
  79       13.655085
  80       14.692729
 
  0.2500000E+00  0.2500000E+00  0.2000000E+00  0.2500000E-01
   1      -68.646511
   2      -68.640783
   3      -68.633005
   4      -68.628347
   5      -68.615126
   6      -68.609219
   7      -68.597531
   8      -68.591100
   9      -68.577246
  10      -68.573354
  11      -68.560530
  12      -68.555193
  13      -12.330835
  14      -11.481094
  15      -10.863872
  16      -10.860423
  17      -10.406566
  18      -10.292872
  19       -5.746070
  20       -4.691836
  21       -2.244616
  22       -2.140574
  23       -1.928528
  24       -1.851253
  25       -1.455339
  26       -1.394590
  27       -1.041403
  28       -0.519045
  29       -0.462471
  30       -0.348352
  31       -0.246187
  32       -0.214066
  33       -0.157875
  34       -0.110552
  35       -0.087062
  36        0.082335
  37        1.262928
  38        1.349363
  39        1.399874
  40        1.436539
  41        1.454770
  42        1.511719
  43        1.536598
  44        1.543500
  45        1.753824
  46        1.818499
  47        2.041848
  48        2.136463
  49        2.284663
  50        2.312745
  51        2.519468
  52        2.769249
  53        2.896074
  54        3.258776
  55        3.496058
  56        3.797406
  57        6.193256
  58        6.847904
  59        7.827788
  60        8.047682
  61        8.195687
  62        8.731789
  63        9.152828
  64        9.311107
  65       10.216937
  66       10.438035
  67       10.593068
  68       11.004631
  69       11.238119
  70       11.488813
  71       11.810419
  72       12.171655
  73       12.205749
  74       12.572009
  75       12.692222
  76       13.117327
  77       13.413404
  78       13.880428
  79       14.007192
  80       14.529097
 
  0.5000000E+00  0.2500000E+00  0.2000000E+00  0.2500000E-01
   1      -68.646376
   2      -68.640657
   3      -68.633074
   4      -68.628500
   5      -68.615111
   6      -68.609280
   7      -68.597611
   8      -68.591160
   9      -68.577211
  10      -68.573443
  11      -68.560472
  12      -68.555183
  13      -12.377181
  14      -11.480625
  15      -10.938858
  16      -10.653026
  17      -10.423547
  18      -10.307335
  19       -5.799453
  20       -4.836109
  21       -2.528366
  22       -2.245583
  23       -1.873203
  24       -1.645520
  25       -1.509188
  26       -1.308477
  27       -0.901445
  28       -0.533475
  29       -0.376177
  30       -0.348342
  31       -0.221367
  32       -0.176973
  33       -0.160406
  34       -0.075740
  35       -0.019623
  36        0.083735
  37        1.191026
  38        1.365699
  39        1.399571
  40        1.444150
  41        1.465136
  42        1.508110
  43        1.521060
  44        1.587712
  45        1.740626
  46        1.821030
  47        2.036142
  48        2.235878
  49        2.271423
  50        2.364558
  51        2.487183
  52        2.668909
  53        3.053187
  54        3.410215
  55        3.723222
  56        3.858685
  57        5.939439
  58        6.617359
  59        7.357502
  60        7.947485
  61        8.066776
  62        8.728640
  63        8.908448
  64        9.141233
  65        9.843310
  66       10.331383
  67       10.555360
  68       10.923459
  69       11.221755
  70       11.419810
  71       11.743419
  72       12.001983
  73       12.498482
  74       12.829747
  75       13.207333
  76       14.267102
  77       14.717734
  78       15.171195
  79       15.913799
  80       16.567908
 
 -0.2500000E+00  0.2500000E+00  0.2000000E+00  0.2500000E-01
   1      -68.646603
   2      -68.640839
   3      -68.633202
   4      -68.628540
   5      -68.615200