 vasp.5.3.3 18Dez12 (build Nov 13 2015 09:58:40) complex                        
  
 executed on             LinuxIFC date 2017.10.18  13:18:59
 running on   48 total cores
 distrk:  each k-point on   16 cores,    3 groups
 distr:  one band on NCORES_PER_BAND=   1 cores,   16 groups


--------------------------------------------------------------------------------------------------------


 INCAR:
 POTCAR:    PAW_PBE Cu_pv 06Sep2000               
 POTCAR:    PAW_PBE Ge 05Jan2001                  
 POTCAR:    PAW_PBE S 17Jan2003                   

 ----------------------------------------------------------------------------- 
|                                                                             |
|           W    W    AA    RRRRR   N    N  II  N    N   GGGG   !!!           |
|           W    W   A  A   R    R  NN   N  II  NN   N  G    G  !!!           |
|           W    W  A    A  R    R  N N  N  II  N N  N  G       !!!           |
|           W WW W  AAAAAA  RRRRR   N  N N  II  N  N N  G  GGG   !            |
|           WW  WW  A    A  R   R   N   NN  II  N   NN  G    G                |
|           W    W  A    A  R    R  N    N  II  N    N   GGGG   !!!           |
|                                                                             |
|      For optimal performance we recommend that you set                      |
|        NPAR = 4 - approx SQRT( number of cores)                             |
|      (number of cores/NPAR must be integer)                                 |
|      This setting will greatly improve the performance of VASP for DFT.     |
|      The default NPAR=number of cores might be grossly inefficient          |
|      on modern multi-core architectures or massively parallel machines.     |
|      Do your own testing.                                                   |
|      Unfortunately you need to use the default for hybrid, GW and RPA       |
|      calculations.                                                          |
|                                                                             |
 ----------------------------------------------------------------------------- 


 ----------------------------------------------------------------------------- 
|                                                                             |
|           W    W    AA    RRRRR   N    N  II  N    N   GGGG   !!!           |
|           W    W   A  A   R    R  NN   N  II  NN   N  G    G  !!!           |
|           W    W  A    A  R    R  N N  N  II  N N  N  G       !!!           |
|           W WW W  AAAAAA  RRRRR   N  N N  II  N  N N  G  GGG   !            |
|           WW  WW  A    A  R   R   N   NN  II  N   NN  G    G                |
|           W    W  A    A  R    R  N    N  II  N    N   GGGG   !!!           |
|                                                                             |
|      You have enabled k-point parallelism (KPAR>1).                         |
|      This developmental code was originally  written by Paul Kent at ORNL,  |
|      and carefully double checked in Vienna.                                |
|      GW as well as linear response parallelism added by Martijn Marsman     |
|      and Georg Kresse.                                                      |
|      Carefully verify results versus KPAR=1.                                |
|      Report problems to Paul Kent and Vienna.                               |
|                                                                             |
 ----------------------------------------------------------------------------- 

 POTCAR:    PAW_PBE Cu_pv 06Sep2000               
   VRHFIN =Cu: d10 p1                                                           
   LEXCH  = PE                                                                  
   EATOM  =  4120.1201 eV,  302.8203 Ry                                         
                                                                                
   TITEL  = PAW_PBE Cu_pv 06Sep2000                                             
   LULTRA =        F    use ultrasoft PP ?                                      
   IUNSCR =        1    unscreen: 0-lin 1-nonlin 2-no                           
   RPACOR =    1.500    partial core radius                                     
   POMASS =   63.546; ZVAL   =   17.000    mass and valenz                      
   RCORE  =    2.000    outmost cutoff radius                                   
   RWIGS  =    2.000; RWIGS  =    1.058    wigner-seitz radius (au A)           
   ENMAX  =  368.648; ENMIN  =  276.486 eV                                      
   RCLOC  =    1.304    cutoff for local pot                                    
   LCOR   =        T    correct aug charges                                     
   LPAW   =        T    paw PP                                                  
   EAUG   =  758.233                                                            
   DEXC   =    0.000                                                            
   RMAX   =    2.046    core radius for proj-oper                               
   RAUG   =    1.300    factor for augmentation sphere                          
   RDEP   =    2.025    radius for radial grids                                 
   RDEPT  =    1.558    core radius for aug-charge                              
                                                                                
   Atomic configuration                                                         
    8 entries                                                                   
     n  l   j            E        occ.                                          
     1  0  0.50     -8850.2467   2.0000                                         
     2  0  0.50     -1062.3498   2.0000                                         
     2  1  1.50      -916.8226   6.0000                                         
     3  0  0.50      -114.6929   2.0000                                         
     3  1  1.50       -72.1325   6.0000                                         
     3  2  2.50        -5.0394  10.0000                                         
     4  0  0.50        -4.6097   1.0000                                         
     4  3  2.50        -1.3606   0.0000                                         
   Description                                                                  
     l       E           TYP  RCUT    TYP  RCUT                                 
     1    -72.1324777     23  1.700                                             
     1     -1.3605826     23  1.700                                             
     2     -5.0393776     23  2.000                                             
     2     -6.3999602     23  2.000                                             
     0     -4.6097062     23  1.800                                             
     0     14.1620818     23  1.800                                             
  local pseudopotential read in
  partial core-charges read in
  partial kinetic energy density read in
  atomic valenz-charges read in
  non local Contribution for L=           1  read in
    real space projection operators read in
  non local Contribution for L=           1  read in
    real space projection operators read in
  non local Contribution for L=           2  read in
    real space projection operators read in
  non local Contribution for L=           2  read in
    real space projection operators read in
  non local Contribution for L=           0  read in
    real space projection operators read in
  non local Contribution for L=           0  read in
    real space projection operators read in
    PAW grid and wavefunctions read in
 
   number of l-projection  operators is LMAX  =           6
   number of lm-projection operators is LMMAX =          18
 
 POTCAR:    PAW_PBE Ge 05Jan2001                  
   VRHFIN =Ge: s2p2                                                             
   LEXCH  = PE                                                                  
   EATOM  =   104.9960 eV,    7.7170 Ry                                         
                                                                                
   TITEL  = PAW_PBE Ge 05Jan2001                                                
   LULTRA =        F    use ultrasoft PP ?                                      
   IUNSCR =        1    unscreen: 0-lin 1-nonlin 2-no                           
   RPACOR =    2.170    partial core radius                                     
   POMASS =   72.610; ZVAL   =    4.000    mass and valenz                      
   RCORE  =    2.300    outmost cutoff radius                                   
   RWIGS  =    2.300; RWIGS  =    1.217    wigner-seitz radius (au A)           
   ENMAX  =  173.807; ENMIN  =  130.355 eV                                      
   ICORE  =        3    local potential                                         
   LCOR   =        T    correct aug charges                                     
   LPAW   =        T    paw PP                                                  
   EAUG   =  385.843                                                            
   DEXC   =    0.000                                                            
   RMAX   =    2.342    core radius for proj-oper                               
   RAUG   =    1.300    factor for augmentation sphere                          
   RDEP   =    2.318    radius for radial grids                                 
   RDEPT  =    2.103    core radius for aug-charge                              
                                                                                
   Atomic configuration                                                         
   10 entries                                                                   
     n  l   j            E        occ.                                          
     1  0  0.50    -10959.8463   2.0000                                         
     2  0  0.50     -1371.6056   2.0000                                         
     2  1  1.50     -1198.4791   6.0000                                         
     3  0  0.50      -168.4733   2.0000                                         
     3  1  1.50      -115.6019   6.0000                                         
     3  2  2.50       -29.3106  10.0000                                         
     4  0  0.50       -11.7309   2.0000                                         
     4  1  0.50        -3.8952   2.0000                                         
     4  2  1.50        -4.0817   0.0000                                         
     4  3  2.50        -4.0817   0.0000                                         
   Description                                                                  
     l       E           TYP  RCUT    TYP  RCUT                                 
     0    -11.7309493     23  2.300                                             
     0     -7.4578696     23  2.300                                             
     1     -3.8952261     23  2.300                                             
     1      6.1178114     23  2.300                                             
     2     -4.0817478     23  2.300                                             
     3     -1.3605826      7  2.300                                             
  local pseudopotential read in
  partial core-charges read in
  partial kinetic energy density read in
  atomic valenz-charges read in
  non local Contribution for L=           0  read in
    real space projection operators read in
  non local Contribution for L=           0  read in
    real space projection operators read in
  non local Contribution for L=           1  read in
    real space projection operators read in
  non local Contribution for L=           1  read in
    real space projection operators read in
  non local Contribution for L=           2  read in
    real space projection operators read in
    PAW grid and wavefunctions read in
 
   number of l-projection  operators is LMAX  =           5
   number of lm-projection operators is LMMAX =          13
 
 POTCAR:    PAW_PBE S 17Jan2003                   
   VRHFIN =S : s2p4                                                             
   LEXCH  = PE                                                                  
   EATOM  =   276.8230 eV,   20.3459 Ry                                         
                                                                                
   TITEL  = PAW_PBE S 17Jan2003                                                 
   LULTRA =        F    use ultrasoft PP ?                                      
   IUNSCR =        1    unscreen: 0-lin 1-nonlin 2-no                           
   RPACOR =    1.500    partial core radius                                     
   POMASS =   32.066; ZVAL   =    6.000    mass and valenz                      
   RCORE  =    1.900    outmost cutoff radius                                   
   RWIGS  =    2.200; RWIGS  =    1.164    wigner-seitz radius (au A)           
   ENMAX  =  280.000; ENMIN  =  194.016 eV                                      
   ICORE  =        2    local potential                                         
   LCOR   =        T    correct aug charges                                     
   LPAW   =        T    paw PP                                                  
   EAUG   =  335.092                                                            
   DEXC   =     .000                                                            
   RMAX   =    2.867    core radius for proj-oper                               
   RAUG   =    1.300    factor for augmentation sphere                          
   RDEP   =    1.954    radius for radial grids                                 
   QCUT   =   -4.360; QGAM   =    8.721    optimization parameters              
                                                                                
   Description                                                                  
     l     E      TYP  RCUT    TYP  RCUT                                        
     0   .000     23  1.900                                                     
     0   .000     23  1.900                                                     
     1   .000     23  1.900                                                     
     1   .000     23  1.900                                                     
     2   .000     23  1.900                                                     
  local pseudopotential read in
  partial core-charges read in
  atomic valenz-charges read in
  non local Contribution for L=           0  read in
    real space projection operators read in
  non local Contribution for L=           0  read in
    real space projection operators read in
  non local Contribution for L=           1  read in
    real space projection operators read in
  non local Contribution for L=           1  read in
    real space projection operators read in
    PAW grid and wavefunctions read in
 
   number of l-projection  operators is LMAX  =           4
   number of lm-projection operators is LMMAX =           8
 
  PAW_PBE Cu_pv 06Sep2000               :
 energy of atom  1       EATOM=-4120.1201
 kinetic energy error for atom=    0.0996 (will be added to EATOM!!)
  PAW_PBE Ge 05Jan2001                  :
 energy of atom  2       EATOM= -104.9960
 kinetic energy error for atom=    0.0003 (will be added to EATOM!!)
  PAW_PBE S 17Jan2003                   :
 energy of atom  3       EATOM= -276.8230
 kinetic energy error for atom=    0.0046 (will be added to EATOM!!)
 
 
 POSCAR: Cu Ge S                                 
  positions in direct lattice
  No initial velocities read in
 exchange correlation table for  LEXCH =        8
   RHO(1)=    0.500       N(1)  =     2000
   RHO(2)=  100.500       N(2)  =     4000
 


--------------------------------------------------------------------------------------------------------


 ion  position               nearest neighbor table
   1  0.618  0.121  0.120-   9 2.29  11 2.29  12 2.30   8 2.35
   2  0.121  0.618  0.620-  12 2.29   7 2.29   9 2.31  10 2.35
   3  0.963  0.790  0.119-  11 2.30  12 2.30   7 2.31   8 2.36
   4  0.790  0.963  0.619-   7 2.30   9 2.30  11 2.31  10 2.36
   5  0.440  0.267  0.599-   9 2.18   7 2.19  10 2.31   8 2.33
   6  0.267  0.440  0.099-  11 2.19  12 2.19   8 2.31  10 2.33
   7  0.079  0.912  0.497-   5 2.19   2 2.29   4 2.30   3 2.31
   8  0.571  0.412  0.980-   6 2.31   5 2.33   1 2.35   3 2.36
   9  0.736  0.250  0.495-   5 2.18   1 2.29   4 2.30   2 2.31
  10  0.412  0.571  0.480-   5 2.31   6 2.33   2 2.35   4 2.36
  11  0.912  0.079  0.997-   6 2.19   1 2.29   3 2.30   4 2.31
  12  0.250  0.737  0.995-   6 2.19   2 2.29   3 2.30   1 2.30
 
  Warning from LATTYP: Got some problem with cell dimensions!
  Tried to take original basis but could not verify dimensions!
  LATTYP: Found a base centered monoclinic cell.
 ALAT       =     6.4499010947
 B/A-ratio  =     1.7500516418
 C/A-ratio  =     1.9305142024
 COS(beta)  =    -0.4326083233
  
  Lattice vectors:
  
 A1 = (   3.2247960000,   5.6438300000,   0.0315720000)
 A2 = (   3.2247960000,  -5.6438300000,   0.0315720000)
 A3 = ( -10.7972380000,   0.0000000000,  -6.2018250000)


Analysis of symmetry for initial positions (statically):
=====================================================================
 Subroutine PRICEL returns:
 Original cell was already a primitive cell.
 

 Routine SETGRP: Setting up the symmetry group for a 
 base centered monoclinic supercell.


 Subroutine GETGRP returns: Found  1 space group operations
 (whereof  1 operations were pure point group operations)
 out of a pool of  4 trial point group operations.


The static configuration has the point symmetry C_1 .


Analysis of symmetry for dynamics (positions and initial velocities):
=====================================================================
 Subroutine PRICEL returns:
 Original cell was already a primitive cell.
 

 Routine SETGRP: Setting up the symmetry group for a 
 base centered monoclinic supercell.


 Subroutine GETGRP returns: Found  1 space group operations
 (whereof  1 operations were pure point group operations)
 out of a pool of  4 trial point group operations.


The dynamic configuration has the point symmetry C_1 .


 irot  :   1
 --------------------------------------------------------------------
 isymop:   1   0   0
           0   1   0
           0   0   1

 gtrans:     0.0000000     0.0000000     0.0000000

 ptrans:     0.0000000     0.0000000     0.0000000
 rotmap:
 (   1->   1)  (   2->   2)  (   3->   3)  (   4->   4)  (   5->   5) 
 (   6->   6)  (   7->   7)  (   8->   8)  (   9->   9)  (  10->  10) 
 (  11->  11)  (  12->  12) 
 
 
 KPOINTS: pymatgen 4.7.6+ generated KPOINTS with g

Automatic generation of k-mesh.
Space group operators:
 irot       det(A)        alpha          n_x          n_y          n_z        tau_x        tau_y        tau_z
    1     1.000000     0.000000     1.000000     0.000000     0.000000     0.000000     0.000000     0.000000
 
 Subroutine IBZKPT returns following result:
 ===========================================
 
 Found     42 irreducible k-points:
 
 Following reciprocal coordinates:
            Coordinates               Weight
  0.000000  0.000000  0.000000      1.000000
  0.250000  0.000000  0.000000      2.000000
  0.500000  0.000000  0.000000      1.000000
  0.000000  0.250000  0.000000      2.000000
  0.250000  0.250000  0.000000      2.000000
  0.500000  0.250000 -0.000000      2.000000
 -0.250000  0.250000  0.000000      2.000000
  0.000000  0.500000  0.000000      1.000000
  0.250000  0.500000 -0.000000      2.000000
  0.500000  0.500000  0.000000      1.000000
 -0.000000 -0.000000  0.200000      2.000000
  0.250000  0.000000  0.200000      2.000000
  0.500000  0.000000  0.200000      2.000000
 -0.250000 -0.000000  0.200000      2.000000
  0.000000  0.250000  0.200000      2.000000
  0.250000  0.250000  0.200000      2.000000
  0.500000  0.250000  0.200000      2.000000
 -0.250000  0.250000  0.200000      2.000000
  0.000000  0.500000  0.200000      2.000000
  0.250000  0.500000  0.200000      2.000000
  0.500000  0.500000  0.200000      2.000000
 -0.250000  0.500000  0.200000      2.000000
 -0.000000 -0.250000  0.200000      2.000000
  0.250000 -0.250000  0.200000      2.000000
  0.500000 -0.250000  0.200000      2.000000
 -0.250000 -0.250000  0.200000      2.000000
 -0.000000 -0.000000  0.400000      2.000000
  0.250000  0.000000  0.400000      2.000000
  0.500000  0.000000  0.400000      2.000000
 -0.250000  0.000000  0.400000      2.000000
  0.000000  0.250000  0.400000      2.000000
  0.250000  0.250000  0.400000      2.000000
  0.500000  0.250000  0.400000      2.000000
 -0.250000  0.250000  0.400000      2.000000
  0.000000  0.500000  0.400000      2.000000
  0.250000  0.500000  0.400000      2.000000
  0.500000  0.500000  0.400000      2.000000
 -0.250000  0.500000  0.400000      2.000000
  0.000000 -0.250000  0.400000      2.000000
  0.250000 -0.250000  0.400000      2.000000
  0.500000 -0.250000  0.400000      2.000000
 -0.250000 -0.250000  0.400000      2.000000
 
 Following cartesian coordinates:
            Coordinates               Weight
  0.000000  0.000000  0.000000      1.000000
  0.038631 -0.022148  0.013365      2.000000
  0.077263 -0.044296  0.026730      1.000000
  0.038631  0.022148  0.013365      2.000000
  0.077263  0.000000  0.026730      2.000000
  0.115894 -0.022148  0.040096      2.000000
  0.000000  0.044296  0.000000      2.000000
  0.077263  0.044296  0.026730      1.000000
  0.115894  0.022148  0.040096      2.000000
  0.154525  0.000000  0.053461      1.000000
 -0.000321  0.000000  0.032808      2.000000
  0.038310 -0.022148  0.046173      2.000000
  0.076941 -0.044296  0.059538      2.000000
 -0.038952  0.022148  0.019443      2.000000
  0.038310  0.022148  0.046173      2.000000
  0.076941  0.000000  0.059538      2.000000
  0.115573 -0.022148  0.072903      2.000000
 -0.000321  0.044296  0.032808      2.000000
  0.076941  0.044296  0.059538      2.000000
  0.115573  0.022148  0.072903      2.000000
  0.154204  0.000000  0.086269      2.000000
  0.038310  0.066444  0.046173      2.000000
 -0.038952 -0.022148  0.019443      2.000000
 -0.000321 -0.044296  0.032808      2.000000
  0.038310 -0.066444  0.046173      2.000000
 -0.077584  0.000000  0.006077      2.000000
 -0.000642  0.000000  0.065616      2.000000
  0.037989 -0.022148  0.078981      2.000000
  0.076620 -0.044296  0.092346      2.000000
 -0.039274  0.022148  0.052250      2.000000
  0.037989  0.022148  0.078981      2.000000
  0.076620  0.000000  0.092346      2.000000
  0.115251 -0.022148  0.105711      2.000000
 -0.000642  0.044296  0.065616      2.000000
  0.076620  0.044296  0.092346      2.000000
  0.115251  0.022148  0.105711      2.000000
  0.153883  0.000000  0.119076      2.000000
  0.037989  0.066444  0.078981      2.000000
 -0.039274 -0.022148  0.052250      2.000000
 -0.000642 -0.044296  0.065616      2.000000
  0.037989 -0.066444  0.078981      2.000000
 -0.077905  0.000000  0.038885      2.000000
 
 
 Subroutine IBZKPT_HF returns following result:
 ==============================================
 
 Found     80 k-points in 1st BZ
 the following     80 k-points will be used (e.g. in the exchange kernel)
 Following reciprocal coordinates:   # in IRBZ
  0.000000  0.000000  0.000000       1 t-inv F
  0.250000  0.000000  0.000000       2 t-inv F
  0.500000  0.000000  0.000000       3 t-inv F
  0.000000  0.250000  0.000000       4 t-inv F
  0.250000  0.250000  0.000000       5 t-inv F
  0.500000  0.250000 -0.000000       6 t-inv F
 -0.250000  0.250000  0.000000       7 t-inv F
  0.000000  0.500000  0.000000       8 t-inv F
  0.250000  0.500000 -0.000000       9 t-inv F
  0.500000  0.500000  0.000000      10 t-inv F
 -0.000000 -0.000000  0.200000      11 t-inv F
  0.250000  0.000000  0.200000      12 t-inv F
  0.500000  0.000000  0.200000      13 t-inv F
 -0.250000 -0.000000  0.200000      14 t-inv F
  0.000000  0.250000  0.200000      15 t-inv F
  0.250000  0.250000  0.200000      16 t-inv F
  0.500000  0.250000  0.200000      17 t-inv F
 -0.250000  0.250000  0.200000      18 t-inv F
  0.000000  0.500000  0.200000      19 t-inv F
  0.250000  0.500000  0.200000      20 t-inv F
  0.500000  0.500000  0.200000      21 t-inv F
 -0.250000  0.500000  0.200000      22 t-inv F
 -0.000000 -0.250000  0.200000      23 t-inv F
  0.250000 -0.250000  0.200000      24 t-inv F
  0.500000 -0.250000  0.200000      25 t-inv F
 -0.250000 -0.250000  0.200000      26 t-inv F
 -0.000000 -0.000000  0.400000      27 t-inv F
  0.250000  0.000000  0.400000      28 t-inv F
  0.500000  0.000000  0.400000      29 t-inv F
 -0.250000  0.000000  0.400000      30 t-inv F
  0.000000  0.250000  0.400000      31 t-inv F
  0.250000  0.250000  0.400000      32 t-inv F
  0.500000  0.250000  0.400000      33 t-inv F
 -0.250000  0.250000  0.400000      34 t-inv F
  0.000000  0.500000  0.400000      35 t-inv F
  0.250000  0.500000  0.400000      36 t-inv F
  0.500000  0.500000  0.400000      37 t-inv F
 -0.250000  0.500000  0.400000      38 t-inv F
  0.000000 -0.250000  0.400000      39 t-inv F
  0.250000 -0.250000  0.400000      40 t-inv F
  0.500000 -0.250000  0.400000      41 t-inv F
 -0.250000 -0.250000  0.400000      42 t-inv F
 -0.250000 -0.000000 -0.000000       2 t-inv T
 -0.000000 -0.250000 -0.000000       4 t-inv T
 -0.250000 -0.250000  0.000000       5 t-inv T
 -0.500000 -0.250000  0.000000       6 t-inv T
  0.250000 -0.250000  0.000000       7 t-inv T
 -0.250000 -0.500000  0.000000       9 t-inv T
  0.000000  0.000000 -0.200000      11 t-inv T
 -0.250000 -0.000000 -0.200000      12 t-inv T
 -0.500000 -0.000000 -0.200000      13 t-inv T
  0.250000  0.000000 -0.200000      14 t-inv T
 -0.000000 -0.250000 -0.200000      15 t-inv T
 -0.250000 -0.250000 -0.200000      16 t-inv T
 -0.500000 -0.250000 -0.200000      17 t-inv T
  0.250000 -0.250000 -0.200000      18 t-inv T
 -0.000000 -0.500000 -0.200000      19 t-inv T
 -0.250000 -0.500000 -0.200000      20 t-inv T
 -0.500000 -0.500000 -0.200000      21 t-inv T
  0.250000 -0.500000 -0.200000      22 t-inv T
  0.000000  0.250000 -0.200000      23 t-inv T
 -0.250000  0.250000 -0.200000      24 t-inv T
 -0.500000  0.250000 -0.200000      25 t-inv T
  0.250000  0.250000 -0.200000      26 t-inv T
  0.000000  0.000000 -0.400000      27 t-inv T
 -0.250000 -0.000000 -0.400000      28 t-inv T
 -0.500000 -0.000000 -0.400000      29 t-inv T
  0.250000 -0.000000 -0.400000      30 t-inv T
 -0.000000 -0.250000 -0.400000      31 t-inv T
 -0.250000 -0.250000 -0.400000      32 t-inv T
 -0.500000 -0.250000 -0.400000      33 t-inv T
  0.250000 -0.250000 -0.400000      34 t-inv T
 -0.000000 -0.500000 -0.400000      35 t-inv T
 -0.250000 -0.500000 -0.400000      36 t-inv T
 -0.500000 -0.500000 -0.400000      37 t-inv T
  0.250000 -0.500000 -0.400000      38 t-inv T
 -0.000000  0.250000 -0.400000      39 t-inv T
 -0.250000  0.250000 -0.400000      40 t-inv T
 -0.500000  0.250000 -0.400000      41 t-inv T
  0.250000  0.250000 -0.400000      42 t-inv T


--------------------------------------------------------------------------------------------------------




 Dimension of arrays:
   k-points           NKPTS =     42   k-points in BZ     NKDIM =     80   number of bands    NBANDS=     80
   number of dos      NEDOS =    301   number of ions     NIONS =     12
   non local maximal  LDIM  =      6   non local SUM 2l+1 LMDIM =     18
   total plane-waves  NPLWV =  32768
   max r-space proj   IRMAX =      1   max aug-charges    IRDMAX=   8224
   dimension x,y,z NGX =    32 NGY =   32 NGZ =   32
   dimension x,y,z NGXF=    64 NGYF=   64 NGZF=   64
   support grid    NGXF=    64 NGYF=   64 NGZF=   64
   ions per type =               4   2   6
 NGX,Y,Z   is equivalent  to a cutoff of   8.18,  8.18,  8.27 a.u.
 NGXF,Y,Z  is equivalent  to a cutoff of  16.37, 16.37, 16.55 a.u.


 I would recommend the setting:
   dimension x,y,z NGX =    32 NGY =   32 NGZ =   31
 SYSTEM =  CGS                                     
 POSCAR =  Cu Ge S                                 

 Startparameter for this run:
   NWRITE =      2    write-flag & timer
   PREC   = normal    normal or accurate (medium, high low for compatibility)
   ISTART =      1    job   : 0-new  1-cont  2-samecut
   ICHARG =      0    charge: 1-file 2-atom 10-const
   ISPIN  =      1    spin polarized calculation?
   LNONCOLLINEAR =      F non collinear calculations
   LSORBIT =      F    spin-orbit coupling
   INIWAV =      1    electr: 0-lowe 1-rand  2-diag
   LASPH  =      F    aspherical Exc in radial PAW
   METAGGA=      F    non-selfconsistent MetaGGA calc.

 Electronic Relaxation 1
   ENCUT  =  400.0 eV  29.40 Ry    5.42 a.u.  10.60 10.60 10.48*2*pi/ulx,y,z
   ENINI  =  400.0     initial cutoff
   ENAUG  =  758.2 eV  augmentation charge cutoff
   NELM   =     60;   NELMIN=  2; NELMDL=  0     # of ELM steps 
   EDIFF  = 0.1E-04   stopping-criterion for ELM
   LREAL  =      F    real-space projection
   NLSPLINE    = F    spline interpolate recip. space projectors
   LCOMPAT=      F    compatible to vasp.4.4
   GGA_COMPAT  = T    GGA compatible to vasp.4.4-vasp.4.6
   LMAXPAW     = -100 max onsite density
   LMAXMIX     =    2 max onsite mixed and CHGCAR
   VOSKOWN=      0    Vosko Wilk Nusair interpolation
   ROPT   =    0.00000   0.00000   0.00000
 Ionic relaxation
   EDIFFG = 0.1E-03   stopping-criterion for IOM
   NSW    =      0    number of steps for IOM
   NBLOCK =      1;   KBLOCK =      1    inner block; outer block 
   IBRION =     -1    ionic relax: 0-MD 1-quasi-New 2-CG
   NFREE  =      0    steps in history (QN), initial steepest desc. (CG)
   ISIF   =      0    stress and relaxation
   IWAVPR =     10    prediction:  0-non 1-charg 2-wave 3-comb
   ISYM   =      3    0-nonsym 1-usesym 2-fastsym
   LCORR  =      T    Harris-Foulkes like correction to forces

   POTIM  = 0.5000    time-step for ionic-motion
   TEIN   =    0.0    initial temperature
   TEBEG  =    0.0;   TEEND  =   0.0 temperature during run
   SMASS  =  -3.00    Nose mass-parameter (am)
   estimated Nose-frequenzy (Omega)   =  0.10E-29 period in steps =****** mass=  -0.966E-27a.u.
   SCALEE = 1.0000    scale energy and forces
   NPACO  =    256;   APACO  = 16.0  distance and # of slots for P.C.
   PSTRESS=    0.0 pullay stress

  Mass of Ions in am
   POMASS =  63.55 72.61 32.07
  Ionic Valenz
   ZVAL   =  17.00  4.00  6.00
  Atomic Wigner-Seitz radii
   RWIGS  =  -1.00 -1.00 -1.00
  virtual crystal weights 
   VCA    =   1.00  1.00  1.00
   NELECT =     112.0000    total number of electrons
   NUPDOWN=      -1.0000    fix difference up-down

 DOS related values:
   EMIN   =  10.00;   EMAX   =-10.00  energy-range for DOS
   EFERMI =   0.00
   ISMEAR =     1;   SIGMA  =   0.10  broadening in eV -4-tet -1-fermi 0-gaus

 Electronic relaxation 2 (details)
   IALGO  =     53    algorithm
   LDIAG  =      T    sub-space diagonalisation (order eigenvalues)
   LSUBROT=      T    optimize rotation matrix (better conditioning)
   TURBO    =      0    0=normal 1=particle mesh
   IRESTART =      0    0=no restart 2=restart with 2 vectors
   NREBOOT  =      0    no. of reboots
   NMIN     =      0    reboot dimension
   EREF     =   0.00    reference energy to select bands
   IMIX   =      4    mixing-type and parameters
     AMIX     =   0.40;   BMIX     =  1.00
     AMIX_MAG =   1.60;   BMIX_MAG =  1.00
     AMIN     =   0.10
     WC   =   100.;   INIMIX=   1;  MIXPRE=   1;  MAXMIX= -45

 Intra band minimization:
   WEIMIN = 0.0000     energy-eigenvalue tresh-hold
   EBREAK =  0.31E-07  absolut break condition
   DEPER  =   0.30     relativ break condition  

   TIME   =   0.40     timestep for ELM

  volume/ion in A,a.u.               =      18.49       124.79
  Fermi-wavevector in a.u.,A,eV,Ry     =   1.303450  2.463163 23.116052  1.698982
  Thomas-Fermi vector in A             =   2.434451
 
 Write flags
   LWAVE  =      T    write WAVECAR
   LCHARG =      T    write CHGCAR
   LVTOT  =      F    write LOCPOT, total local potential
   LVHAR  =      F    write LOCPOT, Hartree potential only
   LELF   =      F    write electronic localiz. function (ELF)
   LORBIT =      0    0 simple, 1 ext, 2 COOP (PROOUT)


 Dipole corrections
   LMONO  =      F    monopole corrections only (constant potential shift)
   LDIPOL =      F    correct potential (dipole corrections)
   IDIPOL =      0    1-x, 2-y, 3-z, 4-all directions 
   EPSILON=  1.0000000 bulk dielectric constant

 Exchange correlation treatment:
   GGA     =    PE    GGA type
   LEXCH   =     8    internal setting for exchange type
   VOSKOWN=      0    Vosko Wilk Nusair interpolation
   EXXOEP  =     0    0=HF, 1=EXX-LHF (local Hartree Fock) 2=EXX OEP
   LHFCALC =     T    Hartree Fock is set to
   LSYMGRAD=     F    symmetrize gradient (conserves proper symmetry)
   PRECFOCK=fast      Normal, Fast or Accurate (Low or Medium for compatibility)
   LRHFCALC=     F    long range Hartree Fock
   LRSCOR  =     F    long range correlation only (use DFT for short range part)
   LTHOMAS =     F    Thomas Fermi screening in HF
   LMODELHF=     F    short range full HF, long range fraction AEXX
   ENCUT4O =  -1.0   cutoff for four orbital integrals eV
   LMAXFOCK=     4    L truncation for augmentation on plane wave grid
   LMAXFOCKAE=  -1    L truncation for all-electron charge restoration on plane wave grid
   NMAXFOCKAE=   1    number of basis functions for all-electron charge restoration
   LFOCKAEDFT=     F  apply the AE augmentation even for DFT
   NKREDX  =     1    reduce k-point grid by
   NKREDY  =     1    reduce k-point grid by
   NKREDZ  =     1    reduce k-point grid by
   SHIFTRED=     F    shift reduced grid of Gamma
   HFKIDENT=     F    idential grid for each k-point
   ODDONLY =     F    use only odd q-grid points
   EVENONLY=     F    use only even q-grid points
   HFALPHA =   -1.0000 decay constant for conv. correction
   MCALPHA =    0.0000 extent of test-charge in conv. correction in multipole expansion
   AEXX    =    0.2500 exact exchange contribution
   HFSCREEN=    0.2000 screening length (either q_TF or 0.3 A-1)
   HFSCREENC=   0.2000 screening length for correlation (either q_TF or 0.3 A-1)
   HFRCUT  =    0.0000 spherical cutoff for potential kernel
   ALDAX   =    0.7500 LDA exchange part
   AGGAX   =    0.7500 GGA exchange part
   ALDAC   =    1.0000 LDA correlation
   AGGAC   =    1.0000 GGA correlation
   NBANDSGWLOW=     1    first orbital included in HF term
 Linear response parameters
   LEPSILON=     F    determine dielectric tensor
   LRPA    =     F    only Hartree local field effects (RPA)
   LNABLA  =     F    use nabla operator in PAW spheres
   LVEL    =     F    velocity operator in full k-point grid
   LINTERFAST=   F  fast interpolation
   KINTER  =     0    interpolate to denser k-point grid
   CSHIFT  =0.1000    complex shift for real part using Kramers Kronig
   OMEGAMAX=  -1.0    maximum frequency
   DEG_THRESHOLD= 0.2000000E-02 threshold for treating states as degnerate
   RTIME   =    0.100 relaxation time in fs

 Orbital magnetization related:
   ORBITALMAG=     F  switch on orbital magnetization
   LCHIMAG   =     F  perturbation theory with respect to B field
   DQ        =  0.001000  dq finite difference perturbation B field



--------------------------------------------------------------------------------------------------------


 Static calculation
 charge density and potential will be updated during run
 non-spin polarized calculation
 Conjugate gradient for all bands, subspace preconditioning
 perform sub-space diagonalisation
    before iterative eigenvector-optimisation
 modified Broyden-mixing scheme, WC =      100.0
 initial mixing is a Kerker type mixing with AMIX =  0.4000 and BMIX =      1.0000
 Hartree-type preconditioning will be used
 using additional bands           24
 reciprocal scheme for non local part
 use partial core corrections
 no Harris-corrections to forces 
 use gradient corrections 
 use of overlap-Matrix (Vanderbilt PP)
 Methfessel and Paxton  Order N= 1 SIGMA  =   0.10


--------------------------------------------------------------------------------------------------------


  energy-cutoff  :      400.00
  volume of cell :      221.90
      direct lattice vectors                 reciprocal lattice vectors
     3.224796000 -5.643830000  0.031572000     0.154525165 -0.088592321  0.053460880
     3.224796000  5.643830000  0.031572000     0.154525165  0.088592321  0.053460880
    -2.101946000  0.000000000  6.075537000    -0.001606004  0.000000000  0.164038877

  length of vectors
     6.500240234  6.500240234  6.428866683     0.185969598  0.185969598  0.164046738


 
 old parameters found on file WAVECAR:
  energy-cutoff  :      400.00
  volume of cell :      222.35
      direct lattice vectors                 reciprocal lattice vectors
     3.227235519 -5.642745207  0.030241751     0.154430495 -0.088609353  0.053450002
     3.227235519  5.642745207  0.030241751     0.154430495  0.088609353  0.053450002
    -2.106135241  0.000000000  6.085154262    -0.001534965  0.000000000  0.163803104

  length of vectors

 
 k-points in units of 2pi/SCALE and weight: pymatgen 4.7.6+ generated KPOINTS with g
   0.00000000  0.00000000  0.00000000       0.013
   0.03863129 -0.02214808  0.01336522       0.025
   0.07726258 -0.04429616  0.02673044       0.013
   0.03863129  0.02214808  0.01336522       0.025
   0.07726258  0.00000000  0.02673044       0.025
   0.11589387 -0.02214808  0.04009566       0.025
   0.00000000  0.04429616  0.00000000       0.025
   0.07726258  0.04429616  0.02673044       0.013
   0.11589387  0.02214808  0.04009566       0.025
   0.15452516  0.00000000  0.05346088       0.013
  -0.00032120  0.00000000  0.03280778       0.025
   0.03831009 -0.02214808  0.04617300       0.025
   0.07694138 -0.04429616  0.05953822       0.025
  -0.03895249  0.02214808  0.01944256       0.025
   0.03831009  0.02214808  0.04617300       0.025
   0.07694138  0.00000000  0.05953822       0.025
   0.11557267 -0.02214808  0.07290344       0.025
  -0.00032120  0.04429616  0.03280778       0.025
   0.07694138  0.04429616  0.05953822       0.025
   0.11557267  0.02214808  0.07290344       0.025
   0.15420396  0.00000000  0.08626865       0.025
   0.03831009  0.06644424  0.04617300       0.025
  -0.03895249 -0.02214808  0.01944256       0.025
  -0.00032120 -0.04429616  0.03280778       0.025
   0.03831009 -0.06644424  0.04617300       0.025
  -0.07758378  0.00000000  0.00607734       0.025
  -0.00064240  0.00000000  0.06561555       0.025
   0.03798889 -0.02214808  0.07898077       0.025
   0.07662018 -0.04429616  0.09234599       0.025
  -0.03927369  0.02214808  0.05225033       0.025
   0.03798889  0.02214808  0.07898077       0.025
   0.07662018  0.00000000  0.09234599       0.025
   0.11525147 -0.02214808  0.10571121       0.025
  -0.00064240  0.04429616  0.06561555       0.025
   0.07662018  0.04429616  0.09234599       0.025
   0.11525147  0.02214808  0.10571121       0.025
   0.15388276  0.00000000  0.11907643       0.025
   0.03798889  0.06644424  0.07898077       0.025
  -0.03927369 -0.02214808  0.05225033       0.025
  -0.00064240 -0.04429616  0.06561555       0.025
   0.03798889 -0.06644424  0.07898077       0.025
  -0.07790498  0.00000000  0.03888511       0.025
 
 k-points in reciprocal lattice and weights: pymatgen 4.7.6+ generated KPOINTS with g
   0.00000000  0.00000000  0.00000000       0.013
   0.25000000  0.00000000  0.00000000       0.025
   0.50000000  0.00000000  0.00000000       0.013
   0.00000000  0.25000000  0.00000000       0.025
   0.25000000  0.25000000  0.00000000       0.025
   0.50000000  0.25000000 -0.00000000       0.025
  -0.25000000  0.25000000  0.00000000       0.025
   0.00000000  0.50000000  0.00000000       0.013
   0.25000000  0.50000000 -0.00000000       0.025
   0.50000000  0.50000000  0.00000000       0.013
  -0.00000000 -0.00000000  0.20000000       0.025
   0.25000000  0.00000000  0.20000000       0.025
   0.50000000  0.00000000  0.20000000       0.025
  -0.25000000 -0.00000000  0.20000000       0.025
   0.00000000  0.25000000  0.20000000       0.025
   0.25000000  0.25000000  0.20000000       0.025
   0.50000000  0.25000000  0.20000000       0.025
  -0.25000000  0.25000000  0.20000000       0.025
   0.00000000  0.50000000  0.20000000       0.025
   0.25000000  0.50000000  0.20000000       0.025
   0.50000000  0.50000000  0.20000000       0.025
  -0.25000000  0.50000000  0.20000000       0.025
  -0.00000000 -0.25000000  0.20000000       0.025
   0.25000000 -0.25000000  0.20000000       0.025
   0.50000000 -0.25000000  0.20000000       0.025
  -0.25000000 -0.25000000  0.20000000       0.025
  -0.00000000 -0.00000000  0.40000000       0.025
   0.25000000  0.00000000  0.40000000       0.025
   0.50000000  0.00000000  0.40000000       0.025
  -0.25000000  0.00000000  0.40000000       0.025
   0.00000000  0.25000000  0.40000000       0.025
   0.25000000  0.25000000  0.40000000       0.025
   0.50000000  0.25000000  0.40000000       0.025
  -0.25000000  0.25000000  0.40000000       0.025
   0.00000000  0.50000000  0.40000000       0.025
   0.25000000  0.50000000  0.40000000       0.025
   0.50000000  0.50000000  0.40000000       0.025
  -0.25000000  0.50000000  0.40000000       0.025
   0.00000000 -0.25000000  0.40000000       0.025
   0.25000000 -0.25000000  0.40000000       0.025
   0.50000000 -0.25000000  0.40000000       0.025
  -0.25000000 -0.25000000  0.40000000       0.025
 
 position of ions in fractional coordinates (direct lattice) 
   0.61844300  0.12117100  0.11953300
   0.12117100  0.61844300  0.61953300
   0.96295700  0.79032200  0.11881300
   0.79032200  0.96295700  0.61881300
   0.43973200  0.26728100  0.59904700
   0.26728100  0.43973200  0.09904700
   0.07949800  0.91167500  0.49736300
   0.57140300  0.41236400  0.98018400
   0.73557260  0.25006200  0.49504900
   0.41236400  0.57140300  0.48018400
   0.91167500  0.07949800  0.99736300
   0.25006200  0.73711100  0.99504900
 
 position of ions in cartesian coordinates  (Angst):
   2.13385236 -2.80651863  0.74957826
   1.08287936  2.80651863  3.78734676
   5.40422860 -0.97432259  0.77720730
   4.35325560  0.97432259  3.81497580
   1.02080825 -0.97328413  3.66185403
   2.07178125  0.97328413  0.62408553
   2.15090056  4.69666552  3.05304062
   1.11215405 -0.89758908  5.98620365
   2.13790424 -2.74013926  3.03880697
   2.16312705  0.89758908  2.94843515
   1.09992756 -4.69666552  6.09080912
   1.09189228  2.74882176  6.07662404
 


--------------------------------------------------------------------------------------------------------


 k-point  1 :   0.0000 0.0000 0.0000  plane waves:    4051
 k-point  2 :   0.2500 0.0000 0.0000  plane waves:    4032
 k-point  3 :   0.5000 0.0000 0.0000  plane waves:    4030
 k-point  4 :   0.0000 0.2500 0.0000  plane waves:    4032
 k-point  5 :   0.2500 0.2500 0.0000  plane waves:    4038
 k-point  6 :   0.5000 0.2500-0.0000  plane waves:    4037
 k-point  7 :  -0.2500 0.2500 0.0000  plane waves:    4042
 k-point  8 :   0.0000 0.5000 0.0000  plane waves:    4030
 k-point  9 :   0.2500 0.5000-0.0000  plane waves:    4037
 k-point 10 :   0.5000 0.5000 0.0000  plane waves:    4026
 k-point 11 :  -0.0000-0.0000 0.2000  plane waves:    4046
 k-point 12 :   0.2500 0.0000 0.2000  plane waves:    4034
 k-point 13 :   0.5000 0.0000 0.2000  plane waves:    4025
 k-point 14 :  -0.2500-0.0000 0.2000  plane waves:    4044
 k-point 15 :   0.0000 0.2500 0.2000  plane waves:    4034
 k-point 16 :   0.2500 0.2500 0.2000  plane waves:    4017
 k-point 17 :   0.5000 0.2500 0.2000  plane waves:    4039
 k-point 18 :  -0.2500 0.2500 0.2000  plane waves:    4042
 k-point 19 :   0.0000 0.5000 0.2000  plane waves:    4025
 k-point 20 :   0.2500 0.5000 0.2000  plane waves:    4039
 k-point 21 :   0.5000 0.5000 0.2000  plane waves:    4030
 k-point 22 :  -0.2500 0.5000 0.2000  plane waves:    4030
 k-point 23 :  -0.0000-0.2500 0.2000  plane waves:    4044
 k-point 24 :   0.2500-0.2500 0.2000  plane waves:    4042
 k-point 25 :   0.5000-0.2500 0.2000  plane waves:    4030
 k-point 26 :  -0.2500-0.2500 0.2000  plane waves:    4020
 k-point 27 :  -0.0000-0.0000 0.4000  plane waves:    4027
 k-point 28 :   0.2500 0.0000 0.4000  plane waves:    4034
 k-point 29 :   0.5000 0.0000 0.4000  plane waves:    4013
 k-point 30 :  -0.2500 0.0000 0.4000  plane waves:    4042
 k-point 31 :   0.0000 0.2500 0.4000  plane waves:    4034
 k-point 32 :   0.2500 0.2500 0.4000  plane waves:    4009
 k-point 33 :   0.5000 0.2500 0.4000  plane waves:    4026
 k-point 34 :  -0.2500 0.2500 0.4000  plane waves:    4027
 k-point 35 :   0.0000 0.5000 0.4000  plane waves:    4013
 k-point 36 :   0.2500 0.5000 0.4000  plane waves:    4026
 k-point 37 :   0.5000 0.5000 0.4000  plane waves:    4037
 k-point 38 :  -0.2500 0.5000 0.4000  plane waves:    4022
 k-point 39 :   0.0000-0.2500 0.4000  plane waves:    4042
 k-point 40 :   0.2500-0.2500 0.4000  plane waves:    4027
 k-point 41 :   0.5000-0.2500 0.4000  plane waves:    4022
 k-point 42 :  -0.2500-0.2500 0.4000  plane waves:    4015

 maximum and minimum number of plane-waves per node :      4051     4009

 maximum number of plane-waves:      4051
 maximum index in each direction: 
   IXMAX=   10   IYMAX=   10   IZMAX=   10
   IXMIN=  -11   IYMIN=  -11   IZMIN=  -10

 WARNING: aliasing errors must be expected set NGX to  44 to avoid them
 WARNING: aliasing errors must be expected set NGY to  44 to avoid them
 WARNING: aliasing errors must be expected set NGZ to  42 to avoid them
 aliasing errors are usually negligible using standard VASP settings
 and one can safely disregard these warnings

 serial   3D FFT for wavefunctions
 parallel 3D FFT for charge:
    minimum data exchange during FFTs selected (reduces bandwidth)


 FFT grid for exact exchange (Hartree Fock) 
  NGX = 24; NGY = 24; NGZ = 24

 
 Radii for the augmentation spheres in the non-local exchange
 for species   1 augmentation radius   1.120 (default was   0.830)
       energy cutoff for augmentation   1600.0
 for species   2 augmentation radius   1.570 (default was   1.163)
       energy cutoff for augmentation   1600.0
 for species   3 augmentation radius   1.034 (default was   0.970)
       energy cutoff for augmentation   1600.0

 total amount of memory used by VASP on root node   151697. kBytes
========================================================================

   base      :      30000. kBytes
   nonl-proj :      74517. kBytes
   fftplans  :        702. kBytes
   grid      :       2400. kBytes
   one-center:        186. kBytes
   HF        :        194. kBytes
   nonlr-proj:       1122. kBytes
   wavefun   :      42576. kBytes
 
 Broyden mixing: mesh for mixing (old mesh)
   NGX = 21   NGY = 21   NGZ = 21
  (NGX  = 64   NGY  = 64   NGZ  = 64)
  gives a total of   9261 points

 charge density for first step will be calculated from the start-wavefunctions


--------------------------------------------------------------------------------------------------------


 Maximum index for augmentation-charges          485 (set IRDMAX)


--------------------------------------------------------------------------------------------------------


 initial charge from wavefunction
 First call to EWALD:  gamma=   0.293
 Maximum number of real-space cells 3x 3x 3
 Maximum number of reciprocal cells 3x 3x 3

 FEWALD executed in parallel
    FEWALD:  cpu time    0.00: real time    0.00


----------------------------------------- Iteration    1(   1)  ---------------------------------------


    POTLOK:  cpu time    0.06: real time    0.07
    SETDIJ:  cpu time    2.26: real time    2.25
 
    SUBROT:  cpu time    0.76: real time    0.76
    SUBROT:  cpu time    0.36: real time    0.36
    SUBROT:  cpu time    0.37: real time    0.37
    --------------------------------------------
    SUBRT+:  cpu time    1.49: real time    1.51

 Broyden mixing:
  rms(total) = 0.32110E-01    rms(broyden)= 0.32095E-01
  rms(prec ) = 0.48250E-01
  weight for this iteration     100.00

 eigenvalues of (default mixing * dielectric matrix)
  average eigenvalue GAMMA=   1.7799
  1.1150  2.4448
 
    TRIAL :  cpu time  319.93: real time  319.68
    CORREC:  cpu time    0.00: real time    0.00
    CHARGE:  cpu time    0.06: real time    0.06
    --------------------------------------------
      LOOP:  cpu time  322.32: real time  322.07

 eigenvalue-minimisations  :     0
 total energy-change (2. order) : 0.7553972E+02  (-0.2131537E+03)
 number of electron     112.0001480 magnetization 
 augmentation part       38.9099977 magnetization 

 Free energy of the ion-electron system (eV)
  ---------------------------------------------------
  alpha Z        PSCENC =       339.31929130
  Ewald energy   TEWEN  =     -9066.09653331
  -1/2 Hartree   DENC   =     -8067.42678651
  -exchange  EXHF       =       327.45124267
  -V(xc)+E(xc)   XCENC  =       369.90494489
  PAW double counting   =     16899.84093475   -17392.65828888
  entropy T*S    EENTRO =        -0.00148298
  eigenvalues    EBANDS =     -1655.77877256
  atomic energy  EATOM  =     18320.98302006
  ---------------------------------------------------
  free energy    TOTEN  =        75.53971570 eV

  energy without entropy =       75.54119868  energy(sigma->0) =       75.54021003


--------------------------------------------------------------------------------------------------------




----------------------------------------- Iteration    1(   2)  ---------------------------------------


    POTLOK:  cpu time    0.06: real time    0.06
    SETDIJ:  cpu time    2.25: real time    2.25
 
    SUBROT:  cpu time    0.77: real time    0.77
    SUBROT:  cpu time    0.37: real time    0.37
    SUBROT:  cpu time    0.39: real time    0.39
    SUBROT:  cpu time    0.38: real time    0.39
    --------------------------------------------
    SUBRT+:  cpu time    1.91: real time    1.95

 Broyden mixing:
  rms(total) = 0.27538E-01    rms(broyden)= 0.27528E-01
  rms(prec ) = 0.50557E-01
  weight for this iteration     100.00

 eigenvalues of (default mixing * dielectric matrix)
  average eigenvalue GAMMA=   1.5856
  2.5510  1.3361  0.8696
 
    TRIAL :  cpu time  326.22: real time  325.98
    CORREC:  cpu time    0.00: real time    0.00
    CHARGE:  cpu time    0.06: real time    0.06
    --------------------------------------------
      LOOP:  cpu time  328.59: real time  328.37

 eigenvalue-minimisations  :     0
 total energy-change (2. order) :-0.8392908E+02  (-0.1468667E+03)
 number of electron     112.0001385 magnetization 
 augmentation part       35.4569325 magnetization 

 Free energy of the ion-electron system (eV)
  ---------------------------------------------------
  alpha Z        PSCENC =       339.31929130
  Ewald energy   TEWEN  =     -9066.09653331
  -1/2 Hartree   DENC   =     -8368.69844577
  -exchange  EXHF       =       338.95935368
  -V(xc)+E(xc)   XCENC  =       377.31326543
  PAW double counting   =     17398.97124126   -17938.03682321
  entropy T*S    EENTRO =        -0.00080747
  eigenvalues    EBANDS =     -1411.10225334
  atomic energy  EATOM  =     18320.98302006
  ---------------------------------------------------
  free energy    TOTEN  =        -8.38936689 eV

  energy without entropy =       -8.38855942  energy(sigma->0) =       -8.38909774


--------------------------------------------------------------------------------------------------------




----------------------------------------- Iteration    1(   3)  ---------------------------------------


    POTLOK:  cpu time    0.06: real time    0.06
    SETDIJ:  cpu time    2.35: real time    2.35
 
    SUBROT:  cpu time    0.79: real time    0.79
    SUBROT:  cpu time    0.37: real time    0.37
    SUBROT:  cpu time    0.37: real time    0.37
    SUBROT:  cpu time    0.37: real time    0.37
    --------------------------------------------
    SUBRT+:  cpu time    1.90: real time    1.91

 Broyden mixing:
  rms(total) = 0.27941E-01    rms(broyden)= 0.27929E-01
  rms(prec ) = 0.52176E-01
  weight for this iteration     100.00

 eigenvalues of (default mixing * dielectric matrix)
  average eigenvalue GAMMA=   1.7763
  1.0120  2.4998  1.8169
 
    TRIAL :  cpu time  330.03: real time  329.77
    CORREC:  cpu time    0.00: real time    0.00
    CHARGE:  cpu time    0.07: real time    0.07
    --------------------------------------------
      LOOP:  cpu time  332.52: real time  332.25

 eigenvalue-minimisations  :     0
 total energy-change (2. order) :-0.6778260E+01  (-0.2039079E+03)
 number of electron     112.0001510 magnetization 
 augmentation part       39.6849058 magnetization 

 Free energy of the ion-electron system (eV)
  ---------------------------------------------------
  alpha Z        PSCENC =       339.31929130
  Ewald energy   TEWEN  =     -9066.09653331
  -1/2 Hartree   DENC   =     -7476.53870942
  -exchange  EXHF       =       325.00717013
  -V(xc)+E(xc)   XCENC  =       357.40612117
  PAW double counting   =     15149.66269378   -15579.15907688
  entropy T*S    EENTRO =         0.00029983
  eigenvalues    EBANDS =     -2385.75079614
  atomic energy  EATOM  =     18320.98302006
  ---------------------------------------------------
  free energy    TOTEN  =       -15.16762679 eV

  energy without entropy =      -15.16792662  energy(sigma->0) =      -15.16772673


--------------------------------------------------------------------------------------------------------




----------------------------------------- Iteration    1(   4)  ---------------------------------------


    POTLOK:  cpu time    0.07: real time    0.07
    SETDIJ:  cpu time    2.28: real time    2.28
 
    SUBROT:  cpu time    0.75: real time    0.75
    SUBROT:  cpu time    0.39: real time    0.39
    SUBROT:  cpu time    0.36: real time    0.36
    SUBROT:  cpu time    0.37: real time    0.37
    SUBROT:  cpu time    0.41: real time    0.41
    --------------------------------------------
    SUBRT+:  cpu time    2.28: real time    2.29

 Broyden mixing:
  rms(total) = 0.11469E+00    rms(broyden)= 0.11450E+00
  rms(prec ) = 0.20210E+00
  weight for this iteration     100.00

 eigenvalues of (default mixing * dielectric matrix)
  average eigenvalue GAMMA=   1.2155
  2.5507  1.2745  0.6503  0.3866
 
    TRIAL :  cpu time  333.66: real time  333.40
    CORREC:  cpu time    0.00: real time    0.00
    CHARGE:  cpu time    0.07: real time    0.07
    --------------------------------------------
      LOOP:  cpu time  336.08: real time  335.82

 eigenvalue-minimisations  :     0
 total energy-change (2. order) :-0.7473161E+01  (-0.1073996E+03)
 number of electron     112.0001430 magnetization 
 augmentation part       37.2455330 magnetization 

 Free energy of the ion-electron system (eV)
  ---------------------------------------------------
  alpha Z        PSCENC =       339.31929130
  Ewald energy   TEWEN  =     -9066.09653331
  -1/2 Hartree   DENC   =     -8541.57957308
  -exchange  EXHF       =       343.00882655
  -V(xc)+E(xc)   XCENC  =       381.65951823
  PAW double counting   =     17631.70024546   -18212.36985519
  entropy T*S    EENTRO =         0.00032290
  eigenvalues    EBANDS =     -1219.26602742
  atomic energy  EATOM  =     18320.98302006
  ---------------------------------------------------
  free energy    TOTEN  =       -22.64078757 eV

  energy without entropy =      -22.64111047  energy(sigma->0) =      -22.64089520


--------------------------------------------------------------------------------------------------------




----------------------------------------- Iteration    1(   5)  ---------------------------------------


    POTLOK:  cpu time    0.06: real time    0.06
    SETDIJ:  cpu time    2.25: real time    2.24
 
    SUBROT:  cpu time    0.76: real time    0.76
    SUBROT:  cpu time    0.35: real time    0.35
    SUBROT:  cpu time    0.36: real time    0.36
    SUBROT:  cpu time    0.37: real time    0.37
    --------------------------------------------
    SUBRT+:  cpu time    1.84: real time    1.86

 Broyden mixing:
  rms(total) = 0.45990E-01    rms(broyden)= 0.45980E-01
  rms(prec ) = 0.93327E-01
  weight for this iteration     100.00

 eigenvalues of (default mixing * dielectric matrix)
  average eigenvalue GAMMA=   1.6847
  2.4595  0.9363  1.6582
 
    TRIAL :  cpu time  335.88: real time  335.61
    CORREC:  cpu time    0.00: real time    0.00
    CHARGE:  cpu time    0.05: real time    0.05
    --------------------------------------------
      LOOP:  cpu time  338.25: real time  337.97

 eigenvalue-minimisations  :     0
 total energy-change (2. order) :-0.3817129E+02  (-0.1505669E+02)
 number of electron     112.0001430 magnetization 
 augmentation part       37.2460109 magnetization 

 Free energy of the ion-electron system (eV)
  ---------------------------------------------------
  alpha Z        PSCENC =       339.31929130
  Ewald energy   TEWEN  =     -9066.09653331
  -1/2 Hartree   DENC   =     -8007.24201056
  -exchange  EXHF       =       336.40256451
  -V(xc)+E(xc)   XCENC  =       368.40748726
  PAW double counting   =     15870.10147830   -16339.49741386
  entropy T*S    EENTRO =         0.00062073
  eigenvalues    EBANDS =     -1883.19028144
  atomic energy  EATOM  =     18320.98302006
  ---------------------------------------------------
  free energy    TOTEN  =       -60.81207483 eV

  energy without entropy =      -60.81269556  energy(sigma->0) =      -60.81228174


--------------------------------------------------------------------------------------------------------




----------------------------------------- Iteration    1(   6)  ---------------------------------------


    POTLOK:  cpu time    0.06: real time    0.06
    SETDIJ:  cpu time    2.30: real time    2.30
 
    SUBROT:  cpu time    0.78: real time    0.78
    SUBROT:  cpu time    0.38: real time    0.38
    SUBROT:  cpu time    0.37: real time    0.37
    SUBROT:  cpu time    0.37: real time    0.37
    --------------------------------------------
    SUBRT+:  cpu time    1.91: real time    1.93

 Broyden mixing:
  rms(total) = 0.27381E-02    rms(broyden)= 0.27375E-02
  rms(prec ) = 0.45456E-02
  weight for this iteration     100.00

 eigenvalues of (default mixing * dielectric matrix)
  average eigenvalue GAMMA=   1.8157
  1.0129  1.9079  2.5262
 
    TRIAL :  cpu time  328.27: real time  328.02
    CORREC:  cpu time    0.00: real time    0.00
    CHARGE:  cpu time    0.06: real time    0.06
    --------------------------------------------
      LOOP:  cpu time  330.69: real time  330.45

 eigenvalue-minimisations  :     0
 total energy-change (2. order) :-0.5116514E+01  (-0.8188135E+01)
 number of electron     112.0001460 magnetization 
 augmentation part       38.2292409 magnetization 

 Free energy of the ion-electron system (eV)
  ---------------------------------------------------
  alpha Z        PSCENC =       339.31929130
  Ewald energy   TEWEN  =     -9066.09653331
  -1/2 Hartree   DENC   =     -7999.90253628
  -exchange  EXHF       =       337.15482903
  -V(xc)+E(xc)   XCENC  =       368.78276484
  PAW double counting   =     15771.13008121   -16240.09160795
  entropy T*S    EENTRO =         0.00067852
  eigenvalues    EBANDS =     -1897.20851880
  atomic energy  EATOM  =     18320.98302006
  ---------------------------------------------------
  free energy    TOTEN  =       -65.92858917 eV

  energy without entropy =      -65.92926769  energy(sigma->0) =      -65.92881534


--------------------------------------------------------------------------------------------------------




----------------------------------------- Iteration    1(   7)  ---------------------------------------


    POTLOK:  cpu time    0.06: real time    0.06
    SETDIJ:  cpu time    2.26: real time    2.27
 
    SUBROT:  cpu time    0.78: real time    0.78
    SUBROT:  cpu time    0.38: real time    0.38
    SUBROT:  cpu time    0.37: real time    0.37
    SUBROT:  cpu time    0.37: real time    0.37
    --------------------------------------------
    SUBRT+:  cpu time    1.90: real time    1.92

 Broyden mixing:
  rms(total) = 0.13237E-01    rms(broyden)= 0.13233E-01
  rms(prec ) = 0.23433E-01
  weight for this iteration     100.00

 eigenvalues of (default mixing * dielectric matrix)
  average eigenvalue GAMMA=   1.6083
  2.5018  0.8925  1.4305
 
    TRIAL :  cpu time  332.02: real time  331.85
    CORREC:  cpu time    0.00: real time    0.00
    CHARGE:  cpu time    0.06: real time    0.06
    --------------------------------------------
      LOOP:  cpu time  334.41: real time  334.24

 eigenvalue-minimisations  :     0
 total energy-change (2. order) :-0.1541195E+01  (-0.4142423E+01)
 number of electron     112.0001443 magnetization 
 augmentation part       37.7065637 magnetization 

 Free energy of the ion-electron system (eV)
  ---------------------------------------------------
  alpha Z        PSCENC =       339.31929130
  Ewald energy   TEWEN  =     -9066.09653331
  -1/2 Hartree   DENC   =     -8242.24855594
  -exchange  EXHF       =       341.63570367
  -V(xc)+E(xc)   XCENC  =       374.56819988
  PAW double counting   =     16208.22730547   -16711.58132481
  entropy T*S    EENTRO =         0.00044773
  eigenvalues    EBANDS =     -1632.27756884
  atomic energy  EATOM  =     18320.98302006
  ---------------------------------------------------
  free energy    TOTEN  =       -67.46978400 eV

  energy without entropy =      -67.47023173  energy(sigma->0) =      -67.46993325


--------------------------------------------------------------------------------------------------------




----------------------------------------- Iteration    1(   8)  ---------------------------------------


    POTLOK:  cpu time    0.06: real time    0.06
    SETDIJ:  cpu time    2.34: real time    2.34
 
    SUBROT:  cpu time    0.78: real time    0.78
    SUBROT:  cpu time    0.36: real time    0.36
    SUBROT:  cpu time    0.39: real time    0.39
    SUBROT:  cpu time    0.38: real time    0.38
    --------------------------------------------
    SUBRT+:  cpu time    1.92: real time    1.93

 Broyden mixing:
  rms(total) = 0.83612E-02    rms(broyden)= 0.83588E-02
  rms(prec ) = 0.14028E-01
  weight for this iteration     100.00

 eigenvalues of (default mixing * dielectric matrix)
  average eigenvalue GAMMA=   1.6741
  2.4572  0.9477  1.6176
 
    TRIAL :  cpu time  331.12: real time  330.83
    CORREC:  cpu time    0.00: real time    0.00
    CHARGE:  cpu time    0.07: real time    0.07
    --------------------------------------------
      LOOP:  cpu time  333.59: real time  333.31

 eigenvalue-minimisations  :     0
 total energy-change (2. order) :-0.1614376E+01  (-0.7716385E+00)
 number of electron     112.0001444 magnetization 
 augmentation part       37.7254852 magnetization 

 Free energy of the ion-electron system (eV)
  ---------------------------------------------------
  alpha Z        PSCENC =       339.31929130
  Ewald energy   TEWEN  =     -9066.09653331
  -1/2 Hartree   DENC   =     -8115.40788604
  -exchange  EXHF       =       339.53420093
  -V(xc)+E(xc)   XCENC  =       371.38708463
  PAW double counting   =     15916.75767979   -16398.08655282
  entropy T*S    EENTRO =         0.00075360
  eigenvalues    EBANDS =     -1777.47491191
  atomic energy  EATOM  =     18320.98302006
  ---------------------------------------------------
  free energy    TOTEN  =       -69.08415963 eV

  energy without entropy =      -69.08491324  energy(sigma->0) =      -69.08441083


--------------------------------------------------------------------------------------------------------




----------------------------------------- Iteration    1(   9)  ---------------------------------------


    POTLOK:  cpu time    0.06: real time    0.06
    SETDIJ:  cpu time    2.26: real time    2.26
 
    SUBROT:  cpu time    0.80: real time    0.80
    SUBROT:  cpu time    0.37: real time    0.37
    SUBROT:  cpu time    0.39: real time    0.39
    SUBROT:  cpu time    0.37: real time    0.37
    --------------------------------------------
    SUBRT+:  cpu time    1.94: real time    1.95

 Broyden mixing:
  rms(total) = 0.51743E-03    rms(broyden)= 0.51681E-03
  rms(prec ) = 0.82596E-03
  weight for this iteration     100.00

 eigenvalues of (default mixing * dielectric matrix)
  average eigenvalue GAMMA=   1.6910
  2.5227  1.0020  1.5482
 
    TRIAL :  cpu time  329.38: real time  329.09
    CORREC:  cpu time    0.00: real time    0.00
    CHARGE:  cpu time    0.06: real time    0.06
    --------------------------------------------
      LOOP:  cpu time  331.76: real time  331.48

 eigenvalue-minimisations  :     0
 total energy-change (2. order) :-0.3103658E+00  (-0.3870388E+00)
 number of electron     112.0001450 magnetization 
 augmentation part       37.9068173 magnetization 

 Free energy of the ion-electron system (eV)
  ---------------------------------------------------
  alpha Z        PSCENC =       339.31929130
  Ewald energy   TEWEN  =     -9066.09653331
  -1/2 Hartree   DENC   =     -8123.02052247
  -exchange  EXHF       =       339.60775393
  -V(xc)+E(xc)   XCENC  =       371.44956814
  PAW double counting   =     15912.97259804   -16394.19402593
  entropy T*S    EENTRO =         0.00089361
  eigenvalues    EBANDS =     -1770.41642877
  atomic energy  EATOM  =     18320.98302006
  ---------------------------------------------------
  free energy    TOTEN  =       -69.39452541 eV

  energy without entropy =      -69.39541902  energy(sigma->0) =      -69.39482328


--------------------------------------------------------------------------------------------------------




----------------------------------------- Iteration    1(  10)  ---------------------------------------


    POTLOK:  cpu time    0.06: real time    0.06
    SETDIJ:  cpu time    2.26: real time    2.26
 
    SUBROT:  cpu time    0.76: real time    0.76
    SUBROT:  cpu time    0.40: real time    0.40
    SUBROT:  cpu time    0.40: real time    0.40
    SUBROT:  cpu time    0.40: real time    0.40
    --------------------------------------------
    SUBRT+:  cpu time    1.97: real time    1.98

 Broyden mixing:
  rms(total) = 0.22937E-02    rms(broyden)= 0.22933E-02
  rms(prec ) = 0.38589E-02
  weight for this iteration     100.00

 eigenvalues of (default mixing * dielectric matrix)
  average eigenvalue GAMMA=   1.6862
  2.4753  0.9900  1.5934
 
    TRIAL :  cpu time  331.57: real time  331.33
    CORREC:  cpu time    0.00: real time    0.00
    CHARGE:  cpu time    0.07: real time    0.07
    --------------------------------------------
      LOOP:  cpu time  333.97: real time  333.77

 eigenvalue-minimisations  :     0
 total energy-change (2. order) :-0.1039152E+00  (-0.1524678E+00)
 number of electron     112.0001447 magnetization 
 augmentation part       37.8196616 magnetization 

 Free energy of the ion-electron system (eV)
  ---------------------------------------------------
  alpha Z        PSCENC =       339.31929130
  Ewald energy   TEWEN  =     -9066.09653331
  -1/2 Hartree   DENC   =     -8170.41865152
  -exchange  EXHF       =       340.41161955
  -V(xc)+E(xc)   XCENC  =       372.54707621
  PAW double counting   =     15994.77985177   -16482.73362380
  entropy T*S    EENTRO =         0.00072916
  eigenvalues    EBANDS =     -1718.29138446
  atomic energy  EATOM  =     18320.98302006
  ---------------------------------------------------
  free energy    TOTEN  =       -69.49844059 eV

  energy without entropy =      -69.49916976  energy(sigma->0) =      -69.49868365


--------------------------------------------------------------------------------------------------------




----------------------------------------- Iteration    1(  11)  ---------------------------------------


    POTLOK:  cpu time    0.06: real time    0.06
    SETDIJ:  cpu time    2.27: real time    2.27
 
    SUBROT:  cpu time    0.81: real time    0.81
    SUBROT:  cpu time    0.38: real time    0.38
    SUBROT:  cpu time    0.40: real time    0.40
    SUBROT:  cpu time    0.38: real time    0.38
    --------------------------------------------
    SUBRT+:  cpu time    1.98: real time    1.99

 Broyden mixing:
  rms(total) = 0.77930E-03    rms(broyden)= 0.77905E-03
  rms(prec ) = 0.15615E-02
  weight for this iteration     100.00

 eigenvalues of (default mixing * dielectric matrix)
  average eigenvalue GAMMA=   1.6727
  2.4945  0.9853  1.5384
 
    TRIAL :  cpu time  332.88: real time  332.58
    CORREC:  cpu time    0.00: real time    0.00
    CHARGE:  cpu time    0.09: real time    0.09
    --------------------------------------------
      LOOP:  cpu time  335.30: real time  335.01

 eigenvalue-minimisations  :     0
 total energy-change (2. order) :-0.6970350E-01  (-0.3694917E-01)
 number of electron     112.0001446 magnetization 
 augmentation part       37.7868383 magnetization 

 Free energy of the ion-electron system (eV)
  ---------------------------------------------------
  alpha Z        PSCENC =       339.31929130
  Ewald energy   TEWEN  =     -9066.09653331
  -1/2 Hartree   DENC   =     -8149.05410756
  -exchange  EXHF       =       340.08322126
  -V(xc)+E(xc)   XCENC  =       372.07372001
  PAW double counting   =     15942.76074942   -16427.67348001
  entropy T*S    EENTRO =         0.00061441
  eigenvalues    EBANDS =     -1741.96475442
  atomic energy  EATOM  =     18320.98302006
  ---------------------------------------------------
  free energy    TOTEN  =       -69.56814409 eV

  energy without entropy =      -69.56875850  energy(sigma->0) =      -69.56834889


--------------------------------------------------------------------------------------------------------




----------------------------------------- Iteration    1(  12)  ---------------------------------------


    POTLOK:  cpu time    0.06: real time    0.07
    SETDIJ:  cpu time    2.24: real time    2.24
 
    SUBROT:  cpu time    0.80: real time    0.80
    SUBROT:  cpu time    0.40: real time    0.40
    SUBROT:  cpu time    0.38: real time    0.38
    SUBROT:  cpu time    0.40: real time    0.40
    --------------------------------------------
    SUBRT+:  cpu time    1.99: real time    2.00

 Broyden mixing:
  rms(total) = 0.20786E-03    rms(broyden)= 0.20776E-03
  rms(prec ) = 0.45487E-03
  weight for this iteration     100.00

 eigenvalues of (default mixing * dielectric matrix)
  average eigenvalue GAMMA=   1.6477
  2.5062  1.0002  1.4368
 
    TRIAL :  cpu time  330.02: real time  329.73
    CORREC:  cpu time    0.00: real time    0.00
    CHARGE:  cpu time    0.09: real time    0.09
    --------------------------------------------
      LOOP:  cpu time  332.42: real time  332.14

 eigenvalue-minimisations  :     0
 total energy-change (2. order) :-0.1235714E-01  (-0.2287728E-01)
 number of electron     112.0001447 magnetization 
 augmentation part       37.8271514 magnetization 

 Free energy of the ion-electron system (eV)
  ---------------------------------------------------
  alpha Z        PSCENC =       339.31929130
  Ewald energy   TEWEN  =     -9066.09653331
  -1/2 Hartree   DENC   =     -8140.67597664
  -exchange  EXHF       =       339.96721940
  -V(xc)+E(xc)   XCENC  =       371.89877016
  PAW double counting   =     15920.95056686   -16404.77739956
  entropy T*S    EENTRO =         0.00056255
  eigenvalues    EBANDS =     -1751.15007390
  atomic energy  EATOM  =     18320.98302006
  ---------------------------------------------------
  free energy    TOTEN  =       -69.58050123 eV

  energy without entropy =      -69.58106378  energy(sigma->0) =      -69.58068874


--------------------------------------------------------------------------------------------------------




----------------------------------------- Iteration    1(  13)  ---------------------------------------


    POTLOK:  cpu time    0.06: real time    0.06
    SETDIJ:  cpu time    2.22: real time    2.22
 
    SUBROT:  cpu time    0.82: real time    0.82
    SUBROT:  cpu time    0.39: real time    0.39
    SUBROT:  cpu time    0.38: real time    0.38
    SUBROT:  cpu time    0.39: real time    0.40
    --------------------------------------------
    SUBRT+:  cpu time    1.99: real time    2.00

 Broyden mixing:
  rms(total) = 0.55464E-03    rms(broyden)= 0.55452E-03
  rms(prec ) = 0.94355E-03
  weight for this iteration     100.00

 eigenvalues of (default mixing * dielectric matrix)
  average eigenvalue GAMMA=   1.6964
  2.4801  0.9974  1.6119
 
    TRIAL :  cpu time  331.90: real time  331.62
    CORREC:  cpu time    0.00: real time    0.00
    CHARGE:  cpu time    0.09: real time    0.09
    --------------------------------------------
      LOOP:  cpu time  334.28: real time  334.00

 eigenvalue-minimisations  :     0
 total energy-change (2. order) :-0.9672542E-02  (-0.5126359E-02)
 number of electron     112.0001447 magnetization 
 augmentation part       37.8310507 magnetization 

 Free energy of the ion-electron system (eV)
  ---------------------------------------------------
  alpha Z        PSCENC =       339.31929130
  Ewald energy   TEWEN  =     -9066.09653331
  -1/2 Hartree   DENC   =     -8150.57051940
  -exchange  EXHF       =       340.13978723
  -V(xc)+E(xc)   XCENC  =       372.13288197
  PAW double counting   =     15937.18994511   -16422.51031682
  entropy T*S    EENTRO =         0.00055068
  eigenvalues    EBANDS =     -1740.17829246
  atomic energy  EATOM  =     18320.98302006
  ---------------------------------------------------
  free energy    TOTEN  =       -69.59017377 eV

  energy without entropy =      -69.59072445  energy(sigma->0) =      -69.59035733


--------------------------------------------------------------------------------------------------------




----------------------------------------- Iteration    1(  14)  ---------------------------------------


    POTLOK:  cpu time    0.06: real time    0.06
    SETDIJ:  cpu time    2.28: real time    2.28
 
    SUBROT:  cpu time    0.80: real time    0.80
    SUBROT:  cpu time    0.40: real time    0.40
    SUBROT:  cpu time    0.38: real time    0.38
    SUBROT:  cpu time    0.39: real time    0.39
    --------------------------------------------
    SUBRT+:  cpu time    1.98: real time    1.99

 Broyden mixing:
  rms(total) = 0.68683E-04    rms(broyden)= 0.68669E-04
  rms(prec ) = 0.14094E-03
  weight for this iteration     100.00

 eigenvalues of (default mixing * dielectric matrix)
  average eigenvalue GAMMA=   1.6682
  2.5159  0.9915  1.4973
 
    TRIAL :  cpu time  331.41: real time  331.14
    CORREC:  cpu time    0.00: real time    0.00
    CHARGE:  cpu time    0.08: real time    0.08
    --------------------------------------------
      LOOP:  cpu time  333.82: real time  333.56

 eigenvalue-minimisations  :     0
 total energy-change (2. order) :-0.2457585E-02  (-0.3786006E-02)
 number of electron     112.0001447 magnetization 
 augmentation part       37.8134951 magnetization 

 Free energy of the ion-electron system (eV)
  ---------------------------------------------------
  alpha Z        PSCENC =       339.31929130
  Ewald energy   TEWEN  =     -9066.09653331
  -1/2 Hartree   DENC   =     -8151.10303725
  -exchange  EXHF       =       340.13790309
  -V(xc)+E(xc)   XCENC  =       372.14231430
  PAW double counting   =     15935.15543547   -16420.63928065
  entropy T*S    EENTRO =         0.00056859
  eigenvalues    EBANDS =     -1739.49229505
  atomic energy  EATOM  =     18320.98302006
  ---------------------------------------------------
  free energy    TOTEN  =       -69.59263135 eV

  energy without entropy =      -69.59319994  energy(sigma->0) =      -69.59282088


--------------------------------------------------------------------------------------------------------




----------------------------------------- Iteration    1(  15)  ---------------------------------------


    POTLOK:  cpu time    0.06: real time    0.06
    SETDIJ:  cpu time    2.26: real time    2.26
 
    SUBROT:  cpu time    0.79: real time    0.79
    SUBROT:  cpu time    0.39: real time    0.39
    SUBROT:  cpu time    0.40: real time    0.40
    SUBROT:  cpu time    0.70: real time    0.70
    --------------------------------------------
    SUBRT+:  cpu time    2.29: real time    2.30

 Broyden mixing:
  rms(total) = 0.19379E-03    rms(broyden)= 0.19374E-03
  rms(prec ) = 0.33106E-03
  weight for this iteration     100.00

 eigenvalues of (default mixing * dielectric matrix)
  average eigenvalue GAMMA=   1.6880
  2.4720  0.9904  1.6017
 
    TRIAL :  cpu time  333.41: real time  333.13
    CORREC:  cpu time    0.00: real time    0.00
    CHARGE:  cpu time    0.08: real time    0.08
    --------------------------------------------
      LOOP:  cpu time  335.81: real time  335.53

 eigenvalue-minimisations  :     0
 total energy-change (2. order) :-0.1507583E-02  (-0.1038565E-02)
 number of electron     112.0001447 magnetization 
 augmentation part       37.8178299 magnetization 

 Free energy of the ion-electron system (eV)
  ---------------------------------------------------
  alpha Z        PSCENC =       339.31929130
  Ewald energy   TEWEN  =     -9066.09653331
  -1/2 Hartree   DENC   =     -8146.38927318
  -exchange  EXHF       =       340.04868659
  -V(xc)+E(xc)   XCENC  =       372.03097173
  PAW double counting   =     15923.10233600   -16407.97456933
  entropy T*S    EENTRO =         0.00058157
  eigenvalues    EBANDS =     -1744.61863738
  atomic energy  EATOM  =     18320.98302006
  ---------------------------------------------------
  free energy    TOTEN  =       -69.59413894 eV

  energy without entropy =      -69.59472051  energy(sigma->0) =      -69.59433279


--------------------------------------------------------------------------------------------------------




----------------------------------------- Iteration    1(  16)  ---------------------------------------


    POTLOK:  cpu time    0.06: real time    0.06
    SETDIJ:  cpu time    2.27: real time    2.27
 
    SUBROT:  cpu time    0.84: real time    0.84
    SUBROT:  cpu time    0.39: real time    0.39
    SUBROT:  cpu time    0.41: real time    0.41
    SUBROT:  cpu time    0.40: real time    0.40
    --------------------------------------------
    SUBRT+:  cpu time    2.04: real time    2.05

 Broyden mixing:
  rms(total) = 0.83797E-04    rms(broyden)= 0.83779E-04
  rms(prec ) = 0.14019E-03
  weight for this iteration     100.00

 eigenvalues of (default mixing * dielectric matrix)
  average eigenvalue GAMMA=   1.6881
  2.4863  0.9906  1.5873
 
    TRIAL :  cpu time  328.76: real time  328.47
    CORREC:  cpu time    0.00: real time    0.00
    CHARGE:  cpu time    0.08: real time    0.08
    --------------------------------------------
      LOOP:  cpu time  331.17: real time  330.88

 eigenvalue-minimisations  :     0
 total energy-change (2. order) :-0.5714167E-03  (-0.4098946E-03)
 number of electron     112.0001447 magnetization 
 augmentation part       37.8226451 magnetization 

 Free energy of the ion-electron system (eV)
  ---------------------------------------------------
  alpha Z        PSCENC =       339.31929130
  Ewald energy   TEWEN  =     -9066.09653331
  -1/2 Hartree   DENC   =     -8147.51107569
  -exchange  EXHF       =       340.06730982
  -V(xc)+E(xc)   XCENC  =       372.05821683
  PAW double counting   =     15923.97063659   -16409.03157939
  entropy T*S    EENTRO =         0.00058240
  eigenvalues    EBANDS =     -1743.35457812
  atomic energy  EATOM  =     18320.98302006
  ---------------------------------------------------
  free energy    TOTEN  =       -69.59471035 eV

[...]
     22      -2.2897      2.00000
     23      -1.9513      2.00000
     24      -1.6232      2.00000
     25      -1.2178      2.00000
     26      -1.0078      2.00000
     27      -0.9756      2.00000
     28      -0.7154      2.00000
     29      -0.5479      2.00000
     30      -0.3893      2.00000
     31      -0.2865      2.00000
     32      -0.1943      2.00000
     33      -0.1810      2.00000
     34      -0.1341      2.00000
     35      -0.0167      2.00000
     36       0.0211      2.00000
     37       1.2986      2.00000
     38       1.3099      2.00000
     39       1.3703      2.00000
     40       1.4131      2.00000
     41       1.4533      2.00000
     42       1.4676      2.00000
     43       1.5094      2.00000
     44       1.5503      2.00000
     45       1.7633      2.00000
     46       1.8936      2.00000
     47       1.9846      2.00000
     48       2.1532      2.00000
     49       2.3727      2.00000
     50       2.5758      2.00000
     51       2.7027      2.00000
     52       2.9106      2.00000
     53       3.0123      2.00000
     54       3.2161      2.00000
     55       3.3965      2.00000
     56       3.6539      2.00000
     57       6.3805     -0.00000
     58       6.5314     -0.00000
     59       7.7189      0.00000
     60       7.9056      0.00000
     61       8.3112      0.00000
     62       8.5743      0.00000
     63       9.3257      0.00000
     64       9.8434      0.00000
     65      10.0218      0.00000
     66      10.3588      0.00000
     67      10.5810      0.00000
     68      10.7889      0.00000
     69      10.9755      0.00000
     70      11.2520      0.00000
     71      11.3088      0.00000
     72      11.7051      0.00000
     73      12.2507      0.00000
     74      12.4623      0.00000
     75      13.0947      0.00000
     76      13.4869      0.00000
     77      13.8198      0.00000
     78      14.6883      0.00000
     79      15.0053      0.00000
     80      15.7196      0.00000

 k-point  40 :       0.2500   -0.2500    0.4000
  band No.  band energies     occupation 
      1     -68.6465      2.00000
      2     -68.6407      2.00000
      3     -68.6331      2.00000
      4     -68.6285      2.00000
      5     -68.6152      2.00000
      6     -68.6092      2.00000
      7     -68.5976      2.00000
      8     -68.5912      2.00000
      9     -68.5772      2.00000
     10     -68.5733      2.00000
     11     -68.5605      2.00000
     12     -68.5552      2.00000
     13     -12.2242      2.00000
     14     -11.8231      2.00000
     15     -10.8256      2.00000
     16     -10.6726      2.00000
     17     -10.3532      2.00000
     18     -10.2788      2.00000
     19      -5.4450      2.00000
     20      -5.1167      2.00000
     21      -2.4299      2.00000
     22      -2.1564      2.00000
     23      -2.0190      2.00000
     24      -1.5266      2.00000
     25      -1.3579      2.00000
     26      -1.1676      2.00000
     27      -0.9386      2.00000
     28      -0.8124      2.00000
     29      -0.5814      2.00000
     30      -0.5324      2.00000
     31      -0.2779      2.00000
     32      -0.2378      2.00000
     33      -0.1328      2.00000
     34      -0.0859      2.00000
     35      -0.0217      2.00000
     36       0.0365      2.00000
     37       1.3147      2.00000
     38       1.3474      2.00000
     39       1.3657      2.00000
     40       1.3978      2.00000
     41       1.4531      2.00000
     42       1.4840      2.00000
     43       1.5015      2.00000
     44       1.5672      2.00000
     45       1.8022      2.00000
     46       1.8472      2.00000
     47       1.9616      2.00000
     48       2.1097      2.00000
     49       2.2971      2.00000
     50       2.5289      2.00000
     51       2.6402      2.00000
     52       2.7701      2.00000
     53       2.9234      2.00000
     54       3.1584      2.00000
     55       3.3024      2.00000
     56       3.5734      2.00000
     57       6.5712     -0.00000
     58       6.7267     -0.00000
     59       7.9655      0.00000
     60       8.0062      0.00000
     61       8.7341      0.00000
     62       9.0926      0.00000
     63       9.4612      0.00000
     64       9.8274      0.00000
     65      10.2979      0.00000
     66      10.3678      0.00000
     67      10.7746      0.00000
     68      10.8506      0.00000
     69      11.1071      0.00000
     70      11.2713      0.00000
     71      11.3701      0.00000
     72      11.6184      0.00000
     73      12.0453      0.00000
     74      12.2956      0.00000
     75      12.6553      0.00000
     76      13.1172      0.00000
     77      13.2784      0.00000
     78      14.2451      0.00000
     79      15.6344      0.00000
     80      15.8422      0.00000

 k-point  41 :       0.5000   -0.2500    0.4000
  band No.  band energies     occupation 
      1     -68.6464      2.00000
      2     -68.6406      2.00000
      3     -68.6329      2.00000
      4     -68.6283      2.00000
      5     -68.6151      2.00000
      6     -68.6092      2.00000
      7     -68.5975      2.00000
      8     -68.5910      2.00000
      9     -68.5772      2.00000
     10     -68.5734      2.00000
     11     -68.5604      2.00000
     12     -68.5551      2.00000
     13     -12.0843      2.00000
     14     -11.7799      2.00000
     15     -10.8482      2.00000
     16     -10.7642      2.00000
     17     -10.5343      2.00000
     18     -10.3180      2.00000
     19      -5.4170      2.00000
     20      -4.9398      2.00000
     21      -2.4027      2.00000
     22      -2.1329      2.00000
     23      -1.8642      2.00000
     24      -1.7222      2.00000
     25      -1.4502      2.00000
     26      -1.1263      2.00000
     27      -0.8852      2.00000
     28      -0.6457      2.00000
     29      -0.6008      2.00000
     30      -0.4478      2.00000
     31      -0.2608      2.00000
     32      -0.1824      2.00000
     33      -0.1183      2.00000
     34      -0.0455      2.00000
     35      -0.0194      2.00000
     36       0.0236      2.00000
     37       1.2635      2.00000
     38       1.3175      2.00000
     39       1.4113      2.00000
     40       1.4399      2.00000
     41       1.4858      2.00000
     42       1.4932      2.00000
     43       1.5179      2.00000
     44       1.5768      2.00000
     45       1.7646      2.00000
     46       1.8413      2.00000
     47       2.1185      2.00000
     48       2.1858      2.00000
     49       2.3653      2.00000
     50       2.4604      2.00000
     51       2.4916      2.00000
     52       2.6927      2.00000
     53       2.8249      2.00000
     54       3.0868      2.00000
     55       3.2905      2.00000
     56       3.5200      2.00000
     57       6.5109     -0.00000
     58       6.5852     -0.00000
     59       7.4582      0.00000
     60       7.7235      0.00000
     61       8.5903      0.00000
     62       8.7475      0.00000
     63       9.3067      0.00000
     64       9.5331      0.00000
     65       9.9478      0.00000
     66      10.1846      0.00000
     67      10.6774      0.00000
     68      11.1154      0.00000
     69      11.2488      0.00000
     70      11.5698      0.00000
     71      11.7018      0.00000
     72      11.8931      0.00000
     73      12.2987      0.00000
     74      12.6542      0.00000
     75      13.0086      0.00000
     76      13.2314      0.00000
     77      13.6717      0.00000
     78      14.0777      0.00000
     79      14.3954      0.00000
     80      16.5139      0.00000

 k-point  42 :      -0.2500   -0.2500    0.4000
  band No.  band energies     occupation 
      1     -68.6465      2.00000
      2     -68.6408      2.00000
      3     -68.6329      2.00000
      4     -68.6283      2.00000
      5     -68.6151      2.00000
      6     -68.6093      2.00000
      7     -68.5975      2.00000
      8     -68.5910      2.00000
      9     -68.5772      2.00000
     10     -68.5734      2.00000
     11     -68.5606      2.00000
     12     -68.5553      2.00000
     13     -12.1832      2.00000
     14     -11.7098      2.00000
     15     -10.7209      2.00000
     16     -10.6965      2.00000
     17     -10.5872      2.00000
     18     -10.3955      2.00000
     19      -5.4430      2.00000
     20      -5.0714      2.00000
     21      -2.5094      2.00000
     22      -2.3821      2.00000
     23      -1.9645      2.00000
     24      -1.3661      2.00000
     25      -1.3313      2.00000
     26      -1.0580      2.00000
     27      -0.8339      2.00000
     28      -0.7726      2.00000
     29      -0.4214      2.00000
     30      -0.3364      2.00000
     31      -0.2705      2.00000
     32      -0.2057      2.00000
     33      -0.1394      2.00000
     34      -0.1363      2.00000
     35      -0.0103      2.00000
     36       0.0301      2.00000
     37       1.1752      2.00000
     38       1.3727      2.00000
     39       1.3990      2.00000
     40       1.4547      2.00000
     41       1.4562      2.00000
     42       1.5006      2.00000
     43       1.5193      2.00000
     44       1.5515      2.00000
     45       1.7436      2.00000
     46       1.8210      2.00000
     47       1.9764      2.00000
     48       2.2264      2.00000
     49       2.3984      2.00000
     50       2.6128      2.00000
     51       2.6531      2.00000
     52       2.9148      2.00000
     53       3.0691      2.00000
     54       3.1177      2.00000
     55       3.2822      2.00000
     56       3.5797      2.00000
     57       6.2960     -0.00000
     58       6.3878     -0.00000
     59       7.3609      0.00000
     60       7.5293      0.00000
     61       8.3149      0.00000
     62       8.3383      0.00000
     63       9.1069      0.00000
     64       9.3586      0.00000
     65       9.7144      0.00000
     66       9.9525      0.00000
     67      10.5267      0.00000
     68      10.9882      0.00000
     69      11.4200      0.00000
     70      11.5651      0.00000
     71      12.0203      0.00000
     72      12.2866      0.00000
     73      12.4289      0.00000
     74      12.4727      0.00000
     75      13.0318      0.00000
     76      13.1429      0.00000
     77      14.1385      0.00000
     78      14.4430      0.00000
     79      15.1652      0.00000
     80      15.8723      0.00000


--------------------------------------------------------------------------------------------------------


 soft charge-density along one line, spin component           1
         0         1         2         3         4         5         6         7         8         9
 total charge-density along one line
 
 pseudopotential strength for first ion, spin component:           1
-65.424   0.002   0.006   7.363  -0.000  -0.003   0.001   0.006
  0.002 -65.395  -0.005  -0.000   7.353   0.001  -0.001  -0.023
  0.006  -0.005 -65.385  -0.003   0.001   7.350  -0.036  -0.001
  7.363  -0.000  -0.003   6.110   0.000   0.001   0.002  -0.003
 -0.000   7.353   0.001   0.000   6.113  -0.000   0.000   0.007
 -0.003   0.001   7.350   0.001  -0.000   6.114   0.008   0.000
  0.001  -0.001  -0.036   0.002   0.000   0.008  -2.980  -0.003
  0.006  -0.023  -0.001  -0.003   0.007   0.000  -0.003  -2.985
  0.022   0.041   0.009  -0.005  -0.008  -0.003  -0.003   0.008
 -0.001  -0.017   0.006   0.000   0.005  -0.003   0.004   0.007
  0.025   0.000  -0.035  -0.007  -0.000   0.007  -0.000   0.007
  0.001  -0.001  -0.036   0.002   0.000   0.008  -3.627  -0.003
  0.006  -0.023  -0.001  -0.003   0.007   0.000  -0.003  -3.632
  0.022   0.041   0.009  -0.005  -0.008  -0.003  -0.003   0.008
 -0.001  -0.017   0.006   0.000   0.004  -0.003   0.004   0.007
  0.024   0.000  -0.034  -0.007  -0.000   0.006  -0.000   0.007
  0.007  -0.005   0.004  -0.001   0.001  -0.001  -0.002   0.000
  0.015  -0.009   0.009  -0.002   0.001  -0.002  -0.003   0.001
 total augmentation occupancy for first ion, spin component:           1
  2.000  -0.000   0.000  -0.003  -0.000   0.000   0.007  -0.005   0.001  -0.001  -0.005  -0.007   0.005  -0.001   0.001   0.004
 -0.000   2.000  -0.000  -0.000  -0.003   0.000  -0.001   0.005   0.004   0.001   0.000   0.001  -0.005  -0.005  -0.001  -0.000
  0.000  -0.000   2.000   0.000   0.000  -0.003  -0.000  -0.000  -0.001  -0.005  -0.004   0.001   0.000   0.001   0.005   0.005
 -0.003  -0.000   0.000   0.095   0.006  -0.005  -0.334   0.232  -0.075   0.011   0.017   0.281  -0.197   0.059  -0.007  -0.011
 -0.000  -0.003   0.000   0.006   0.102   0.001   0.021  -0.050  -0.443   0.017   0.011  -0.014   0.039   0.376  -0.012  -0.009
  0.000   0.000  -0.003  -0.005   0.001   0.099   0.098  -0.002  -0.013   0.236   0.354  -0.077   0.001   0.010  -0.202  -0.297
  0.007  -0.001  -0.000  -0.334   0.021   0.098   4.007  -0.793   0.095   0.216   0.147  -1.736   0.744  -0.088  -0.182  -0.142
 -0.005   0.005  -0.000   0.232  -0.050  -0.002  -0.793   3.515   0.302   0.157   0.296   0.744  -1.273  -0.225  -0.113  -0.205
  0.001   0.004  -0.001  -0.075  -0.443  -0.013   0.095   0.302   4.684  -0.047  -0.117  -0.088  -0.225  -2.394   0.041   0.087
 -0.001   0.001  -0.005   0.011   0.017   0.236   0.216   0.157  -0.047   3.635   0.797  -0.182  -0.113   0.041  -1.353  -0.759
 -0.005   0.000  -0.004   0.017   0.011   0.354   0.147   0.296  -0.117   0.797   3.994  -0.142  -0.205   0.087  -0.759  -1.741
 -0.007   0.001   0.001   0.281  -0.014  -0.077  -1.736   0.744  -0.088  -0.182  -0.142   1.442  -0.696   0.081   0.154   0.136
  0.005  -0.005   0.000  -0.197   0.039   0.001   0.744  -1.273  -0.225  -0.113  -0.205  -0.696   1.008   0.163   0.078   0.131
 -0.001  -0.005   0.001   0.059   0.376   0.010  -0.088  -0.225  -2.394   0.041   0.087   0.081   0.163   2.079  -0.035  -0.063
  0.001  -0.001   0.005  -0.007  -0.012  -0.202  -0.182  -0.113   0.041  -1.353  -0.759   0.154   0.078  -0.035   1.059   0.721
  0.004  -0.000   0.005  -0.011  -0.009  -0.297  -0.142  -0.205   0.087  -0.759  -1.741   0.136   0.131  -0.063   0.721   1.461
 -0.024   0.015  -0.013  -0.020   0.011  -0.006   0.081  -0.105  -0.021  -0.003   0.026  -0.064   0.092   0.033   0.003   0.005
  0.011  -0.007   0.006   0.001  -0.000  -0.000  -0.008   0.003  -0.004   0.004  -0.019   0.004  -0.006  -0.002  -0.001   0.003


------------------------ aborting loop because EDIFF is reached ----------------------------------------


    FORLOC:  cpu time    0.00: real time    0.00
    FORHF :  cpu time  603.45: real time  602.90
    FORNL :  cpu time    0.40: real time    0.40
    FORCOR:  cpu time    2.31: real time    2.31

 VOLUME and BASIS-vectors are now :
 -----------------------------------------------------------------------------
  energy-cutoff  :      400.00
  volume of cell :      221.90
      direct lattice vectors                 reciprocal lattice vectors
     3.224796000 -5.643830000  0.031572000     0.154525165 -0.088592321  0.053460880
     3.224796000  5.643830000  0.031572000     0.154525165  0.088592321  0.053460880
    -2.101946000  0.000000000  6.075537000    -0.001606004  0.000000000  0.164038877

  length of vectors
     6.500240234  6.500240234  6.428866683     0.185969598  0.185969598  0.164046738


 FORCES acting on ions:
    Electron-Ion                     Ewald-Force                    Non-Local-Force
 -----------------------------------------------------------------------------------------------
   -.149E+02 -.963E+02 0.113E+02   0.137E+02 0.939E+02 -.975E+01   0.103E+01 0.210E+01 -.135E+01
   -.130E+02 0.980E+02 0.121E+02   0.119E+02 -.956E+02 -.104E+02   0.927E+00 -.210E+01 -.145E+01
   0.255E+02 -.171E+02 0.440E+01   -.223E+02 0.169E+02 -.312E+01   -.284E+01 0.165E+00 -.112E+01
   0.241E+02 0.160E+02 0.498E+01   -.209E+02 -.159E+02 -.368E+01   -.280E+01 -.669E-01 -.114E+01
   -.106E+02 -.321E+02 -.114E+02   0.994E+01 0.307E+02 0.103E+02   0.625E+00 0.144E+01 0.117E+01
   -.110E+02 0.315E+02 -.111E+02   0.103E+02 -.301E+02 0.999E+01   0.682E+00 -.134E+01 0.113E+01
   -.135E+03 -.101E+02 -.492E+02   0.132E+03 0.101E+02 0.483E+02   0.278E+01 -.118E-01 0.735E+00
   0.702E+02 -.126E+03 0.961E+02   -.685E+02 0.123E+03 -.941E+02   -.156E+01 0.230E+01 -.187E+01
   0.664E+02 -.132E+03 -.505E+02   -.649E+02 0.130E+03 0.495E+02   -.127E+01 0.204E+01 0.851E+00
   0.704E+02 0.126E+03 0.962E+02   -.686E+02 -.123E+03 -.941E+02   -.157E+01 -.228E+01 -.188E+01
   -.135E+03 0.983E+01 -.492E+02   0.132E+03 -.986E+01 0.484E+02   0.278E+01 0.379E-01 0.735E+00
   0.666E+02 0.133E+03 -.497E+02   -.651E+02 -.130E+03 0.487E+02   -.136E+01 -.218E+01 0.868E+00
 -----------------------------------------------------------------------------------------------
   0.284E+01 -.108E+00 0.376E+01   -.284E-13 0.284E-13 -.782E-13   -.258E+01 0.968E-01 -.332E+01
 
 
 POSITION                                       TOTAL-FORCE (eV/Angst)
 -----------------------------------------------------------------------------------
      2.13385     -2.80652      0.74958        -0.003099     -0.000694     -0.004607
      1.08288      2.80652      3.78735        -0.012449      0.001130     -0.002349
      5.40423     -0.97432      0.77721         0.001861     -0.000905      0.001031
      4.35326      0.97432      3.81498         0.007365      0.009346     -0.001990
      1.02081     -0.97328      3.66185        -0.057698      0.097217      0.029850
      2.07178      0.97328      0.62409         0.002189     -0.008481      0.004289
      2.15090      4.69667      3.05304        -0.002936      0.013845     -0.001621
      1.11215     -0.89759      5.98620        -0.000886     -0.003070      0.000777
      2.13790     -2.74014      3.03881         0.078053     -0.128104     -0.017717
      2.16313      0.89759      2.94844        -0.007441      0.018645     -0.000215
      1.09993     -4.69667      6.09081         0.000667      0.004083     -0.001617
      1.09189      2.74882      6.07662        -0.005625     -0.003012     -0.005834
 -----------------------------------------------------------------------------------
    total drift:                               -0.058893     -0.001148     -0.054114


--------------------------------------------------------------------------------------------------------



  FREE ENERGIE OF THE ION-ELECTRON SYSTEM (eV)
  ---------------------------------------------------
  free  energy   TOTEN  =       -69.59505667 eV

  energy  without entropy=      -69.59563267  energy(sigma->0) =      -69.59524867
 


--------------------------------------------------------------------------------------------------------


    POTLOK:  cpu time    2.35: real time    2.35


--------------------------------------------------------------------------------------------------------


 writing wavefunctions
     LOOP+:  cpu time 7604.47: real time 7599.79
    4ORBIT:  cpu time    0.00: real time    0.00

 total amount of memory used by VASP on root node   155705. kBytes
========================================================================

   base      :      30000. kBytes
   nonl-proj :      74517. kBytes
   fftplans  :        702. kBytes
   grid      :       2400. kBytes
   one-center:        186. kBytes
   HF        :        194. kBytes
   nonlr-proj:       5130. kBytes
   wavefun   :      42576. kBytes
 
  
  
 General timing and accounting informations for this job:
 ========================================================
  
                  Total CPU time used (sec):     7643.545
                            User time (sec):     7628.110
                          System time (sec):       15.435
                         Elapsed time (sec):     7639.591
  
                   Maximum memory used (kb):      298468.
                   Average memory used (kb):           0.
  
                          Minor page faults:        78854
                          Major page faults:            0
                 Voluntary context switches:         3514
