<?xml version="1.0" encoding="ISO-8859-1"?>
<modeling>
 <generator>
  <i name="program" type="string">vasp </i>
  <i name="version" type="string">5.3.3  </i>
  <i name="subversion" type="string">18Dez12 (build Nov 13 2015 09:58:40) complex                          parallel </i>
  <i name="platform" type="string">LinuxIFC </i>
  <i name="date" type="string">2017 10 18 </i>
  <i name="time" type="string">13:18:59 </i>
 </generator>
 <incar>
  <i type="string" name="SYSTEM"> CGS</i>
  <i type="string" name="PREC">normal</i>
  <i type="string" name="ALGO"> D</i>
  <i type="logical" name="LDIAG"> T  </i>
  <i name="EDIFF">      0.00001000</i>
  <i name="ENCUT">    400.00000000</i>
  <i name="TIME">      0.40000000</i>
  <i type="int" name="ISMEAR">     1</i>
  <i name="SIGMA">      0.10000000</i>
  <i type="logical" name="LHFCALC"> T  </i>
  <i type="string" name="GGA"> PE</i>
  <i name="HFSCREEN">      0.20000000</i>
  <i name="AEXX">      0.25000000</i>
  <i type="string" name="PRECFOCK">fast</i>
 </incar>
 <kpoints>
  <generation param="Gamma">
   <v type="int" name="divisions">       4        4        5 </v>
   <v name="usershift">      0.00000000       0.00000000       0.00000000 </v>
   <v name="genvec1">      0.25000000       0.00000000       0.00000000 </v>
   <v name="genvec2">      0.00000000       0.25000000       0.00000000 </v>
   <v name="genvec3">      0.00000000       0.00000000       0.20000000 </v>
   <v name="shift">      0.00000000       0.00000000       0.00000000 </v>
  </generation>
  <varray name="kpointlist" >
   <v>       0.00000000       0.00000000       0.00000000 </v>
   <v>       0.25000000       0.00000000       0.00000000 </v>
   <v>       0.50000000       0.00000000       0.00000000 </v>
   <v>       0.00000000       0.25000000       0.00000000 </v>
   <v>       0.25000000       0.25000000       0.00000000 </v>
   <v>       0.50000000       0.25000000      -0.00000000 </v>
   <v>      -0.25000000       0.25000000       0.00000000 </v>
   <v>       0.00000000       0.50000000       0.00000000 </v>
   <v>       0.25000000       0.50000000      -0.00000000 </v>
   <v>       0.50000000       0.50000000       0.00000000 </v>
   <v>      -0.00000000      -0.00000000       0.20000000 </v>
   <v>       0.25000000       0.00000000       0.20000000 </v>
   <v>       0.50000000       0.00000000       0.20000000 </v>
   <v>      -0.25000000      -0.00000000       0.20000000 </v>
   <v>       0.00000000       0.25000000       0.20000000 </v>
   <v>       0.25000000       0.25000000       0.20000000 </v>
   <v>       0.50000000       0.25000000       0.20000000 </v>
   <v>      -0.25000000       0.25000000       0.20000000 </v>
   <v>       0.00000000       0.50000000       0.20000000 </v>
   <v>       0.25000000       0.50000000       0.20000000 </v>
   <v>       0.50000000       0.50000000       0.20000000 </v>
   <v>      -0.25000000       0.50000000       0.20000000 </v>
   <v>      -0.00000000      -0.25000000       0.20000000 </v>
   <v>       0.25000000      -0.25000000       0.20000000 </v>
   <v>       0.50000000      -0.25000000       0.20000000 </v>
   <v>      -0.25000000      -0.25000000       0.20000000 </v>
   <v>      -0.00000000      -0.00000000       0.40000000 </v>
   <v>       0.25000000       0.00000000       0.40000000 </v>
   <v>       0.50000000       0.00000000       0.40000000 </v>
   <v>      -0.25000000       0.00000000       0.40000000 </v>
   <v>       0.00000000       0.25000000       0.40000000 </v>
   <v>       0.25000000       0.25000000       0.40000000 </v>
   <v>       0.50000000       0.25000000       0.40000000 </v>
   <v>      -0.25000000       0.25000000       0.40000000 </v>
   <v>       0.00000000       0.50000000       0.40000000 </v>
   <v>       0.25000000       0.50000000       0.40000000 </v>
   <v>       0.50000000       0.50000000       0.40000000 </v>
   <v>      -0.25000000       0.50000000       0.40000000 </v>
   <v>       0.00000000      -0.25000000       0.40000000 </v>
   <v>       0.25000000      -0.25000000       0.40000000 </v>
   <v>       0.50000000      -0.25000000       0.40000000 </v>
   <v>      -0.25000000      -0.25000000       0.40000000 </v>
  </varray>
  <varray name="weights" >
   <v>       0.01250000 </v>
   <v>       0.02500000 </v>
   <v>       0.01250000 </v>
   <v>       0.02500000 </v>
   <v>       0.02500000 </v>
   <v>       0.02500000 </v>
   <v>       0.02500000 </v>
   <v>       0.01250000 </v>
   <v>       0.02500000 </v>
   <v>       0.01250000 </v>
   <v>       0.02500000 </v>
   <v>       0.02500000 </v>
   <v>       0.02500000 </v>
   <v>       0.02500000 </v>
   <v>       0.02500000 </v>
   <v>       0.02500000 </v>
   <v>       0.02500000 </v>
   <v>       0.02500000 </v>
   <v>       0.02500000 </v>
   <v>       0.02500000 </v>
   <v>       0.02500000 </v>
   <v>       0.02500000 </v>
   <v>       0.02500000 </v>
   <v>       0.02500000 </v>
   <v>       0.02500000 </v>
   <v>       0.02500000 </v>
   <v>       0.02500000 </v>
   <v>       0.02500000 </v>
   <v>       0.02500000 </v>
   <v>       0.02500000 </v>
   <v>       0.02500000 </v>
   <v>       0.02500000 </v>
   <v>       0.02500000 </v>
   <v>       0.02500000 </v>
   <v>       0.02500000 </v>
   <v>       0.02500000 </v>
   <v>       0.02500000 </v>
   <v>       0.02500000 </v>
   <v>       0.02500000 </v>
   <v>       0.02500000 </v>
   <v>       0.02500000 </v>
   <v>       0.02500000 </v>
  </varray>
 </kpoints>
 <parameters>
  <separator name="general" >
   <i type="string" name="SYSTEM">CGS</i>
   <i type="logical" name="LCOMPAT"> F  </i>
  </separator>
  <separator name="electronic" >
   <i type="string" name="PREC">normal</i>
   <i name="ENMAX">    400.00000000</i>
   <i name="ENAUG">    758.23300000</i>
   <i name="EDIFF">      0.00001000</i>
   <i type="int" name="IALGO">    53</i>
   <i type="int" name="IWAVPR">    10</i>
   <i type="int" name="NBANDS">    80</i>
   <i name="NELECT">    112.00000000</i>
   <i type="int" name="TURBO">     0</i>
   <i type="int" name="IRESTART">     0</i>
   <i type="int" name="NREBOOT">     0</i>
   <i type="int" name="NMIN">     0</i>
   <i name="EREF">      0.00000000</i>
   <separator name="electronic smearing" >
    <i type="int" name="ISMEAR">     1</i>
    <i name="SIGMA">      0.10000000</i>
    <i name="KSPACING">      0.50000000</i>
    <i type="logical" name="KGAMMA"> T  </i>
   </separator>
   <separator name="electronic projectors" >
    <i type="logical" name="LREAL"> F  </i>
    <v name="ROPT">      0.00000000      0.00000000      0.00000000</v>
    <i type="int" name="LMAXPAW">  -100</i>
    <i type="int" name="LMAXMIX">     2</i>
    <i type="logical" name="NLSPLINE"> F  </i>
   </separator>
   <separator name="electronic startup" >
    <i type="int" name="ISTART">     1</i>
    <i type="int" name="ICHARG">     0</i>
    <i type="int" name="INIWAV">     1</i>
   </separator>
   <separator name="electronic spin" >
    <i type="int" name="ISPIN">     1</i>
    <i type="logical" name="LNONCOLLINEAR"> F  </i>
    <v name="MAGMOM">      1.00000000      1.00000000      1.00000000      1.00000000      1.00000000      1.00000000      1.00000000      1.00000000      1.00000000      1.00000000      1.00000000      1.00000000</v>
    <i name="NUPDOWN">     -1.00000000</i>
    <i type="logical" name="LSORBIT"> F  </i>
    <v name="SAXIS">      0.00000000      0.00000000      1.00000000</v>
    <i type="logical" name="LSPIRAL"> F  </i>
    <v name="QSPIRAL">      0.00000000      0.00000000      0.00000000</v>
    <i type="logical" name="LZEROZ"> F  </i>
   </separator>
   <separator name="electronic exchange-correlation" >
    <i type="logical" name="LASPH"> F  </i>
    <i type="logical" name="LMETAGGA"> F  </i>
   </separator>
   <separator name="electronic convergence" >
    <i type="int" name="NELM">    60</i>
    <i type="int" name="NELMDL">     0</i>
    <i type="int" name="NELMIN">     2</i>
    <i name="ENINI">    400.00000000</i>
    <separator name="electronic convergence detail" >
     <i type="logical" name="LDIAG"> T  </i>
     <i type="logical" name="LSUBROT"> T  </i>
     <i name="WEIMIN">      0.00000000</i>
     <i name="EBREAK">      0.00000003</i>
     <i name="DEPER">      0.30000000</i>
     <i type="int" name="NRMM">     4</i>
     <i name="TIME">      0.40000000</i>
    </separator>
   </separator>
   <separator name="electronic mixer" >
    <i name="AMIX">      0.40000000</i>
    <i name="BMIX">      1.00000000</i>
    <i name="AMIN">      0.10000000</i>
    <i name="AMIX_MAG">      1.60000000</i>
    <i name="BMIX_MAG">      1.00000000</i>
    <separator name="electronic mixer details" >
     <i type="int" name="IMIX">     4</i>
     <i type="int" name="MAXMIX">   -45</i>
     <i name="WC">    100.00000000</i>
     <i type="int" name="INIMIX">     1</i>
     <i type="int" name="MIXPRE">     1</i>
     <i type="int" name="MREMOVE">     5</i>
    </separator>
   </separator>
   <separator name="electronic dipolcorrection" >
    <i type="logical" name="LDIPOL"> F  </i>
    <i type="logical" name="LMONO"> F  </i>
    <i type="int" name="IDIPOL">     0</i>
    <i name="EPSILON">      1.00000000</i>
    <v name="DIPOL">   -100.00000000   -100.00000000   -100.00000000</v>
    <i name="EFIELD">      0.00000000</i>
   </separator>
  </separator>
  <separator name="grids" >
   <i type="int" name="NGX">    32</i>
   <i type="int" name="NGY">    32</i>
   <i type="int" name="NGZ">    32</i>
   <i type="int" name="NGXF">    64</i>
   <i type="int" name="NGYF">    64</i>
   <i type="int" name="NGZF">    64</i>
   <i type="logical" name="ADDGRID"> F  </i>
  </separator>
  <separator name="ionic" >
   <i type="int" name="NSW">     0</i>
   <i type="int" name="IBRION">    -1</i>
   <i type="int" name="ISIF">     0</i>
   <i name="PSTRESS">      0.00000000</i>
   <i name="EDIFFG">      0.00010000</i>
   <i type="int" name="NFREE">     0</i>
   <i name="POTIM">      0.50000000</i>
   <i name="SMASS">     -3.00000000</i>
   <i name="SCALEE">      1.00000000</i>
  </separator>
  <separator name="ionic md" >
   <i name="TEBEG">      0.00010000</i>
   <i name="TEEND">      0.00010000</i>
   <i type="int" name="NBLOCK">     1</i>
   <i type="int" name="KBLOCK">     1</i>
   <i type="int" name="NPACO">   256</i>
   <i name="APACO">     16.00000000</i>
  </separator>
  <separator name="symmetry" >
   <i type="int" name="ISYM">     3</i>
   <i name="SYMPREC">      0.00001000</i>
  </separator>
  <separator name="dos" >
   <i type="logical" name="LORBIT"> F  </i>
   <v name="RWIGS">     -1.00000000     -1.00000000     -1.00000000</v>
   <i type="int" name="NEDOS">   301</i>
   <i name="EMIN">     10.00000000</i>
   <i name="EMAX">    -10.00000000</i>
   <i name="EFERMI">      0.00000000</i>
  </separator>
  <separator name="writing" >
   <i type="int" name="NWRITE">     2</i>
   <i type="logical" name="LWAVE"> T  </i>
   <i type="logical" name="LCHARG"> T  </i>
   <i type="logical" name="LPARD"> F  </i>
   <i type="logical" name="LVTOT"> F  </i>
   <i type="logical" name="LVHAR"> F  </i>
   <i type="logical" name="LELF"> F  </i>
   <i type="logical" name="LOPTICS"> F  </i>
   <v name="STM">      0.00000000      0.00000000      0.00000000      0.00000000      0.00000000      0.00000000      0.00000000</v>
  </separator>
  <separator name="performance" >
   <i type="int" name="NPAR">    16</i>
   <i type="int" name="NSIM">     4</i>
   <i type="int" name="NBLK">    -1</i>
   <i type="logical" name="LPLANE"> T  </i>
   <i type="logical" name="LSCALAPACK"> T  </i>
   <i type="logical" name="LSCAAWARE"> F  </i>
   <i type="logical" name="LSCALU"> F  </i>
   <i type="logical" name="LASYNC"> F  </i>
   <i type="logical" name="LORBITALREAL"> F  </i>
  </separator>
  <separator name="miscellaneous" >
   <i type="int" name="IDIOT">     3</i>
   <i type="logical" name="LMUSIC"> F  </i>
   <v name="POMASS">     63.54600000     72.61000000     32.06600000</v>
   <v name="DARWINR">      0.00000000      0.00000000      0.00000000</v>
   <v name="DARWINV">      1.00000000      1.00000000      1.00000000</v>
   <i type="logical" name="LCORR"> T  </i>
  </separator>
  <i type="logical" name="GGA_COMPAT"> T  </i>
  <i type="logical" name="LBERRY"> F  </i>
  <i type="int" name="ICORELEVEL">     0</i>
  <i type="logical" name="LDAU"> F  </i>
  <i type="int" name="I_CONSTRAINED_M">     0</i>
  <separator name="electronic exchange-correlation" >
   <i type="string" name="GGA">PE</i>
   <i type="int" name="VOSKOWN">     0</i>
   <i type="logical" name="LHFCALC"> T  </i>
   <i type="string" name="PRECFOCK">fast</i>
   <i type="logical" name="LSYMGRAD"> F  </i>
   <i type="logical" name="LHFONE"> F  </i>
   <i type="logical" name="LRHFCALC"> F  </i>
   <i type="logical" name="LTHOMAS"> F  </i>
   <i type="logical" name="LMODELHF"> F  </i>
   <i name="ENCUT4O">     -1.00000000</i>
   <i type="int" name="EXXOEP">     0</i>
   <i type="int" name="FOURORBIT">     0</i>
   <i name="AEXX">      0.25000000</i>
   <i name="HFALPHA">     -1.00000000</i>
   <i name="MCALPHA">      0.00000000</i>
   <i name="ALDAX">      0.75000000</i>
   <i name="AGGAX">      0.75000000</i>
   <i name="ALDAC">      1.00000000</i>
   <i name="AGGAC">      1.00000000</i>
   <i type="int" name="NKREDX">     1</i>
   <i type="int" name="NKREDY">     1</i>
   <i type="int" name="NKREDZ">     1</i>
   <i type="logical" name="SHIFTRED"> F  </i>
   <i type="logical" name="ODDONLY"> F  </i>
   <i type="logical" name="EVENONLY"> F  </i>
   <i type="int" name="LMAXFOCK">     4</i>
   <i type="int" name="NMAXFOCKAE">     1</i>
   <i type="logical" name="LFOCKAEDFT"> F  </i>
   <i name="HFSCREEN">      0.20000000</i>
   <i name="HFSCREENC">      0.20000000</i>
   <i type="int" name="NBANDSGWLOW">     1</i>
  </separator>
  <separator name="vdW DFT" >
   <i type="logical" name="LUSE_VDW"> F  </i>
   <i name="Zab_VDW">     -0.84910000</i>
   <i name="PARAM1">      0.12340000</i>
   <i name="PARAM2">      1.00000000</i>
   <i name="PARAM3">      0.00000000</i>
  </separator>
  <separator name="model GW" >
   <i type="int" name="MODEL_GW">     0</i>
   <i name="MODEL_EPS0">     11.09505304</i>
   <i name="MODEL_ALPHA">      1.00000000</i>
  </separator>
  <separator name="linear response parameters" >
   <i type="logical" name="LEPSILON"> F  </i>
   <i type="logical" name="LRPA"> F  </i>
   <i type="logical" name="LNABLA"> F  </i>
   <i type="logical" name="LVEL"> F  </i>
   <i type="int" name="KINTER">     0</i>
   <i name="CSHIFT">      0.10000000</i>
   <i name="OMEGAMAX">     -1.00000000</i>
   <i name="DEG_THRESHOLD">      0.00200000</i>
  </separator>
  <separator name="orbital magnetization" >
   <i type="logical" name="NUCIND"> F  </i>
   <v name="MAGPOS">      0.00000000      0.00000000      0.00000000</v>
   <i type="logical" name="LNICSALL"> T  </i>
   <i type="logical" name="ORBITALMAG"> F  </i>
   <i type="logical" name="LMAGBLOCH"> F  </i>
   <i type="logical" name="LCHIMAG"> F  </i>
   <i type="logical" name="LGAUGE"> T  </i>
   <i type="int" name="MAGATOM">     0</i>
   <v name="MAGDIPOL">      0.00000000      0.00000000      0.00000000</v>
   <v name="AVECCONST">      0.00000000      0.00000000      0.00000000</v>
  </separator>
  <separator name="response functions" >
   <i type="logical" name="LADDER"> F  </i>
   <i type="logical" name="LFXC"> F  </i>
   <i type="logical" name="LHARTREE"> T  </i>
   <i type="int" name="IBSE">     0</i>
   <i type="logical" name="LTCTE"> F  </i>
   <i type="logical" name="LTETE"> F  </i>
   <i type="logical" name="LTRIPLET"> F  </i>
   <i type="logical" name="LFXCEPS"> F  </i>
   <i type="logical" name="L2ORDER"> F  </i>
   <i type="logical" name="LUSEW"> F  </i>
   <i name="ENCUTGW">     -2.00000000</i>
   <i name="ENCUTGWSOFT">     -2.00000000</i>
   <i name="ENCUTLF">     -1.00000000</i>
   <i type="int" name="LMAXMP2">    -1</i>
   <i name="SCISSOR">      0.00000000</i>
   <i type="int" name="NOMEGA">     0</i>
   <i type="int" name="NOMEGAR">     0</i>
   <i type="int" name="NBANDSGW">    -1</i>
   <i type="int" name="NBANDSO">    -1</i>
   <i type="int" name="NBANDSV">    -1</i>
   <i type="int" name="NELM">     1</i>
   <i type="int" name="DIM">     3</i>
   <i type="int" name="ANTIRES">     0</i>
   <i name="OMEGAMAX">    -30.00000000</i>
   <i name="OMEGATL">   -200.00000000</i>
   <i type="int" name="OMEGAGRID">     0</i>
   <i name="CSHIFT">     -0.10000000</i>
   <i type="logical" name="SELFENERGY"> F  </i>
   <i type="logical" name="LSPECTRAL"> F  </i>
   <i type="logical" name="ODDONLYGW"> F  </i>
   <i type="logical" name="EVENONLYGW"> F  </i>
   <i type="int" name="NKREDLFX">     1</i>
   <i type="int" name="NKREDLFY">     1</i>
   <i type="int" name="NKREDLFZ">     1</i>
   <i type="int" name="MAXMEM">  1800</i>
   <i type="int" name="TELESCOPE">     0</i>
  </separator>
 </parameters>
 <atominfo>
  <atoms>      12 </atoms>
  <types>       3 </types>
  <array name="atoms" >
   <dimension dim="1">ion</dimension>
   <field type="string">element</field>
   <field type="int">atomtype</field>
   <set>
    <rc><c>Cu</c><c>   1</c></rc>
    <rc><c>Cu</c><c>   1</c></rc>
    <rc><c>Cu</c><c>   1</c></rc>
    <rc><c>Cu</c><c>   1</c></rc>
    <rc><c>Ge</c><c>   2</c></rc>
    <rc><c>Ge</c><c>   2</c></rc>
    <rc><c>S </c><c>   3</c></rc>
    <rc><c>S </c><c>   3</c></rc>
    <rc><c>S </c><c>   3</c></rc>
    <rc><c>S </c><c>   3</c></rc>
    <rc><c>S </c><c>   3</c></rc>
    <rc><c>S </c><c>   3</c></rc>
   </set>
  </array>
  <array name="atomtypes" >
   <dimension dim="1">type</dimension>
   <field type="int">atomspertype</field>
   <field type="string">element</field>
   <field>mass</field>
   <field>valence</field>
   <field type="string">pseudopotential</field>
   <set>
    <rc><c>   4</c><c>Cu</c><c>     63.54600000</c><c>     17.00000000</c><c>  PAW_PBE Cu_pv 06Sep2000               </c></rc>
    <rc><c>   2</c><c>Ge</c><c>     72.61000000</c><c>      4.00000000</c><c>  PAW_PBE Ge 05Jan2001                  </c></rc>
    <rc><c>   6</c><c>S </c><c>     32.06600000</c><c>      6.00000000</c><c>  PAW_PBE S 17Jan2003                   </c></rc>
   </set>
  </array>
 </atominfo>
 <structure name="initialpos" >
  <crystal>
   <varray name="basis" >
    <v>       3.22479600      -5.64383000       0.03157200 </v>
    <v>       3.22479600       5.64383000       0.03157200 </v>
    <v>      -2.10194600       0.00000000       6.07553700 </v>
   </varray>
   <i name="volume">    221.90106089 </i>
   <varray name="rec_basis" >
    <v>       0.15452516      -0.08859232       0.05346088 </v>
    <v>       0.15452516       0.08859232       0.05346088 </v>
    <v>      -0.00160600       0.00000000       0.16403888 </v>
   </varray>
  </crystal>
  <varray name="positions" >
   <v>       0.61844300       0.12117100       0.11953300 </v>
   <v>       0.12117100       0.61844300       0.61953300 </v>
   <v>       0.96295700       0.79032200       0.11881300 </v>
   <v>       0.79032200       0.96295700       0.61881300 </v>
   <v>       0.43973200       0.26728100       0.59904700 </v>
   <v>       0.26728100       0.43973200       0.09904700 </v>
   <v>       0.07949800       0.91167500       0.49736300 </v>
   <v>       0.57140300       0.41236400       0.98018400 </v>
   <v>       0.73557260       0.25006200       0.49504900 </v>
   <v>       0.41236400       0.57140300       0.48018400 </v>
   <v>       0.91167500       0.07949800       0.99736300 </v>
   <v>       0.25006200       0.73711100       0.99504900 </v>
  </varray>
 </structure>
 <calculation>
  <scstep>
   <time name="total">  322.32  322.07</time>
   <energy>
    <i name="alphaZ">    339.31929130 </i>
    <i name="ewald">  -9066.09653331 </i>
    <i name="hartreedc">  -8067.42678651 </i>
    <i name="XCdc">    369.90494489 </i>
    <i name="pawpsdc">  16899.84093475 </i>
    <i name="pawaedc"> -17392.65828888 </i>
    <i name="eentropy">     -0.00148298 </i>
    <i name="bandstr">  -1655.77877256 </i>
    <i name="atom">  18320.98302006 </i>
    <i name="e_fr_energy">     75.53971570 </i>
    <i name="e_wo_entrp">     75.54119868 </i>
    <i name="e_0_energy">     75.54021003 </i>
   </energy>
  </scstep>
  <scstep>
   <time name="total">  328.59  328.37</time>
   <energy>
    <i name="e_fr_energy">     -8.38936689 </i>
    <i name="e_wo_entrp">     -8.38855942 </i>
    <i name="e_0_energy">     -8.38909774 </i>
   </energy>
  </scstep>
  <scstep>
   <time name="total">  332.52  332.25</time>
   <energy>
    <i name="e_fr_energy">    -15.16762679 </i>
    <i name="e_wo_entrp">    -15.16792662 </i>
    <i name="e_0_energy">    -15.16772673 </i>
   </energy>
  </scstep>
  <scstep>
   <time name="total">  336.08  335.82</time>
   <energy>
    <i name="e_fr_energy">    -22.64078757 </i>
    <i name="e_wo_entrp">    -22.64111047 </i>
    <i name="e_0_energy">    -22.64089520 </i>
   </energy>
  </scstep>
  <scstep>
   <time name="total">  338.25  337.97</time>
   <energy>
    <i name="e_fr_energy">    -60.81207483 </i>
    <i name="e_wo_entrp">    -60.81269556 </i>
    <i name="e_0_energy">    -60.81228174 </i>
   </energy>
  </scstep>
  <scstep>
   <time name="total">  330.69  330.45</time>
   <energy>
    <i name="e_fr_energy">    -65.92858917 </i>
    <i name="e_wo_entrp">    -65.92926769 </i>
    <i name="e_0_energy">    -65.92881534 </i>
   </energy>
  </scstep>
  <scstep>
   <time name="total">  334.41  334.24</time>
   <energy>
    <i name="e_fr_energy">    -67.46978400 </i>
    <i name="e_wo_entrp">    -67.47023173 </i>
    <i name="e_0_energy">    -67.46993325 </i>
   </energy>
  </scstep>
  <scstep>
   <time name="total">  333.59  333.31</time>
   <energy>
    <i name="e_fr_energy">    -69.08415963 </i>
    <i name="e_wo_entrp">    -69.08491324 </i>
    <i name="e_0_energy">    -69.08441083 </i>
   </energy>
  </scstep>
  <scstep>
   <time name="total">  331.76  331.48</time>
   <energy>
    <i name="e_fr_energy">    -69.39452541 </i>
    <i name="e_wo_entrp">    -69.39541902 </i>
    <i name="e_0_energy">    -69.39482328 </i>
   </energy>
  </scstep>
  <scstep>
   <time name="total">  333.97  333.77</time>
   <energy>
    <i name="e_fr_energy">    -69.49844059 </i>
    <i name="e_wo_entrp">    -69.49916976 </i>
    <i name="e_0_energy">    -69.49868365 </i>
   </energy>
  </scstep>
  <scstep>
   <time name="total">  335.30  335.01</time>
   <energy>
    <i name="e_fr_energy">    -69.56814409 </i>
    <i name="e_wo_entrp">    -69.56875850 </i>
    <i name="e_0_energy">    -69.56834889 </i>
   </energy>
  </scstep>
  <scstep>
   <time name="total">  332.42  332.14</time>
   <energy>
    <i name="e_fr_energy">    -69.58050123 </i>
    <i name="e_wo_entrp">    -69.58106378 </i>
    <i name="e_0_energy">    -69.58068874 </i>
   </energy>
  </scstep>
  <scstep>
   <time name="total">  334.28  334.00</time>
   <energy>
    <i name="e_fr_energy">    -69.59017377 </i>
    <i name="e_wo_entrp">    -69.59072445 </i>
    <i name="e_0_energy">    -69.59035733 </i>
   </energy>
  </scstep>
  <scstep>
   <time name="total">  333.82  333.56</time>
   <energy>
    <i name="e_fr_energy">    -69.59263135 </i>
    <i name="e_wo_entrp">    -69.59319994 </i>
    <i name="e_0_energy">    -69.59282088 </i>
   </energy>
  </scstep>
  <scstep>
   <time name="total">  335.81  335.53</time>
   <energy>
    <i name="e_fr_energy">    -69.59413894 </i>
    <i name="e_wo_entrp">    -69.59472051 </i>
    <i name="e_0_energy">    -69.59433279 </i>
   </energy>
  </scstep>
  <scstep>
   <time name="total">  331.17  330.88</time>
   <energy>
    <i name="e_fr_energy">    -69.59471035 </i>
    <i name="e_wo_entrp">    -69.59529275 </i>
    <i name="e_0_energy">    -69.59490449 </i>
   </energy>
  </scstep>
  <scstep>
   <time name="total">  335.20  334.92</time>
   <energy>
    <i name="e_fr_energy">    -69.59488354 </i>
    <i name="e_wo_entrp">    -69.59546294 </i>
    <i name="e_0_energy">    -69.59507667 </i>
   </energy>
  </scstep>
  <scstep>
   <time name="total">  330.16  329.88</time>
   <energy>
    <i name="e_fr_energy">    -69.59500066 </i>
    <i name="e_wo_entrp">    -69.59557706 </i>
    <i name="e_0_energy">    -69.59519279 </i>
   </energy>
  </scstep>
  <scstep>
   <time name="total">  330.56  330.28</time>
   <energy>
    <i name="e_fr_energy">    -69.59502952 </i>
    <i name="e_wo_entrp">    -69.59560453 </i>
    <i name="e_0_energy">    -69.59522119 </i>
   </energy>
  </scstep>
  <scstep>
   <time name="total">  338.37  338.08</time>
   <energy>
    <i name="e_fr_energy">    -69.59504928 </i>
    <i name="e_wo_entrp">    -69.59562469 </i>
    <i name="e_0_energy">    -69.59524109 </i>
   </energy>
  </scstep>
  <scstep>
   <time name="total">  335.78  335.50</time>
   <energy>
    <i name="alphaZ">    339.31929130 </i>
    <i name="ewald">  -9066.09653331 </i>
    <i name="hartreedc">  -8148.10407652 </i>
    <i name="XCdc">    372.07379609 </i>
    <i name="pawpsdc">  15922.55676873 </i>
    <i name="pawaedc"> -16407.71825244 </i>
    <i name="eentropy">      0.00057600 </i>
    <i name="bandstr">  -1742.68858900 </i>
    <i name="atom">  18320.98302006 </i>
    <i name="e_fr_energy">    -69.59505667 </i>
    <i name="e_wo_entrp">    -69.59563267 </i>
    <i name="e_0_energy">    -69.59524867 </i>
   </energy>
  </scstep>
  <structure>
   <crystal>
    <varray name="basis" >
     <v>       3.22479600      -5.64383000       0.03157200 </v>
     <v>       3.22479600       5.64383000       0.03157200 </v>
     <v>      -2.10194600       0.00000000       6.07553700 </v>
    </varray>
    <i name="volume">    221.90106089 </i>
    <varray name="rec_basis" >
     <v>       0.15452516      -0.08859232       0.05346088 </v>
     <v>       0.15452516       0.08859232       0.05346088 </v>
     <v>      -0.00160600       0.00000000       0.16403888 </v>
    </varray>
   </crystal>
   <varray name="positions" >
    <v>       0.61844300       0.12117100       0.11953300 </v>
    <v>       0.12117100       0.61844300       0.61953300 </v>
    <v>       0.96295700       0.79032200       0.11881300 </v>
    <v>       0.79032200       0.96295700       0.61881300 </v>
    <v>       0.43973200       0.26728100       0.59904700 </v>
    <v>       0.26728100       0.43973200       0.09904700 </v>
    <v>       0.07949800       0.91167500       0.49736300 </v>
    <v>       0.57140300       0.41236400       0.98018400 </v>
    <v>       0.73557260       0.25006200       0.49504900 </v>
    <v>       0.41236400       0.57140300       0.48018400 </v>
    <v>       0.91167500       0.07949800       0.99736300 </v>
    <v>       0.25006200       0.73711100       0.99504900 </v>
   </varray>
  </structure>
  <varray name="forces" >
   <v>      -0.00309871      -0.00069390      -0.00460654 </v>
   <v>      -0.01244861       0.00113028      -0.00234855 </v>
   <v>       0.00186115      -0.00090452       0.00103086 </v>
   <v>       0.00736474       0.00934617      -0.00198981 </v>
   <v>      -0.05769841       0.09721719       0.02985041 </v>
   <v>       0.00218868      -0.00848143       0.00428901 </v>
   <v>      -0.00293624       0.01384471      -0.00162059 </v>
   <v>      -0.00088581      -0.00306984       0.00077732 </v>
   <v>       0.07805273      -0.12810442      -0.01771692 </v>
   <v>      -0.00744087       0.01864507      -0.00021483 </v>
   <v>       0.00066678       0.00408291      -0.00161664 </v>
   <v>      -0.00562541      -0.00301222      -0.00583372 </v>
  </varray>
  <energy>
   <i name="e_fr_energy">    -69.59505667 </i>
   <i name="e_wo_entrp">    -69.59524867 </i>
   <i name="e_0_energy">      0.00057600 </i>
  </energy>
  <time name="totalsc"> 7604.47 7599.79</time>
  <eigenvalues>
   <array>
    <dimension dim="1">band</dimension>
    <dimension dim="2">kpoint</dimension>
    <dimension dim="3">spin</dimension>
    <field>eigene</field>
    <field>occ</field>
    <set>
     <set comment="spin 1">
      <set comment="kpoint 1">
       <r>  -68.6467    1.0000 </r>
       <r>  -68.6409    1.0000 </r>
       <r>  -68.6332    1.0000 </r>
       <r>  -68.6285    1.0000 </r>
       <r>  -68.6153    1.0000 </r>
       <r>  -68.6094    1.0000 </r>
       <r>  -68.5977    1.0000 </r>
       <r>  -68.5912    1.0000 </r>
       <r>  -68.5774    1.0000 </r>
       <r>  -68.5735    1.0000 </r>
       <r>  -68.5607    1.0000 </r>
       <r>  -68.5553    1.0000 </r>
       <r>  -12.7248    1.0000 </r>
       <r>  -11.1370    1.0000 </r>
       <r>  -10.9184    1.0000 </r>
       <r>  -10.6034    1.0000 </r>
       <r>  -10.2553    1.0000 </r>
       <r>  -10.2375    1.0000 </r>
       <r>   -5.9828    1.0000 </r>
       <r>   -4.9865    1.0000 </r>
       <r>   -2.7624    1.0000 </r>
       <r>   -2.2124    1.0000 </r>
       <r>   -2.0716    1.0000 </r>
       <r>   -1.9243    1.0000 </r>
       <r>   -1.5768    1.0000 </r>
       <r>   -0.9797    1.0000 </r>
       <r>   -0.9502    1.0000 </r>
       <r>   -0.6848    1.0000 </r>
       <r>   -0.3982    1.0000 </r>
       <r>   -0.2764    1.0000 </r>
       <r>   -0.2571    1.0000 </r>
       <r>   -0.2334    1.0000 </r>
       <r>   -0.1880    1.0000 </r>
       <r>   -0.1523    1.0000 </r>
       <r>   -0.0369    1.0000 </r>
       <r>    0.0334    1.0000 </r>
       <r>    1.3518    1.0000 </r>
       <r>    1.3635    1.0000 </r>
       <r>    1.4152    1.0000 </r>
       <r>    1.4587    1.0000 </r>
       <r>    1.4727    1.0000 </r>
       <r>    1.4756    1.0000 </r>
       <r>    1.5219    1.0000 </r>
       <r>    1.5350    1.0000 </r>
       <r>    1.5754    1.0000 </r>
       <r>    1.7124    1.0000 </r>
       <r>    1.8927    1.0000 </r>
       <r>    1.9284    1.0000 </r>
       <r>    2.0604    1.0000 </r>
       <r>    2.6527    1.0000 </r>
       <r>    2.7293    1.0000 </r>
       <r>    3.0880    1.0000 </r>
       <r>    3.2163    1.0000 </r>
       <r>    4.0016    1.0050 </r>
       <r>    4.0333    1.0135 </r>
       <r>    4.1676    0.8589 </r>
       <r>    5.5439   -0.0000 </r>
       <r>    6.3648   -0.0000 </r>
       <r>    7.6316    0.0000 </r>
       <r>    7.9872    0.0000 </r>
       <r>    8.6283    0.0000 </r>
       <r>    8.7927    0.0000 </r>
       <r>    9.5857    0.0000 </r>
       <r>    9.7373    0.0000 </r>
       <r>    9.8152    0.0000 </r>
       <r>   10.4185    0.0000 </r>
       <r>   10.5740    0.0000 </r>
       <r>   10.7036    0.0000 </r>
       <r>   10.7089    0.0000 </r>
       <r>   11.2821    0.0000 </r>
       <r>   11.7077    0.0000 </r>
       <r>   12.3855    0.0000 </r>
       <r>   12.4530    0.0000 </r>
       <r>   12.7299    0.0000 </r>
       <r>   13.3216    0.0000 </r>
       <r>   13.3781    0.0000 </r>
       <r>   13.8347    0.0000 </r>
       <r>   13.8826    0.0000 </r>
       <r>   14.1456    0.0000 </r>
       <r>   14.1776    0.0000 </r>
      </set>
      <set comment="kpoint 2">
       <r>  -68.6466    1.0000 </r>
       <r>  -68.6409    1.0000 </r>
       <r>  -68.6332    1.0000 </r>
       <r>  -68.6285    1.0000 </r>
       <r>  -68.6152    1.0000 </r>
       <r>  -68.6093    1.0000 </r>
       <r>  -68.5977    1.0000 </r>
       <r>  -68.5913    1.0000 </r>
       <r>  -68.5773    1.0000 </r>
       <r>  -68.5735    1.0000 </r>
       <r>  -68.5606    1.0000 </r>
       <r>  -68.5553    1.0000 </r>
       <r>  -12.6000    1.0000 </r>
       <r>  -11.1367    1.0000 </r>
       <r>  -10.9821    1.0000 </r>
       <r>  -10.6761    1.0000 </r>
       <r>  -10.3693    1.0000 </r>
       <r>  -10.2816    1.0000 </r>
       <r>   -5.9313    1.0000 </r>
       <r>   -4.7751    1.0000 </r>
       <r>   -2.6469    1.0000 </r>
       <r>   -2.2545    1.0000 </r>
       <r>   -2.0890    1.0000 </r>
       <r>   -1.6900    1.0000 </r>
       <r>   -1.3500    1.0000 </r>
       <r>   -0.9976    1.0000 </r>
       <r>   -0.7670    1.0000 </r>
       <r>   -0.6195    1.0000 </r>
       <r>   -0.5524    1.0000 </r>
       <r>   -0.4389    1.0000 </r>
       <r>   -0.3556    1.0000 </r>
       <r>   -0.2407    1.0000 </r>
       <r>   -0.1904    1.0000 </r>
       <r>   -0.1693    1.0000 </r>
       <r>   -0.0408    1.0000 </r>
       <r>    0.0416    1.0000 </r>
       <r>    1.2807    1.0000 </r>
       <r>    1.3383    1.0000 </r>
       <r>    1.3563    1.0000 </r>
       <r>    1.3930    1.0000 </r>
       <r>    1.4284    1.0000 </r>
       <r>    1.4737    1.0000 </r>
       <r>    1.5008    1.0000 </r>
       <r>    1.5305    1.0000 </r>
       <r>    1.7264    1.0000 </r>
       <r>    1.8602    1.0000 </r>
       <r>    2.0588    1.0000 </r>
       <r>    2.0958    1.0000 </r>
       <r>    2.2318    1.0000 </r>
       <r>    2.4137    1.0000 </r>
       <r>    2.5552    1.0000 </r>
       <r>    2.8247    1.0000 </r>
       <r>    2.9474    1.0000 </r>
       <r>    3.2419    1.0000 </r>
       <r>    3.6579    1.0000 </r>
       <r>    4.0364    1.0147 </r>
       <r>    6.1753   -0.0000 </r>
       <r>    6.9115   -0.0000 </r>
       <r>    8.1382    0.0000 </r>
       <r>    8.2700    0.0000 </r>
       <r>    8.6033    0.0000 </r>
       <r>    9.0154    0.0000 </r>
       <r>    9.2442    0.0000 </r>
       <r>    9.5317    0.0000 </r>
       <r>    9.8703    0.0000 </r>
       <r>   10.3735    0.0000 </r>
       <r>   10.6328    0.0000 </r>
       <r>   10.8162    0.0000 </r>
       <r>   10.9325    0.0000 </r>
       <r>   11.1865    0.0000 </r>
       <r>   11.6575    0.0000 </r>
       <r>   11.7700    0.0000 </r>
       <r>   12.1186    0.0000 </r>
       <r>   12.4397    0.0000 </r>
       <r>   12.6183    0.0000 </r>
       <r>   13.0072    0.0000 </r>
       <r>   13.5053    0.0000 </r>
       <r>   13.8758    0.0000 </r>
       <r>   14.2139    0.0000 </r>
       <r>   14.7086    0.0000 </r>
      </set>
      <set comment="kpoint 3">
       <r>  -68.6465    1.0000 </r>
       <r>  -68.6408    1.0000 </r>
       <r>  -68.6331    1.0000 </r>
       <r>  -68.6284    1.0000 </r>
       <r>  -68.6152    1.0000 </r>
       <r>  -68.6093    1.0000 </r>
       <r>  -68.5976    1.0000 </r>
       <r>  -68.5912    1.0000 </r>
       <r>  -68.5773    1.0000 </r>
       <r>  -68.5734    1.0000 </r>
       <r>  -68.5605    1.0000 </r>
       <r>  -68.5551    1.0000 </r>
       <r>  -12.4408    1.0000 </r>
       <r>  -11.2568    1.0000 </r>
       <r>  -10.9576    1.0000 </r>
       <r>  -10.7642    1.0000 </r>
       <r>  -10.4291    1.0000 </r>
       <r>  -10.3633    1.0000 </r>
       <r>   -5.8691    1.0000 </r>
       <r>   -4.5493    1.0000 </r>
       <r>   -2.4953    1.0000 </r>
       <r>   -2.2478    1.0000 </r>
       <r>   -1.9458    1.0000 </r>
       <r>   -1.4637    1.0000 </r>
       <r>   -1.2276    1.0000 </r>
       <r>   -1.1063    1.0000 </r>
       <r>   -0.9022    1.0000 </r>
       <r>   -0.8653    1.0000 </r>
       <r>   -0.5979    1.0000 </r>
       <r>   -0.5361    1.0000 </r>
       <r>   -0.2732    1.0000 </r>
       <r>   -0.2024    1.0000 </r>
       <r>   -0.1984    1.0000 </r>
       <r>   -0.1434    1.0000 </r>
       <r>   -0.0223    1.0000 </r>
       <r>    0.0822    1.0000 </r>
       <r>    1.2562    1.0000 </r>
       <r>    1.3311    1.0000 </r>
       <r>    1.3479    1.0000 </r>
       <r>    1.3976    1.0000 </r>
       <r>    1.4741    1.0000 </r>
       <r>    1.4812    1.0000 </r>
       <r>    1.5018    1.0000 </r>
       <r>    1.5529    1.0000 </r>
       <r>    1.7528    1.0000 </r>
       <r>    1.7916    1.0000 </r>
       <r>    1.9713    1.0000 </r>
       <r>    2.1478    1.0000 </r>
       <r>    2.3230    1.0000 </r>
       <r>    2.3639    1.0000 </r>
       <r>    2.5539    1.0000 </r>
       <r>    2.6703    1.0000 </r>
       <r>    2.9363    1.0000 </r>
       <r>    3.0780    1.0000 </r>
       <r>    3.2470    1.0000 </r>
       <r>    3.8595    1.0000 </r>
       <r>    6.3909   -0.0000 </r>
       <r>    7.1022    0.0000 </r>
       <r>    7.9878    0.0000 </r>
       <r>    8.2032    0.0000 </r>
       <r>    8.5186    0.0000 </r>
       <r>    8.8223    0.0000 </r>
       <r>    9.3280    0.0000 </r>
       <r>    9.8817    0.0000 </r>
       <r>   10.0187    0.0000 </r>
       <r>   10.5235    0.0000 </r>
       <r>   10.6898    0.0000 </r>
       <r>   10.7936    0.0000 </r>
       <r>   11.1387    0.0000 </r>
       <r>   11.4086    0.0000 </r>
       <r>   11.6090    0.0000 </r>
       <r>   11.7769    0.0000 </r>
       <r>   11.9374    0.0000 </r>
       <r>   12.4999    0.0000 </r>
       <r>   12.7831    0.0000 </r>
       <r>   12.9997    0.0000 </r>
       <r>   13.3995    0.0000 </r>
       <r>   13.5400    0.0000 </r>
       <r>   13.9385    0.0000 </r>
       <r>   14.2750    0.0000 </r>
      </set>
      <set comment="kpoint 4">
       <r>  -68.6466    1.0000 </r>
       <r>  -68.6409    1.0000 </r>
       <r>  -68.6332    1.0000 </r>
       <r>  -68.6285    1.0000 </r>
       <r>  -68.6152    1.0000 </r>
       <r>  -68.6093    1.0000 </r>
       <r>  -68.5977    1.0000 </r>
       <r>  -68.5912    1.0000 </r>
       <r>  -68.5773    1.0000 </r>
       <r>  -68.5734    1.0000 </r>
       <r>  -68.5606    1.0000 </r>
       <r>  -68.5553    1.0000 </r>
       <r>  -12.5999    1.0000 </r>
       <r>  -11.1365    1.0000 </r>
       <r>  -10.9818    1.0000 </r>
       <r>  -10.6767    1.0000 </r>
       <r>  -10.3719    1.0000 </r>
       <r>  -10.2791    1.0000 </r>
       <r>   -5.9310    1.0000 </r>
       <r>   -4.7752    1.0000 </r>
       <r>   -2.6474    1.0000 </r>
       <r>   -2.2534    1.0000 </r>
       <r>   -2.0885    1.0000 </r>
       <r>   -1.6917    1.0000 </r>
       <r>   -1.3454    1.0000 </r>
       <r>   -0.9988    1.0000 </r>
       <r>   -0.7691    1.0000 </r>
       <r>   -0.6192    1.0000 </r>
       <r>   -0.5505    1.0000 </r>
       <r>   -0.4357    1.0000 </r>
       <r>   -0.3587    1.0000 </r>
       <r>   -0.2410    1.0000 </r>
       <r>   -0.1893    1.0000 </r>
       <r>   -0.1668    1.0000 </r>
       <r>   -0.0459    1.0000 </r>
       <r>    0.0413    1.0000 </r>
       <r>    1.2811    1.0000 </r>
       <r>    1.3368    1.0000 </r>
       <r>    1.3554    1.0000 </r>
       <r>    1.3948    1.0000 </r>
       <r>    1.4290    1.0000 </r>
       <r>    1.4733    1.0000 </r>
       <r>    1.4988    1.0000 </r>
       <r>    1.5330    1.0000 </r>
       <r>    1.7264    1.0000 </r>
       <r>    1.8582    1.0000 </r>
       <r>    2.0580    1.0000 </r>
       <r>    2.0943    1.0000 </r>
       <r>    2.2330    1.0000 </r>
       <r>    2.4139    1.0000 </r>
       <r>    2.5577    1.0000 </r>
       <r>    2.8245    1.0000 </r>
       <r>    2.9434    1.0000 </r>
       <r>    3.2396    1.0000 </r>
       <r>    3.6597    1.0000 </r>
       <r>    4.0366    1.0148 </r>
       <r>    6.1769   -0.0000 </r>
       <r>    6.9143   -0.0000 </r>
       <r>    8.1379    0.0000 </r>
       <r>    8.2747    0.0000 </r>
       <r>    8.6011    0.0000 </r>
       <r>    9.0146    0.0000 </r>
       <r>    9.2512    0.0000 </r>
       <r>    9.5314    0.0000 </r>
       <r>    9.8620    0.0000 </r>
       <r>   10.3720    0.0000 </r>
       <r>   10.6347    0.0000 </r>
       <r>   10.8124    0.0000 </r>
       <r>   10.9343    0.0000 </r>
       <r>   11.1902    0.0000 </r>
       <r>   11.6605    0.0000 </r>
       <r>   11.7691    0.0000 </r>
       <r>   12.1147    0.0000 </r>
       <r>   12.4464    0.0000 </r>
       <r>   12.6166    0.0000 </r>
       <r>   13.0055    0.0000 </r>
       <r>   13.5151    0.0000 </r>
       <r>   13.8979    0.0000 </r>
       <r>   14.2691    0.0000 </r>
       <r>   14.8401    0.0000 </r>
      </set>
      <set comment="kpoint 5">
       <r>  -68.6466    1.0000 </r>
       <r>  -68.6409    1.0000 </r>
       <r>  -68.6331    1.0000 </r>
       <r>  -68.6284    1.0000 </r>
       <r>  -68.6154    1.0000 </r>
       <r>  -68.6094    1.0000 </r>
       <r>  -68.5976    1.0000 </r>
       <r>  -68.5911    1.0000 </r>
       <r>  -68.5775    1.0000 </r>
       <r>  -68.5736    1.0000 </r>
       <r>  -68.5607    1.0000 </r>
       <r>  -68.5553    1.0000 </r>
       <r>  -12.4446    1.0000 </r>
       <r>  -11.1996    1.0000 </r>
       <r>  -10.9439    1.0000 </r>
       <r>  -10.8770    1.0000 </r>
       <r>  -10.3918    1.0000 </r>
       <r>  -10.3561    1.0000 </r>
       <r>   -5.8739    1.0000 </r>
       <r>   -4.5227    1.0000 </r>
       <r>   -2.4196    1.0000 </r>
       <r>   -2.2483    1.0000 </r>
       <r>   -1.7927    1.0000 </r>
       <r>   -1.6841    1.0000 </r>
       <r>   -1.3554    1.0000 </r>
       <r>   -1.2995    1.0000 </r>
       <r>   -1.0791    1.0000 </r>
       <r>   -0.6828    1.0000 </r>
       <r>   -0.5256    1.0000 </r>
       <r>   -0.2946    1.0000 </r>
       <r>   -0.2812    1.0000 </r>
       <r>   -0.2213    1.0000 </r>
       <r>   -0.1862    1.0000 </r>
       <r>   -0.1226    1.0000 </r>
       <r>   -0.0894    1.0000 </r>
       <r>    0.0820    1.0000 </r>
       <r>    1.2946    1.0000 </r>
       <r>    1.3129    1.0000 </r>
       <r>    1.4172    1.0000 </r>
       <r>    1.4278    1.0000 </r>
       <r>    1.4647    1.0000 </r>
       <r>    1.4844    1.0000 </r>
       <r>    1.4958    1.0000 </r>
       <r>    1.5721    1.0000 </r>
       <r>    1.6719    1.0000 </r>
       <r>    1.8813    1.0000 </r>
       <r>    1.9423    1.0000 </r>
       <r>    2.1349    1.0000 </r>
       <r>    2.2800    1.0000 </r>
       <r>    2.3201    1.0000 </r>
       <r>    2.5591    1.0000 </r>
       <r>    2.6503    1.0000 </r>
       <r>    2.9000    1.0000 </r>
       <r>    2.9443    1.0000 </r>
       <r>    3.6964    1.0000 </r>
       <r>    3.8307    1.0000 </r>
       <r>    6.1793   -0.0000 </r>
       <r>    6.9974    0.0000 </r>
       <r>    8.0055    0.0000 </r>
       <r>    8.3346    0.0000 </r>
       <r>    8.4375    0.0000 </r>
       <r>    8.5742    0.0000 </r>
       <r>    9.1465    0.0000 </r>
       <r>    9.2489    0.0000 </r>
       <r>   10.3609    0.0000 </r>
       <r>   10.5001    0.0000 </r>
       <r>   10.9169    0.0000 </r>
       <r>   11.1829    0.0000 </r>
       <r>   11.3283    0.0000 </r>
       <r>   11.5594    0.0000 </r>
       <r>   11.8082    0.0000 </r>
       <r>   11.9570    0.0000 </r>
       <r>   12.3130    0.0000 </r>
       <r>   12.5055    0.0000 </r>
       <r>   12.7087    0.0000 </r>
       <r>   12.9183    0.0000 </r>
       <r>   13.3383    0.0000 </r>
       <r>   13.4463    0.0000 </r>
       <r>   14.2572    0.0000 </r>
       <r>   14.3647    0.0000 </r>
      </set>
      <set comment="kpoint 6">
       <r>  -68.6464    1.0000 </r>
       <r>  -68.6407    1.0000 </r>
       <r>  -68.6331    1.0000 </r>
       <r>  -68.6285    1.0000 </r>
       <r>  -68.6151    1.0000 </r>
       <r>  -68.6092    1.0000 </r>
       <r>  -68.5976    1.0000 </r>
       <r>  -68.5912    1.0000 </r>
       <r>  -68.5772    1.0000 </r>
       <r>  -68.5734    1.0000 </r>
       <r>  -68.5605    1.0000 </r>
       <r>  -68.5552    1.0000 </r>
       <r>  -12.4446    1.0000 </r>
       <r>  -11.3624    1.0000 </r>
       <r>  -10.9387    1.0000 </r>
       <r>  -10.7371    1.0000 </r>
       <r>  -10.3943    1.0000 </r>
       <r>  -10.2737    1.0000 </r>
       <r>   -5.9464    1.0000 </r>
       <r>   -4.6428    1.0000 </r>
       <r>   -2.3928    1.0000 </r>
       <r>   -2.2283    1.0000 </r>
       <r>   -2.0607    1.0000 </r>
       <r>   -1.6409    1.0000 </r>
       <r>   -1.3654    1.0000 </r>
       <r>   -1.2817    1.0000 </r>
       <r>   -1.0225    1.0000 </r>
       <r>   -0.5126    1.0000 </r>
       <r>   -0.4833    1.0000 </r>
       <r>   -0.3285    1.0000 </r>
       <r>   -0.2807    1.0000 </r>
       <r>   -0.2141    1.0000 </r>
       <r>   -0.1499    1.0000 </r>
       <r>   -0.1320    1.0000 </r>
       <r>   -0.0044    1.0000 </r>
       <r>    0.1162    1.0000 </r>
       <r>    1.2487    1.0000 </r>
       <r>    1.3157    1.0000 </r>
       <r>    1.3854    1.0000 </r>
       <r>    1.4393    1.0000 </r>
       <r>    1.4642    1.0000 </r>
       <r>    1.4929    1.0000 </r>
       <r>    1.4987    1.0000 </r>
       <r>    1.5508    1.0000 </r>
       <r>    1.7493    1.0000 </r>
       <r>    1.8294    1.0000 </r>
       <r>    1.9248    1.0000 </r>
       <r>    2.1351    1.0000 </r>
       <r>    2.2216    1.0000 </r>
       <r>    2.3873    1.0000 </r>
       <r>    2.5614    1.0000 </r>
       <r>    2.7886    1.0000 </r>
       <r>    2.9781    1.0000 </r>
       <r>    3.3104    1.0000 </r>
       <r>    3.5977    1.0000 </r>
       <r>    3.7470    1.0000 </r>
       <r>    6.0934   -0.0000 </r>
       <r>    6.9451    0.0000 </r>
       <r>    7.6142    0.0000 </r>
       <r>    8.0682    0.0000 </r>
       <r>    8.4165    0.0000 </r>
       <r>    8.6198    0.0000 </r>
       <r>    8.9866    0.0000 </r>
       <r>    9.1526    0.0000 </r>
       <r>   10.0865    0.0000 </r>
       <r>   10.3344    0.0000 </r>
       <r>   10.7322    0.0000 </r>
       <r>   11.1109    0.0000 </r>
       <r>   11.4623    0.0000 </r>
       <r>   11.5903    0.0000 </r>
       <r>   11.7995    0.0000 </r>
       <r>   12.0812    0.0000 </r>
       <r>   12.4765    0.0000 </r>
       <r>   12.9122    0.0000 </r>
       <r>   13.0332    0.0000 </r>
       <r>   13.8323    0.0000 </r>
       <r>   14.2195    0.0000 </r>
       <r>   14.6550    0.0000 </r>
       <r>   15.4345    0.0000 </r>
       <r>   15.6430    0.0000 </r>
      </set>
      <set comment="kpoint 7">
       <r>  -68.6466    1.0000 </r>
       <r>  -68.6409    1.0000 </r>
       <r>  -68.6331    1.0000 </r>
       <r>  -68.6285    1.0000 </r>
       <r>  -68.6152    1.0000 </r>
       <r>  -68.6092    1.0000 </r>
       <r>  -68.5977    1.0000 </r>
       <r>  -68.5912    1.0000 </r>
       <r>  -68.5773    1.0000 </r>
       <r>  -68.5734    1.0000 </r>
       <r>  -68.5606    1.0000 </r>
       <r>  -68.5553    1.0000 </r>
       <r>  -12.6026    1.0000 </r>
       <r>  -11.2604    1.0000 </r>
       <r>  -10.9910    1.0000 </r>
       <r>  -10.5693    1.0000 </r>
       <r>  -10.3728    1.0000 </r>
       <r>  -10.1819    1.0000 </r>
       <r>   -6.0088    1.0000 </r>
       <r>   -4.8960    1.0000 </r>
       <r>   -2.6481    1.0000 </r>
       <r>   -2.3167    1.0000 </r>
       <r>   -1.9762    1.0000 </r>
       <r>   -1.6475    1.0000 </r>
       <r>   -1.4930    1.0000 </r>
       <r>   -1.1864    1.0000 </r>
       <r>   -0.7893    1.0000 </r>
       <r>   -0.5830    1.0000 </r>
       <r>   -0.4451    1.0000 </r>
       <r>   -0.3329    1.0000 </r>
       <r>   -0.2915    1.0000 </r>
       <r>   -0.2297    1.0000 </r>
       <r>   -0.1724    1.0000 </r>
       <r>   -0.1285    1.0000 </r>
       <r>   -0.0070    1.0000 </r>
       <r>    0.0742    1.0000 </r>
       <r>    1.2605    1.0000 </r>
       <r>    1.3228    1.0000 </r>
       <r>    1.3660    1.0000 </r>
       <r>    1.4252    1.0000 </r>
       <r>    1.4323    1.0000 </r>
       <r>    1.4776    1.0000 </r>
       <r>    1.5059    1.0000 </r>
       <r>    1.5440    1.0000 </r>
       <r>    1.7265    1.0000 </r>
       <r>    1.8145    1.0000 </r>
       <r>    1.9961    1.0000 </r>
       <r>    2.0734    1.0000 </r>
       <r>    2.4194    1.0000 </r>
       <r>    2.4611    1.0000 </r>
       <r>    2.5274    1.0000 </r>
       <r>    2.8736    1.0000 </r>
       <r>    3.1404    1.0000 </r>
       <r>    3.2269    1.0000 </r>
       <r>    3.7821    1.0000 </r>
       <r>    4.0639    1.0269 </r>
       <r>    5.9837   -0.0000 </r>
       <r>    6.6922   -0.0000 </r>
       <r>    7.5406    0.0000 </r>
       <r>    8.2226    0.0000 </r>
       <r>    8.6238    0.0000 </r>
       <r>    8.9151    0.0000 </r>
       <r>    9.3128    0.0000 </r>
       <r>    9.4353    0.0000 </r>
       <r>    9.8055    0.0000 </r>
       <r>   10.2719    0.0000 </r>
       <r>   10.5398    0.0000 </r>
       <r>   10.8318    0.0000 </r>
       <r>   10.9677    0.0000 </r>
       <r>   11.3782    0.0000 </r>
       <r>   11.4640    0.0000 </r>
       <r>   11.7338    0.0000 </r>
       <r>   12.1060    0.0000 </r>
       <r>   12.6646    0.0000 </r>
       <r>   12.9444    0.0000 </r>
       <r>   13.1020    0.0000 </r>
       <r>   13.3507    0.0000 </r>
       <r>   13.5156    0.0000 </r>
       <r>   14.4760    0.0000 </r>
       <r>   14.7549    0.0000 </r>
      </set>
      <set comment="kpoint 8">
       <r>  -68.6465    1.0000 </r>
       <r>  -68.6407    1.0000 </r>
       <r>  -68.6331    1.0000 </r>
       <r>  -68.6284    1.0000 </r>
       <r>  -68.6152    1.0000 </r>
       <r>  -68.6093    1.0000 </r>
       <r>  -68.5976    1.0000 </r>
       <r>  -68.5912    1.0000 </r>
       <r>  -68.5773    1.0000 </r>
       <r>  -68.5734    1.0000 </r>
       <r>  -68.5605    1.0000 </r>
       <r>  -68.5552    1.0000 </r>
       <r>  -12.4406    1.0000 </r>
       <r>  -11.2566    1.0000 </r>
       <r>  -10.9570    1.0000 </r>
       <r>  -10.7650    1.0000 </r>
       <r>  -10.4350    1.0000 </r>
       <r>  -10.3579    1.0000 </r>
       <r>   -5.8685    1.0000 </r>
       <r>   -4.5495    1.0000 </r>
       <r>   -2.4955    1.0000 </r>
       <r>   -2.2474    1.0000 </r>
       <r>   -1.9471    1.0000 </r>
       <r>   -1.4637    1.0000 </r>
       <r>   -1.2262    1.0000 </r>
       <r>   -1.1028    1.0000 </r>
       <r>   -0.8967    1.0000 </r>
       <r>   -0.8637    1.0000 </r>
       <r>   -0.5995    1.0000 </r>
       <r>   -0.5350    1.0000 </r>
       <r>   -0.2727    1.0000 </r>
       <r>   -0.2049    1.0000 </r>
       <r>   -0.2008    1.0000 </r>
       <r>   -0.1411    1.0000 </r>
       <r>   -0.0276    1.0000 </r>
       <r>    0.0819    1.0000 </r>
       <r>    1.2556    1.0000 </r>
       <r>    1.3279    1.0000 </r>
       <r>    1.3484    1.0000 </r>
       <r>    1.3999    1.0000 </r>
       <r>    1.4716    1.0000 </r>
       <r>    1.4801    1.0000 </r>
       <r>    1.5018    1.0000 </r>
       <r>    1.5566    1.0000 </r>
       <r>    1.7523    1.0000 </r>
       <r>    1.7946    1.0000 </r>
       <r>    1.9688    1.0000 </r>
       <r>    2.1455    1.0000 </r>
       <r>    2.3210    1.0000 </r>
       <r>    2.3629    1.0000 </r>
       <r>    2.5482    1.0000 </r>
       <r>    2.6684    1.0000 </r>
       <r>    2.9380    1.0000 </r>
       <r>    3.0756    1.0000 </r>
       <r>    3.2506    1.0000 </r>
       <r>    3.8603    1.0000 </r>
       <r>    6.3921   -0.0000 </r>
       <r>    7.1066    0.0000 </r>
       <r>    7.9808    0.0000 </r>
       <r>    8.2073    0.0000 </r>
       <r>    8.5363    0.0000 </r>
       <r>    8.8277    0.0000 </r>
       <r>    9.3282    0.0000 </r>
       <r>    9.8913    0.0000 </r>
       <r>   10.0083    0.0000 </r>
       <r>   10.5135    0.0000 </r>
       <r>   10.6915    0.0000 </r>
       <r>   10.7886    0.0000 </r>
       <r>   11.1429    0.0000 </r>
       <r>   11.4070    0.0000 </r>
       <r>   11.6068    0.0000 </r>
       <r>   11.7670    0.0000 </r>
       <r>   11.9402    0.0000 </r>
       <r>   12.5022    0.0000 </r>
       <r>   12.8200    0.0000 </r>
       <r>   13.0334    0.0000 </r>
       <r>   13.5529    0.0000 </r>
       <r>   13.6861    0.0000 </r>
       <r>   14.5501    0.0000 </r>
       <r>   15.2442    0.0000 </r>
      </set>
      <set comment="kpoint 9">
       <r>  -68.6464    1.0000 </r>
       <r>  -68.6407    1.0000 </r>
       <r>  -68.6331    1.0000 </r>
       <r>  -68.6285    1.0000 </r>
       <r>  -68.6151    1.0000 </r>
       <r>  -68.6093    1.0000 </r>
       <r>  -68.5976    1.0000 </r>
       <r>  -68.5912    1.0000 </r>
       <r>  -68.5772    1.0000 </r>
       <r>  -68.5734    1.0000 </r>
       <r>  -68.5605    1.0000 </r>
       <r>  -68.5552    1.0000 </r>
       <r>  -12.4445    1.0000 </r>
       <r>  -11.3624    1.0000 </r>
       <r>  -10.9382    1.0000 </r>
       <r>  -10.7377    1.0000 </r>
       <r>  -10.3959    1.0000 </r>
       <r>  -10.2723    1.0000 </r>
       <r>   -5.9462    1.0000 </r>
       <r>   -4.6428    1.0000 </r>
       <r>   -2.3938    1.0000 </r>
       <r>   -2.2285    1.0000 </r>
       <r>   -2.0610    1.0000 </r>
       <r>   -1.6383    1.0000 </r>
       <r>   -1.3622    1.0000 </r>
       <r>   -1.2824    1.0000 </r>
       <r>   -1.0224    1.0000 </r>
       <r>   -0.5130    1.0000 </r>
       <r>   -0.4840    1.0000 </r>
       <r>   -0.3273    1.0000 </r>
       <r>   -0.2817    1.0000 </r>
       <r>   -0.2131    1.0000 </r>
       <r>   -0.1483    1.0000 </r>
       <r>   -0.1300    1.0000 </r>
       <r>   -0.0095    1.0000 </r>
       <r>    0.1148    1.0000 </r>
       <r>    1.2474    1.0000 </r>
       <r>    1.3180    1.0000 </r>
       <r>    1.3832    1.0000 </r>
       <r>    1.4382    1.0000 </r>
       <r>    1.4635    1.0000 </r>
       <r>    1.4927    1.0000 </r>
       <r>    1.4988    1.0000 </r>
       <r>    1.5528    1.0000 </r>
       <r>    1.7487    1.0000 </r>
       <r>    1.8308    1.0000 </r>
       <r>    1.9229    1.0000 </r>
       <r>    2.1348    1.0000 </r>
       <r>    2.2228    1.0000 </r>
       <r>    2.3842    1.0000 </r>
       <r>    2.5588    1.0000 </r>
       <r>    2.7895    1.0000 </r>
       <r>    2.9772    1.0000 </r>
       <r>    3.3106    1.0000 </r>
       <r>    3.6003    1.0000 </r>
       <r>    3.7479    1.0000 </r>
       <r>    6.0946   -0.0000 </r>
       <r>    6.9473    0.0000 </r>
       <r>    7.6138    0.0000 </r>
       <r>    8.0711    0.0000 </r>
       <r>    8.4162    0.0000 </r>
       <r>    8.6213    0.0000 </r>
       <r>    8.9815    0.0000 </r>
       <r>    9.1548    0.0000 </r>
       <r>   10.0875    0.0000 </r>
       <r>   10.3358    0.0000 </r>
       <r>   10.7318    0.0000 </r>
       <r>   11.1056    0.0000 </r>
       <r>   11.4563    0.0000 </r>
       <r>   11.5726    0.0000 </r>
       <r>   11.7867    0.0000 </r>
       <r>   12.0346    0.0000 </r>
       <r>   12.5262    0.0000 </r>
       <r>   12.6807    0.0000 </r>
       <r>   12.9117    0.0000 </r>
       <r>   13.2060    0.0000 </r>
       <r>   14.2282    0.0000 </r>
       <r>   14.7678    0.0000 </r>
       <r>   15.2477    0.0000 </r>
       <r>   15.9087    0.0000 </r>
      </set>
      <set comment="kpoint 10">
       <r>  -68.6463    1.0000 </r>
       <r>  -68.6405    1.0000 </r>
       <r>  -68.6329    1.0000 </r>
       <r>  -68.6283    1.0000 </r>
       <r>  -68.6150    1.0000 </r>
       <r>  -68.6091    1.0000 </r>
       <r>  -68.5974    1.0000 </r>
       <r>  -68.5910    1.0000 </r>
       <r>  -68.5772    1.0000 </r>
       <r>  -68.5733    1.0000 </r>
       <r>  -68.5603    1.0000 </r>
       <r>  -68.5550    1.0000 </r>
       <r>  -12.4360    1.0000 </r>
       <r>  -11.5096    1.0000 </r>
       <r>  -10.9135    1.0000 </r>
       <r>  -10.6167    1.0000 </r>
       <r>  -10.4052    1.0000 </r>
       <r>  -10.2002    1.0000 </r>
       <r>   -6.0254    1.0000 </r>
       <r>   -4.8104    1.0000 </r>
       <r>   -2.3118    1.0000 </r>
       <r>   -2.2675    1.0000 </r>
       <r>   -2.0973    1.0000 </r>
       <r>   -1.7028    1.0000 </r>
       <r>   -1.2487    1.0000 </r>
       <r>   -1.1118    1.0000 </r>
       <r>   -0.8417    1.0000 </r>
       <r>   -0.7837    1.0000 </r>
       <r>   -0.7260    1.0000 </r>
       <r>   -0.2409    1.0000 </r>
       <r>   -0.1962    1.0000 </r>
       <r>   -0.1785    1.0000 </r>
       <r>   -0.1513    1.0000 </r>
       <r>   -0.0384    1.0000 </r>
       <r>    0.0015    1.0000 </r>
       <r>    0.1882    1.0000 </r>
       <r>    1.2677    1.0000 </r>
       <r>    1.3193    1.0000 </r>
       <r>    1.3763    1.0000 </r>
       <r>    1.4156    1.0000 </r>
       <r>    1.4364    1.0000 </r>
       <r>    1.4944    1.0000 </r>
       <r>    1.5092    1.0000 </r>
       <r>    1.5509    1.0000 </r>
       <r>    1.7895    1.0000 </r>
       <r>    1.8507    1.0000 </r>
       <r>    1.9958    1.0000 </r>
       <r>    2.1506    1.0000 </r>
       <r>    2.2536    1.0000 </r>
       <r>    2.3382    1.0000 </r>
       <r>    2.5589    1.0000 </r>
       <r>    2.7602    1.0000 </r>
       <r>    2.7763    1.0000 </r>
       <r>    3.3681    1.0000 </r>
       <r>    3.7644    1.0000 </r>
       <r>    4.0001    1.0047 </r>
       <r>    5.8600   -0.0000 </r>
       <r>    6.7666   -0.0000 </r>
       <r>    7.0927    0.0000 </r>
       <r>    8.4074    0.0000 </r>
       <r>    8.5614    0.0000 </r>
       <r>    8.7721    0.0000 </r>
       <r>    9.1449    0.0000 </r>
       <r>    9.2505    0.0000 </r>
       <r>    9.9591    0.0000 </r>
       <r>   10.2852    0.0000 </r>
       <r>   10.7254    0.0000 </r>
       <r>   10.8237    0.0000 </r>
       <r>   10.8747    0.0000 </r>
       <r>   11.2745    0.0000 </r>
       <r>   11.7586    0.0000 </r>
       <r>   11.9153    0.0000 </r>
       <r>   11.9734    0.0000 </r>
       <r>   12.3644    0.0000 </r>
       <r>   12.5425    0.0000 </r>
       <r>   13.4514    0.0000 </r>
       <r>   14.2796    0.0000 </r>
       <r>   14.6734    0.0000 </r>
       <r>   16.7461    0.0000 </r>
       <r>   16.7575    0.0000 </r>
      </set>
      <set comment="kpoint 11">
       <r>  -68.6467    1.0000 </r>
       <r>  -68.6409    1.0000 </r>
       <r>  -68.6332    1.0000 </r>
       <r>  -68.6285    1.0000 </r>
       <r>  -68.6152    1.0000 </r>
       <r>  -68.6093    1.0000 </r>
       <r>  -68.5977    1.0000 </r>
       <r>  -68.5913    1.0000 </r>
       <r>  -68.5774    1.0000 </r>
       <r>  -68.5735    1.0000 </r>
       <r>  -68.5607    1.0000 </r>
       <r>  -68.5553    1.0000 </r>
       <r>  -12.6217    1.0000 </r>
       <r>  -11.4305    1.0000 </r>
       <r>  -10.7816    1.0000 </r>
       <r>  -10.6088    1.0000 </r>
       <r>  -10.2541    1.0000 </r>
       <r>  -10.2395    1.0000 </r>
       <r>   -5.8294    1.0000 </r>
       <r>   -5.0494    1.0000 </r>
       <r>   -2.6027    1.0000 </r>
       <r>   -2.3735    1.0000 </r>
       <r>   -1.9633    1.0000 </r>
       <r>   -1.7778    1.0000 </r>
       <r>   -1.4453    1.0000 </r>
       <r>   -1.1243    1.0000 </r>
       <r>   -1.0615    1.0000 </r>
       <r>   -0.7719    1.0000 </r>
       <r>   -0.4687    1.0000 </r>
       <r>   -0.2909    1.0000 </r>
       <r>   -0.2355    1.0000 </r>
       <r>   -0.2324    1.0000 </r>
       <r>   -0.1892    1.0000 </r>
       <r>   -0.1446    1.0000 </r>
       <r>   -0.0144    1.0000 </r>
       <r>    0.0257    1.0000 </r>
       <r>    1.3352    1.0000 </r>
       <r>    1.3827    1.0000 </r>
       <r>    1.4177    1.0000 </r>
       <r>    1.4409    1.0000 </r>
       <r>    1.4664    1.0000 </r>
       <r>    1.4677    1.0000 </r>
       <r>    1.5159    1.0000 </r>
       <r>    1.5477    1.0000 </r>
       <r>    1.6334    1.0000 </r>
       <r>    1.7599    1.0000 </r>
       <r>    1.7870    1.0000 </r>
       <r>    1.9514    1.0000 </r>
       <r>    2.0898    1.0000 </r>
       <r>    2.6593    1.0000 </r>
       <r>    2.7195    1.0000 </r>
       <r>    3.1930    1.0000 </r>
       <r>    3.2522    1.0000 </r>
       <r>    3.5154    1.0000 </r>
       <r>    3.8903    1.0000 </r>
       <r>    3.9743    1.0017 </r>
       <r>    6.0537   -0.0000 </r>
       <r>    6.4243   -0.0000 </r>
       <r>    7.8265    0.0000 </r>
       <r>    7.9070    0.0000 </r>
       <r>    8.3720    0.0000 </r>
       <r>    8.8206    0.0000 </r>
       <r>    9.7764    0.0000 </r>
       <r>    9.7984    0.0000 </r>
       <r>   10.0689    0.0000 </r>
       <r>   10.5841    0.0000 </r>
       <r>   10.6456    0.0000 </r>
       <r>   10.8104    0.0000 </r>
       <r>   10.8587    0.0000 </r>
       <r>   11.4900    0.0000 </r>
       <r>   11.5545    0.0000 </r>
       <r>   12.0249    0.0000 </r>
       <r>   12.5823    0.0000 </r>
       <r>   12.7751    0.0000 </r>
       <r>   12.9061    0.0000 </r>
       <r>   13.2029    0.0000 </r>
       <r>   13.5347    0.0000 </r>
       <r>   13.8179    0.0000 </r>
       <r>   14.1988    0.0000 </r>
       <r>   14.7022    0.0000 </r>
      </set>
      <set comment="kpoint 12">
       <r>  -68.6466    1.0000 </r>
       <r>  -68.6409    1.0000 </r>
       <r>  -68.6332    1.0000 </r>
       <r>  -68.6285    1.0000 </r>
       <r>  -68.6153    1.0000 </r>
       <r>  -68.6094    1.0000 </r>
       <r>  -68.5977    1.0000 </r>
       <r>  -68.5912    1.0000 </r>
       <r>  -68.5774    1.0000 </r>
       <r>  -68.5735    1.0000 </r>
       <r>  -68.5606    1.0000 </r>
       <r>  -68.5553    1.0000 </r>
       <r>  -12.4628    1.0000 </r>
       <r>  -11.4719    1.0000 </r>
       <r>  -10.8662    1.0000 </r>
       <r>  -10.6912    1.0000 </r>
       <r>  -10.3755    1.0000 </r>
       <r>  -10.2492    1.0000 </r>
       <r>   -5.7650    1.0000 </r>
       <r>   -4.8058    1.0000 </r>
       <r>   -2.4470    1.0000 </r>
       <r>   -2.2356    1.0000 </r>
       <r>   -1.8510    1.0000 </r>
       <r>   -1.7140    1.0000 </r>
       <r>   -1.4395    1.0000 </r>
       <r>   -1.1870    1.0000 </r>
       <r>   -0.8883    1.0000 </r>
       <r>   -0.7447    1.0000 </r>
       <r>   -0.6040    1.0000 </r>
       <r>   -0.5222    1.0000 </r>
       <r>   -0.3084    1.0000 </r>
       <r>   -0.2414    1.0000 </r>
       <r>   -0.1694    1.0000 </r>
       <r>   -0.1227    1.0000 </r>
       <r>   -0.0479    1.0000 </r>
       <r>    0.0631    1.0000 </r>
       <r>    1.3044    1.0000 </r>
       <r>    1.3364    1.0000 </r>
       <r>    1.3707    1.0000 </r>
       <r>    1.4350    1.0000 </r>
       <r>    1.4469    1.0000 </r>
       <r>    1.4815    1.0000 </r>
       <r>    1.5217    1.0000 </r>
       <r>    1.5489    1.0000 </r>
       <r>    1.6442    1.0000 </r>
       <r>    1.8716    1.0000 </r>
       <r>    1.9820    1.0000 </r>
       <r>    2.0478    1.0000 </r>
       <r>    2.1966    1.0000 </r>
       <r>    2.4747    1.0000 </r>
       <r>    2.5927    1.0000 </r>
       <r>    2.8372    1.0000 </r>
       <r>    2.9629    1.0000 </r>
       <r>    3.1320    1.0000 </r>
       <r>    3.5656    1.0000 </r>
       <r>    3.7210    1.0000 </r>
       <r>    6.4512   -0.0000 </r>
       <r>    6.9625    0.0000 </r>
       <r>    8.1742    0.0000 </r>
       <r>    8.2525    0.0000 </r>
       <r>    8.8329    0.0000 </r>
       <r>    9.1321    0.0000 </r>
       <r>    9.4641    0.0000 </r>
       <r>    9.7966    0.0000 </r>
       <r>   10.0832    0.0000 </r>
       <r>   10.3016    0.0000 </r>
       <r>   10.7393    0.0000 </r>
       <r>   11.0722    0.0000 </r>
       <r>   11.2922    0.0000 </r>
       <r>   11.4257    0.0000 </r>
       <r>   11.6328    0.0000 </r>
       <r>   11.7187    0.0000 </r>
       <r>   12.0863    0.0000 </r>
       <r>   12.2682    0.0000 </r>
       <r>   12.5427    0.0000 </r>
       <r>   12.6538    0.0000 </r>
       <r>   12.9551    0.0000 </r>
       <r>   13.0611    0.0000 </r>
       <r>   13.6384    0.0000 </r>
       <r>   14.6924    0.0000 </r>
      </set>
      <set comment="kpoint 13">
       <r>  -68.6464    1.0000 </r>
       <r>  -68.6407    1.0000 </r>
       <r>  -68.6331    1.0000 </r>
       <r>  -68.6284    1.0000 </r>
       <r>  -68.6152    1.0000 </r>
       <r>  -68.6092    1.0000 </r>
       <r>  -68.5976    1.0000 </r>
       <r>  -68.5911    1.0000 </r>
       <r>  -68.5772    1.0000 </r>
       <r>  -68.5734    1.0000 </r>
       <r>  -68.5605    1.0000 </r>
       <r>  -68.5552    1.0000 </r>
       <r>  -12.3606    1.0000 </r>
       <r>  -11.4190    1.0000 </r>
       <r>  -10.9545    1.0000 </r>
       <r>  -10.6868    1.0000 </r>
       <r>  -10.4802    1.0000 </r>
       <r>  -10.3383    1.0000 </r>
       <r>   -5.7499    1.0000 </r>
       <r>   -4.7226    1.0000 </r>
       <r>   -2.5246    1.0000 </r>
       <r>   -2.1853    1.0000 </r>
       <r>   -1.9544    1.0000 </r>
       <r>   -1.5361    1.0000 </r>
       <r>   -1.3040    1.0000 </r>
       <r>   -1.1014    1.0000 </r>
       <r>   -0.8710    1.0000 </r>
       <r>   -0.7564    1.0000 </r>
       <r>   -0.5485    1.0000 </r>
       <r>   -0.4444    1.0000 </r>
       <r>   -0.2883    1.0000 </r>
       <r>   -0.1777    1.0000 </r>
       <r>   -0.1418    1.0000 </r>
       <r>   -0.1057    1.0000 </r>
       <r>   -0.0365    1.0000 </r>
       <r>    0.0239    1.0000 </r>
       <r>    1.2754    1.0000 </r>
       <r>    1.2995    1.0000 </r>
       <r>    1.3531    1.0000 </r>
       <r>    1.4313    1.0000 </r>
       <r>    1.4538    1.0000 </r>
       <r>    1.4827    1.0000 </r>
       <r>    1.5029    1.0000 </r>
       <r>    1.5885    1.0000 </r>
       <r>    1.7206    1.0000 </r>
       <r>    1.9317    1.0000 </r>
       <r>    2.0786    1.0000 </r>
       <r>    2.1462    1.0000 </r>
       <r>    2.2691    1.0000 </r>
       <r>    2.4053    1.0000 </r>
       <r>    2.5681    1.0000 </r>
       <r>    2.5988    1.0000 </r>
       <r>    2.8967    1.0000 </r>
       <r>    3.0067    1.0000 </r>
       <r>    3.3563    1.0000 </r>
       <r>    3.8970    1.0000 </r>
       <r>    6.3739   -0.0000 </r>
       <r>    6.9000   -0.0000 </r>
       <r>    7.5820    0.0000 </r>
       <r>    8.0830    0.0000 </r>
       <r>    8.5494    0.0000 </r>
       <r>    8.7994    0.0000 </r>
       <r>    9.2763    0.0000 </r>
       <r>    9.6336    0.0000 </r>
       <r>    9.9303    0.0000 </r>
       <r>   10.2754    0.0000 </r>
       <r>   10.6586    0.0000 </r>
       <r>   10.9306    0.0000 </r>
       <r>   10.9689    0.0000 </r>
       <r>   11.2823    0.0000 </r>
       <r>   11.5217    0.0000 </r>
       <r>   11.7839    0.0000 </r>
       <r>   12.2478    0.0000 </r>
       <r>   12.5384    0.0000 </r>
       <r>   13.1001    0.0000 </r>
       <r>   13.5147    0.0000 </r>
       <r>   14.3012    0.0000 </r>
       <r>   14.5598    0.0000 </r>
       <r>   15.1306    0.0000 </r>
       <r>   16.2694    0.0000 </r>
      </set>
      <set comment="kpoint 14">
       <r>  -68.6467    1.0000 </r>
       <r>  -68.6409    1.0000 </r>
       <r>  -68.6331    1.0000 </r>
       <r>  -68.6285    1.0000 </r>
       <r>  -68.6153    1.0000 </r>
       <r>  -68.6093    1.0000 </r>
       <r>  -68.5977    1.0000 </r>
       <r>  -68.5912    1.0000 </r>
       <r>  -68.5774    1.0000 </r>
       <r>  -68.5735    1.0000 </r>
       <r>  -68.5607    1.0000 </r>
       <r>  -68.5553    1.0000 </r>
       <r>  -12.5454    1.0000 </r>
       <r>  -11.3429    1.0000 </r>
       <r>  -10.8761    1.0000 </r>
       <r>  -10.6064    1.0000 </r>
       <r>  -10.4023    1.0000 </r>
       <r>  -10.2864    1.0000 </r>
       <r>   -5.8227    1.0000 </r>
       <r>   -4.9760    1.0000 </r>
       <r>   -2.6668    1.0000 </r>
       <r>   -2.4541    1.0000 </r>
       <r>   -2.0396    1.0000 </r>
       <r>   -1.5805    1.0000 </r>
       <r>   -1.1751    1.0000 </r>
       <r>   -0.9835    1.0000 </r>
       <r>   -0.7955    1.0000 </r>
       <r>   -0.6513    1.0000 </r>
       <r>   -0.5157    1.0000 </r>
       <r>   -0.3860    1.0000 </r>
       <r>   -0.2682    1.0000 </r>
       <r>   -0.2518    1.0000 </r>
       <r>   -0.1892    1.0000 </r>
       <r>   -0.1419    1.0000 </r>
       <r>   -0.0430    1.0000 </r>
       <r>    0.0164    1.0000 </r>
       <r>    1.2918    1.0000 </r>
       <r>    1.3119    1.0000 </r>
       <r>    1.3918    1.0000 </r>
       <r>    1.4101    1.0000 </r>
       <r>    1.4355    1.0000 </r>
       <r>    1.4571    1.0000 </r>
       <r>    1.4946    1.0000 </r>
       <r>    1.5663    1.0000 </r>
       <r>    1.6885    1.0000 </r>
       <r>    1.9156    1.0000 </r>
       <r>    1.9884    1.0000 </r>
       <r>    2.1467    1.0000 </r>
       <r>    2.3343    1.0000 </r>
       <r>    2.5670    1.0000 </r>
       <r>    2.6180    1.0000 </r>
       <r>    2.8267    1.0000 </r>
       <r>    2.9724    1.0000 </r>
       <r>    3.2491    1.0000 </r>
       <r>    3.6770    1.0000 </r>
       <r>    3.9400    1.0003 </r>
       <r>    6.1846   -0.0000 </r>
       <r>    6.6424   -0.0000 </r>
       <r>    7.7679    0.0000 </r>
       <r>    7.9750    0.0000 </r>
       <r>    8.2208    0.0000 </r>
       <r>    8.5658    0.0000 </r>
       <r>    9.3877    0.0000 </r>
       <r>    9.5776    0.0000 </r>
       <r>    9.9068    0.0000 </r>
       <r>   10.2491    0.0000 </r>
       <r>   10.5459    0.0000 </r>
       <r>   10.7852    0.0000 </r>
       <r>   10.8427    0.0000 </r>
       <r>   11.0658    0.0000 </r>
       <r>   11.5661    0.0000 </r>
       <r>   12.0205    0.0000 </r>
       <r>   12.5299    0.0000 </r>
       <r>   12.7574    0.0000 </r>
       <r>   12.9450    0.0000 </r>
       <r>   13.3070    0.0000 </r>
       <r>   13.4103    0.0000 </r>
       <r>   13.7400    0.0000 </r>
       <r>   13.8477    0.0000 </r>
       <r>   14.7260    0.0000 </r>
      </set>
      <set comment="kpoint 15">
       <r>  -68.6466    1.0000 </r>
       <r>  -68.6409    1.0000 </r>
       <r>  -68.6332    1.0000 </r>
       <r>  -68.6285    1.0000 </r>
       <r>  -68.6153    1.0000 </r>
       <r>  -68.6094    1.0000 </r>
       <r>  -68.5977    1.0000 </r>
       <r>  -68.5912    1.0000 </r>
       <r>  -68.5774    1.0000 </r>
       <r>  -68.5735    1.0000 </r>
       <r>  -68.5606    1.0000 </r>
       <r>  -68.5553    1.0000 </r>
       <r>  -12.4627    1.0000 </r>
       <r>  -11.4722    1.0000 </r>
       <r>  -10.8664    1.0000 </r>
       <r>  -10.6906    1.0000 </r>
       <r>  -10.3759    1.0000 </r>
       <r>  -10.2493    1.0000 </r>
       <r>   -5.7649    1.0000 </r>
       <r>   -4.8056    1.0000 </r>
       <r>   -2.4474    1.0000 </r>
       <r>   -2.2351    1.0000 </r>
       <r>   -1.8501    1.0000 </r>
       <r>   -1.7147    1.0000 </r>
       <r>   -1.4341    1.0000 </r>
       <r>   -1.1888    1.0000 </r>
       <r>   -0.8898    1.0000 </r>
       <r>   -0.7448    1.0000 </r>
       <r>   -0.6047    1.0000 </r>
       <r>   -0.5226    1.0000 </r>
       <r>   -0.3068    1.0000 </r>
       <r>   -0.2392    1.0000 </r>
       <r>   -0.1723    1.0000 </r>
       <r>   -0.1206    1.0000 </r>
       <r>   -0.0508    1.0000 </r>
       <r>    0.0621    1.0000 </r>
       <r>    1.3030    1.0000 </r>
       <r>    1.3388    1.0000 </r>
       <r>    1.3715    1.0000 </r>
       <r>    1.4320    1.0000 </r>
       <r>    1.4474    1.0000 </r>
       <r>    1.4798    1.0000 </r>
       <r>    1.5232    1.0000 </r>
       <r>    1.5481    1.0000 </r>
       <r>    1.6445    1.0000 </r>
       <r>    1.8700    1.0000 </r>
       <r>    1.9791    1.0000 </r>
       <r>    2.0503    1.0000 </r>
       <r>    2.1971    1.0000 </r>
       <r>    2.4743    1.0000 </r>
       <r>    2.5963    1.0000 </r>
       <r>    2.8368    1.0000 </r>
       <r>    2.9591    1.0000 </r>
       <r>    3.1309    1.0000 </r>
       <r>    3.5659    1.0000 </r>
       <r>    3.7230    1.0000 </r>
       <r>    6.4499   -0.0000 </r>
       <r>    6.9674    0.0000 </r>
       <r>    8.1754    0.0000 </r>
       <r>    8.2474    0.0000 </r>
       <r>    8.8389    0.0000 </r>
       <r>    9.1294    0.0000 </r>
       <r>    9.4638    0.0000 </r>
       <r>    9.8021    0.0000 </r>
       <r>   10.0858    0.0000 </r>
       <r>   10.2972    0.0000 </r>
       <r>   10.7380    0.0000 </r>
       <r>   11.0769    0.0000 </r>
       <r>   11.2858    0.0000 </r>
       <r>   11.4247    0.0000 </r>
       <r>   11.6316    0.0000 </r>
       <r>   11.7219    0.0000 </r>
       <r>   12.0865    0.0000 </r>
       <r>   12.2662    0.0000 </r>
       <r>   12.5408    0.0000 </r>
       <r>   12.6563    0.0000 </r>
       <r>   12.9537    0.0000 </r>
       <r>   13.0597    0.0000 </r>
       <r>   13.6551    0.0000 </r>
       <r>   14.6927    0.0000 </r>
      </set>
      <set comment="kpoint 16">
       <r>  -68.6465    1.0000 </r>
       <r>  -68.6408    1.0000 </r>
       <r>  -68.6330    1.0000 </r>
       <r>  -68.6283    1.0000 </r>
       <r>  -68.6151    1.0000 </r>
       <r>  -68.6092    1.0000 </r>
       <r>  -68.5975    1.0000 </r>
       <r>  -68.5911    1.0000 </r>
       <r>  -68.5772    1.0000 </r>
       <r>  -68.5734    1.0000 </r>
       <r>  -68.5605    1.0000 </r>
       <r>  -68.5552    1.0000 </r>
       <r>  -12.3308    1.0000 </r>
       <r>  -11.4811    1.0000 </r>
       <r>  -10.8639    1.0000 </r>
       <r>  -10.8604    1.0000 </r>
       <r>  -10.4066    1.0000 </r>
       <r>  -10.2929    1.0000 </r>
       <r>   -5.7461    1.0000 </r>
       <r>   -4.6918    1.0000 </r>
       <r>   -2.2446    1.0000 </r>
       <r>   -2.1406    1.0000 </r>
       <r>   -1.9285    1.0000 </r>
       <r>   -1.8513    1.0000 </r>
       <r>   -1.4553    1.0000 </r>
       <r>   -1.3946    1.0000 </r>
       <r>   -1.0414    1.0000 </r>
       <r>   -0.5190    1.0000 </r>
       <r>   -0.4625    1.0000 </r>
       <r>   -0.3484    1.0000 </r>
       <r>   -0.2462    1.0000 </r>
       <r>   -0.2141    1.0000 </r>
       <r>   -0.1579    1.0000 </r>
       <r>   -0.1106    1.0000 </r>
       <r>   -0.0871    1.0000 </r>
       <r>    0.0823    1.0000 </r>
       <r>    1.2629    1.0000 </r>
       <r>    1.3494    1.0000 </r>
       <r>    1.3999    1.0000 </r>
       <r>    1.4365    1.0000 </r>
       <r>    1.4548    1.0000 </r>
       <r>    1.5117    1.0000 </r>
       <r>    1.5366    1.0000 </r>
       <r>    1.5435    1.0000 </r>
       <r>    1.7538    1.0000 </r>
       <r>    1.8185    1.0000 </r>
       <r>    2.0418    1.0000 </r>
       <r>    2.1365    1.0000 </r>
       <r>    2.2847    1.0000 </r>
       <r>    2.3127    1.0000 </r>
       <r>    2.5195    1.0000 </r>
       <r>    2.7692    1.0000 </r>
       <r>    2.8961    1.0000 </r>
       <r>    3.2588    1.0000 </r>
       <r>    3.4961    1.0000 </r>
       <r>    3.7974    1.0000 </r>
       <r>    6.1933   -0.0000 </r>
       <r>    6.8479   -0.0000 </r>
       <r>    7.8278    0.0000 </r>
       <r>    8.0477    0.0000 </r>
       <r>    8.1957    0.0000 </r>
       <r>    8.7318    0.0000 </r>
       <r>    9.1528    0.0000 </r>
       <r>    9.3111    0.0000 </r>
       <r>   10.2169    0.0000 </r>
       <r>   10.4380    0.0000 </r>
       <r>   10.5931    0.0000 </r>
       <r>   11.0046    0.0000 </r>
       <r>   11.2381    0.0000 </r>
       <r>   11.4888    0.0000 </r>
       <r>   11.8104    0.0000 </r>
       <r>   12.1717    0.0000 </r>
       <r>   12.2057    0.0000 </r>
       <r>   12.5720    0.0000 </r>
       <r>   12.6922    0.0000 </r>
       <r>   13.1173    0.0000 </r>
       <r>   13.4134    0.0000 </r>
       <r>   13.8804    0.0000 </r>
       <r>   14.0072    0.0000 </r>
       <r>   14.5291    0.0000 </r>
      </set>
      <set comment="kpoint 17">
       <r>  -68.6464    1.0000 </r>
       <r>  -68.6407    1.0000 </r>
       <r>  -68.6331    1.0000 </r>
       <r>  -68.6285    1.0000 </r>
       <r>  -68.6151    1.0000 </r>
       <r>  -68.6093    1.0000 </r>
       <r>  -68.5976    1.0000 </r>
       <r>  -68.5912    1.0000 </r>
       <r>  -68.5772    1.0000 </r>
       <r>  -68.5734    1.0000 </r>
       <r>  -68.5605    1.0000 </r>
       <r>  -68.5552    1.0000 </r>
       <r>  -12.3772    1.0000 </r>
       <r>  -11.4806    1.0000 </r>
       <r>  -10.9389    1.0000 </r>
       <r>  -10.6530    1.0000 </r>
       <r>  -10.4235    1.0000 </r>
       <r>  -10.3073    1.0000 </r>
       <r>   -5.7995    1.0000 </r>
       <r>   -4.8361    1.0000 </r>
       <r>   -2.5284    1.0000 </r>
       <r>   -2.2456    1.0000 </r>
       <r>   -1.8732    1.0000 </r>
       <r>   -1.6455    1.0000 </r>
       <r>   -1.5092    1.0000 </r>
       <r>   -1.3085    1.0000 </r>
       <r>   -0.9014    1.0000 </r>
       <r>   -0.5335    1.0000 </r>
       <r>   -0.3762    1.0000 </r>
       <r>   -0.3483    1.0000 </r>
       <r>   -0.2214    1.0000 </r>
       <r>   -0.1770    1.0000 </r>
       <r>   -0.1604    1.0000 </r>
       <r>   -0.0757    1.0000 </r>
       <r>   -0.0196    1.0000 </r>
       <r>    0.0837    1.0000 </r>
       <r>    1.1910    1.0000 </r>
       <r>    1.3657    1.0000 </r>
       <r>    1.3996    1.0000 </r>
       <r>    1.4442    1.0000 </r>
       <r>    1.4651    1.0000 </r>
       <r>    1.5081    1.0000 </r>
       <r>    1.5211    1.0000 </r>
       <r>    1.5877    1.0000 </r>
       <r>    1.7406    1.0000 </r>
       <r>    1.8210    1.0000 </r>
       <r>    2.0361    1.0000 </r>
       <r>    2.2359    1.0000 </r>
       <r>    2.2714    1.0000 </r>
       <r>    2.3646    1.0000 </r>
       <r>    2.4872    1.0000 </r>
       <r>    2.6689    1.0000 </r>
       <r>    3.0532    1.0000 </r>
       <r>    3.4102    1.0000 </r>
       <r>    3.7232    1.0000 </r>
       <r>    3.8587    1.0000 </r>
       <r>    5.9394   -0.0000 </r>
       <r>    6.6174   -0.0000 </r>
       <r>    7.3575    0.0000 </r>
       <r>    7.9475    0.0000 </r>
       <r>    8.0668    0.0000 </r>
       <r>    8.7286    0.0000 </r>
       <r>    8.9084    0.0000 </r>
       <r>    9.1412    0.0000 </r>
       <r>    9.8433    0.0000 </r>
       <r>   10.3314    0.0000 </r>
       <r>   10.5554    0.0000 </r>
       <r>   10.9235    0.0000 </r>
       <r>   11.2218    0.0000 </r>
       <r>   11.4198    0.0000 </r>
       <r>   11.7434    0.0000 </r>
       <r>   12.0020    0.0000 </r>
       <r>   12.4985    0.0000 </r>
       <r>   12.8297    0.0000 </r>
       <r>   13.2073    0.0000 </r>
       <r>   14.2671    0.0000 </r>
       <r>   14.7177    0.0000 </r>
       <r>   15.1712    0.0000 </r>
       <r>   15.9138    0.0000 </r>
       <r>   16.5679    0.0000 </r>
      </set>
      <set comment="kpoint 18">
       <r>  -68.6466    1.0000 </r>
       <r>  -68.6408    1.0000 </r>
       <r>  -68.6332    1.0000 </r>
       <r>  -68.6285    1.0000 </r>
       <r>  -68.6152    1.0000 </r>
       <r>  -68.6093    1.0000 </r>
       <r>  -68.5977    1.0000 </r>
       <r>  -68.5913    1.0000 </r>
       <r>  -68.5773    1.0000 </r>
       <r>  -68.5734    1.0000 </r>
       <r>  -68.5606    1.0000 </r>
       <r>  -68.5553    1.0000 </r>
       <r>  -12.5036    1.0000 </r>
       <r>  -11.4322    1.0000 </r>
       <r>  -10.9494    1.0000 </r>
       <r>  -10.5816    1.0000 </r>
       <r>  -10.3802    1.0000 </r>
       <r>  -10.2096    1.0000 </r>
       <r>   -5.8275    1.0000 </r>
       <r>   -4.9411    1.0000 </r>
       <r>   -2.5740    1.0000 </r>
       <r>   -2.3691    1.0000 </r>
       <r>   -1.9186    1.0000 </r>
       <r>   -1.5966    1.0000 </r>
       <r>   -1.4159    1.0000 </r>
       <r>   -1.1240    1.0000 </r>
       <r>   -0.8163    1.0000 </r>
       <r>   -0.6753    1.0000 </r>
       <r>   -0.5307    1.0000 </r>
       <r>   -0.4676    1.0000 </r>
       <r>   -0.2516    1.0000 </r>
       <r>   -0.1915    1.0000 </r>
       <r>   -0.1619    1.0000 </r>
       <r>   -0.1182    1.0000 </r>
       <r>   -0.0336    1.0000 </r>
       <r>    0.0598    1.0000 </r>
       <r>    1.2818    1.0000 </r>
       <r>    1.3251    1.0000 </r>
       <r>    1.3458    1.0000 </r>
       <r>    1.4365    1.0000 </r>
       <r>    1.4532    1.0000 </r>
       <r>    1.4704    1.0000 </r>
       <r>    1.4950    1.0000 </r>
       <r>    1.5598    1.0000 </r>
       <r>    1.7275    1.0000 </r>
       <r>    1.8437    1.0000 </r>
       <r>    1.9715    1.0000 </r>
       <r>    2.1008    1.0000 </r>
       <r>    2.3379    1.0000 </r>
       <r>    2.4487    1.0000 </r>
       <r>    2.5389    1.0000 </r>
       <r>    2.8508    1.0000 </r>
       <r>    3.0515    1.0000 </r>
       <r>    3.2630    1.0000 </r>
       <r>    3.6675    1.0000 </r>
       <r>    3.7802    1.0000 </r>
       <r>    6.2683   -0.0000 </r>
       <r>    6.8049   -0.0000 </r>
       <r>    7.8171    0.0000 </r>
       <r>    8.1368    0.0000 </r>
       <r>    8.3400    0.0000 </r>
       <r>    8.9330    0.0000 </r>
       <r>    9.3460    0.0000 </r>
[...]
       <r>   11.7018    0.0000 </r>
       <r>   11.8931    0.0000 </r>
       <r>   12.2987    0.0000 </r>
       <r>   12.6542    0.0000 </r>
       <r>   13.0086    0.0000 </r>
       <r>   13.2314    0.0000 </r>
       <r>   13.6717    0.0000 </r>
       <r>   14.0777    0.0000 </r>
       <r>   14.3954    0.0000 </r>
       <r>   16.5139    0.0000 </r>
      </set>
      <set comment="kpoint 42">
       <r>  -68.6465    1.0000 </r>
       <r>  -68.6408    1.0000 </r>
       <r>  -68.6329    1.0000 </r>
       <r>  -68.6283    1.0000 </r>
       <r>  -68.6151    1.0000 </r>
       <r>  -68.6093    1.0000 </r>
       <r>  -68.5975    1.0000 </r>
       <r>  -68.5910    1.0000 </r>
       <r>  -68.5772    1.0000 </r>
       <r>  -68.5734    1.0000 </r>
       <r>  -68.5606    1.0000 </r>
       <r>  -68.5553    1.0000 </r>
       <r>  -12.1832    1.0000 </r>
       <r>  -11.7098    1.0000 </r>
       <r>  -10.7209    1.0000 </r>
       <r>  -10.6965    1.0000 </r>
       <r>  -10.5872    1.0000 </r>
       <r>  -10.3955    1.0000 </r>
       <r>   -5.4430    1.0000 </r>
       <r>   -5.0714    1.0000 </r>
       <r>   -2.5094    1.0000 </r>
       <r>   -2.3821    1.0000 </r>
       <r>   -1.9645    1.0000 </r>
       <r>   -1.3661    1.0000 </r>
       <r>   -1.3313    1.0000 </r>
       <r>   -1.0580    1.0000 </r>
       <r>   -0.8339    1.0000 </r>
       <r>   -0.7726    1.0000 </r>
       <r>   -0.4214    1.0000 </r>
       <r>   -0.3364    1.0000 </r>
       <r>   -0.2705    1.0000 </r>
       <r>   -0.2057    1.0000 </r>
       <r>   -0.1394    1.0000 </r>
       <r>   -0.1363    1.0000 </r>
       <r>   -0.0103    1.0000 </r>
       <r>    0.0301    1.0000 </r>
       <r>    1.1752    1.0000 </r>
       <r>    1.3727    1.0000 </r>
       <r>    1.3990    1.0000 </r>
       <r>    1.4547    1.0000 </r>
       <r>    1.4562    1.0000 </r>
       <r>    1.5006    1.0000 </r>
       <r>    1.5193    1.0000 </r>
       <r>    1.5515    1.0000 </r>
       <r>    1.7436    1.0000 </r>
       <r>    1.8210    1.0000 </r>
       <r>    1.9764    1.0000 </r>
       <r>    2.2264    1.0000 </r>
       <r>    2.3984    1.0000 </r>
       <r>    2.6128    1.0000 </r>
       <r>    2.6531    1.0000 </r>
       <r>    2.9148    1.0000 </r>
       <r>    3.0691    1.0000 </r>
       <r>    3.1177    1.0000 </r>
       <r>    3.2822    1.0000 </r>
       <r>    3.5797    1.0000 </r>
       <r>    6.2960   -0.0000 </r>
       <r>    6.3878   -0.0000 </r>
       <r>    7.3609    0.0000 </r>
       <r>    7.5293    0.0000 </r>
       <r>    8.3149    0.0000 </r>
       <r>    8.3383    0.0000 </r>
       <r>    9.1069    0.0000 </r>
       <r>    9.3586    0.0000 </r>
       <r>    9.7144    0.0000 </r>
       <r>    9.9525    0.0000 </r>
       <r>   10.5267    0.0000 </r>
       <r>   10.9882    0.0000 </r>
       <r>   11.4200    0.0000 </r>
       <r>   11.5651    0.0000 </r>
       <r>   12.0203    0.0000 </r>
       <r>   12.2866    0.0000 </r>
       <r>   12.4289    0.0000 </r>
       <r>   12.4727    0.0000 </r>
       <r>   13.0318    0.0000 </r>
       <r>   13.1429    0.0000 </r>
       <r>   14.1385    0.0000 </r>
       <r>   14.4430    0.0000 </r>
       <r>   15.1652    0.0000 </r>
       <r>   15.8723    0.0000 </r>
      </set>
     </set>
    </set>
   </array>
  </eigenvalues>
  <separator name="orbital magnetization" >
   <v name="MAGDIPOLOUT">      0.00000000      0.00000000      0.00000000</v>
  </separator>
  <dos>
   <i name="efermi">      4.21553067 </i>
   <total>
    <array>
     <dimension dim="1">gridpoints</dimension>
     <dimension dim="2">spin</dimension>
     <field>energy</field>
     <field>total</field>
     <field>integrated</field>
     <set>
      <set comment="spin 1">
       <r>   -72.8301     0.0000     0.0000 </r>
       <r>   -72.5238     0.0000     0.0000 </r>
       <r>   -72.2174     0.0000     0.0000 </r>
       <r>   -71.9110     0.0000     0.0000 </r>
       <r>   -71.6046     0.0000     0.0000 </r>
       <r>   -71.2982     0.0000     0.0000 </r>
       <r>   -70.9918     0.0000     0.0000 </r>
       <r>   -70.6855     0.0000     0.0000 </r>
       <r>   -70.3791     0.0000     0.0000 </r>
       <r>   -70.0727     0.0000     0.0000 </r>
       <r>   -69.7663     0.0000     0.0000 </r>
       <r>   -69.4599    -0.0000    -0.0000 </r>
       <r>   -69.1536    -0.0000    -0.0000 </r>
       <r>   -68.8472    -0.2028    -0.0621 </r>
       <r>   -68.5408    69.4937    21.2294 </r>
       <r>   -68.2344     9.0434    24.0001 </r>
       <r>   -67.9280    -0.0005    24.0000 </r>
       <r>   -67.6217     0.0000    24.0000 </r>
       <r>   -67.3153     0.0000    24.0000 </r>
       <r>   -67.0089     0.0000    24.0000 </r>
       <r>   -66.7025     0.0000    24.0000 </r>
       <r>   -66.3961     0.0000    24.0000 </r>
       <r>   -66.0898     0.0000    24.0000 </r>
       <r>   -65.7834     0.0000    24.0000 </r>
       <r>   -65.4770     0.0000    24.0000 </r>
       <r>   -65.1706     0.0000    24.0000 </r>
       <r>   -64.8642     0.0000    24.0000 </r>
       <r>   -64.5578     0.0000    24.0000 </r>
       <r>   -64.2515     0.0000    24.0000 </r>
       <r>   -63.9451     0.0000    24.0000 </r>
       <r>   -63.6387     0.0000    24.0000 </r>
       <r>   -63.3323     0.0000    24.0000 </r>
       <r>   -63.0259     0.0000    24.0000 </r>
       <r>   -62.7196     0.0000    24.0000 </r>
       <r>   -62.4132     0.0000    24.0000 </r>
       <r>   -62.1068     0.0000    24.0000 </r>
       <r>   -61.8004     0.0000    24.0000 </r>
       <r>   -61.4940     0.0000    24.0000 </r>
       <r>   -61.1877     0.0000    24.0000 </r>
       <r>   -60.8813     0.0000    24.0000 </r>
       <r>   -60.5749     0.0000    24.0000 </r>
       <r>   -60.2685     0.0000    24.0000 </r>
       <r>   -59.9621     0.0000    24.0000 </r>
       <r>   -59.6557     0.0000    24.0000 </r>
       <r>   -59.3494     0.0000    24.0000 </r>
       <r>   -59.0430     0.0000    24.0000 </r>
       <r>   -58.7366     0.0000    24.0000 </r>
       <r>   -58.4302     0.0000    24.0000 </r>
       <r>   -58.1238     0.0000    24.0000 </r>
       <r>   -57.8175     0.0000    24.0000 </r>
       <r>   -57.5111     0.0000    24.0000 </r>
       <r>   -57.2047     0.0000    24.0000 </r>
       <r>   -56.8983     0.0000    24.0000 </r>
       <r>   -56.5919     0.0000    24.0000 </r>
       <r>   -56.2856     0.0000    24.0000 </r>
       <r>   -55.9792     0.0000    24.0000 </r>
       <r>   -55.6728     0.0000    24.0000 </r>
       <r>   -55.3664     0.0000    24.0000 </r>
       <r>   -55.0600     0.0000    24.0000 </r>
       <r>   -54.7537     0.0000    24.0000 </r>
       <r>   -54.4473     0.0000    24.0000 </r>
       <r>   -54.1409     0.0000    24.0000 </r>
       <r>   -53.8345     0.0000    24.0000 </r>
       <r>   -53.5281     0.0000    24.0000 </r>
       <r>   -53.2217     0.0000    24.0000 </r>
       <r>   -52.9154     0.0000    24.0000 </r>
       <r>   -52.6090     0.0000    24.0000 </r>
       <r>   -52.3026     0.0000    24.0000 </r>
       <r>   -51.9962     0.0000    24.0000 </r>
       <r>   -51.6898     0.0000    24.0000 </r>
       <r>   -51.3835     0.0000    24.0000 </r>
       <r>   -51.0771     0.0000    24.0000 </r>
       <r>   -50.7707     0.0000    24.0000 </r>
       <r>   -50.4643     0.0000    24.0000 </r>
       <r>   -50.1579     0.0000    24.0000 </r>
       <r>   -49.8516     0.0000    24.0000 </r>
       <r>   -49.5452     0.0000    24.0000 </r>
       <r>   -49.2388     0.0000    24.0000 </r>
       <r>   -48.9324     0.0000    24.0000 </r>
       <r>   -48.6260     0.0000    24.0000 </r>
       <r>   -48.3197     0.0000    24.0000 </r>
       <r>   -48.0133     0.0000    24.0000 </r>
       <r>   -47.7069     0.0000    24.0000 </r>
       <r>   -47.4005     0.0000    24.0000 </r>
       <r>   -47.0941     0.0000    24.0000 </r>
       <r>   -46.7877     0.0000    24.0000 </r>
       <r>   -46.4814     0.0000    24.0000 </r>
       <r>   -46.1750     0.0000    24.0000 </r>
       <r>   -45.8686     0.0000    24.0000 </r>
       <r>   -45.5622     0.0000    24.0000 </r>
       <r>   -45.2558     0.0000    24.0000 </r>
       <r>   -44.9495     0.0000    24.0000 </r>
       <r>   -44.6431     0.0000    24.0000 </r>
       <r>   -44.3367     0.0000    24.0000 </r>
       <r>   -44.0303     0.0000    24.0000 </r>
       <r>   -43.7239     0.0000    24.0000 </r>
       <r>   -43.4176     0.0000    24.0000 </r>
       <r>   -43.1112     0.0000    24.0000 </r>
       <r>   -42.8048     0.0000    24.0000 </r>
       <r>   -42.4984     0.0000    24.0000 </r>
       <r>   -42.1920     0.0000    24.0000 </r>
       <r>   -41.8856     0.0000    24.0000 </r>
       <r>   -41.5793     0.0000    24.0000 </r>
       <r>   -41.2729     0.0000    24.0000 </r>
       <r>   -40.9665     0.0000    24.0000 </r>
       <r>   -40.6601     0.0000    24.0000 </r>
       <r>   -40.3537     0.0000    24.0000 </r>
       <r>   -40.0474     0.0000    24.0000 </r>
       <r>   -39.7410     0.0000    24.0000 </r>
       <r>   -39.4346     0.0000    24.0000 </r>
       <r>   -39.1282     0.0000    24.0000 </r>
       <r>   -38.8218     0.0000    24.0000 </r>
       <r>   -38.5155     0.0000    24.0000 </r>
       <r>   -38.2091     0.0000    24.0000 </r>
       <r>   -37.9027     0.0000    24.0000 </r>
       <r>   -37.5963     0.0000    24.0000 </r>
       <r>   -37.2899     0.0000    24.0000 </r>
       <r>   -36.9836     0.0000    24.0000 </r>
       <r>   -36.6772     0.0000    24.0000 </r>
       <r>   -36.3708     0.0000    24.0000 </r>
       <r>   -36.0644     0.0000    24.0000 </r>
       <r>   -35.7580     0.0000    24.0000 </r>
       <r>   -35.4516     0.0000    24.0000 </r>
       <r>   -35.1453     0.0000    24.0000 </r>
       <r>   -34.8389     0.0000    24.0000 </r>
       <r>   -34.5325     0.0000    24.0000 </r>
       <r>   -34.2261     0.0000    24.0000 </r>
       <r>   -33.9197     0.0000    24.0000 </r>
       <r>   -33.6134     0.0000    24.0000 </r>
       <r>   -33.3070     0.0000    24.0000 </r>
       <r>   -33.0006     0.0000    24.0000 </r>
       <r>   -32.6942     0.0000    24.0000 </r>
       <r>   -32.3878     0.0000    24.0000 </r>
       <r>   -32.0815     0.0000    24.0000 </r>
       <r>   -31.7751     0.0000    24.0000 </r>
       <r>   -31.4687     0.0000    24.0000 </r>
       <r>   -31.1623     0.0000    24.0000 </r>
       <r>   -30.8559     0.0000    24.0000 </r>
       <r>   -30.5496     0.0000    24.0000 </r>
       <r>   -30.2432     0.0000    24.0000 </r>
       <r>   -29.9368     0.0000    24.0000 </r>
       <r>   -29.6304     0.0000    24.0000 </r>
       <r>   -29.3240     0.0000    24.0000 </r>
       <r>   -29.0176     0.0000    24.0000 </r>
       <r>   -28.7113     0.0000    24.0000 </r>
       <r>   -28.4049     0.0000    24.0000 </r>
       <r>   -28.0985     0.0000    24.0000 </r>
       <r>   -27.7921     0.0000    24.0000 </r>
       <r>   -27.4857     0.0000    24.0000 </r>
       <r>   -27.1794     0.0000    24.0000 </r>
       <r>   -26.8730     0.0000    24.0000 </r>
       <r>   -26.5666     0.0000    24.0000 </r>
       <r>   -26.2602     0.0000    24.0000 </r>
       <r>   -25.9538     0.0000    24.0000 </r>
       <r>   -25.6475     0.0000    24.0000 </r>
       <r>   -25.3411     0.0000    24.0000 </r>
       <r>   -25.0347     0.0000    24.0000 </r>
       <r>   -24.7283     0.0000    24.0000 </r>
       <r>   -24.4219     0.0000    24.0000 </r>
       <r>   -24.1155     0.0000    24.0000 </r>
       <r>   -23.8092     0.0000    24.0000 </r>
       <r>   -23.5028     0.0000    24.0000 </r>
       <r>   -23.1964     0.0000    24.0000 </r>
       <r>   -22.8900     0.0000    24.0000 </r>
       <r>   -22.5836     0.0000    24.0000 </r>
       <r>   -22.2773     0.0000    24.0000 </r>
       <r>   -21.9709     0.0000    24.0000 </r>
       <r>   -21.6645     0.0000    24.0000 </r>
       <r>   -21.3581     0.0000    24.0000 </r>
       <r>   -21.0517     0.0000    24.0000 </r>
       <r>   -20.7454     0.0000    24.0000 </r>
       <r>   -20.4390     0.0000    24.0000 </r>
       <r>   -20.1326     0.0000    24.0000 </r>
       <r>   -19.8262     0.0000    24.0000 </r>
       <r>   -19.5198     0.0000    24.0000 </r>
       <r>   -19.2135     0.0000    24.0000 </r>
       <r>   -18.9071     0.0000    24.0000 </r>
       <r>   -18.6007     0.0000    24.0000 </r>
       <r>   -18.2943     0.0000    24.0000 </r>
       <r>   -17.9879     0.0000    24.0000 </r>
       <r>   -17.6815     0.0000    24.0000 </r>
       <r>   -17.3752     0.0000    24.0000 </r>
       <r>   -17.0688     0.0000    24.0000 </r>
       <r>   -16.7624     0.0000    24.0000 </r>
       <r>   -16.4560     0.0000    24.0000 </r>
       <r>   -16.1496     0.0000    24.0000 </r>
       <r>   -15.8433     0.0000    24.0000 </r>
       <r>   -15.5369     0.0000    24.0000 </r>
       <r>   -15.2305     0.0000    24.0000 </r>
       <r>   -14.9241     0.0000    24.0000 </r>
       <r>   -14.6177     0.0000    24.0000 </r>
       <r>   -14.3114     0.0000    24.0000 </r>
       <r>   -14.0050     0.0000    24.0000 </r>
       <r>   -13.6986    -0.0000    24.0000 </r>
       <r>   -13.3922    -0.0000    24.0000 </r>
       <r>   -13.0858    -0.0000    24.0000 </r>
       <r>   -12.7795    -0.0035    23.9989 </r>
       <r>   -12.4731     1.5935    24.4871 </r>
       <r>   -12.1667     3.5685    25.5805 </r>
       <r>   -11.8603     1.8973    26.1618 </r>
       <r>   -11.5539     2.1362    26.8162 </r>
       <r>   -11.2475     3.2029    27.7975 </r>
       <r>   -10.9412     2.5396    28.5756 </r>
       <r>   -10.6348     9.3175    31.4303 </r>
       <r>   -10.3284     9.5071    34.3431 </r>
       <r>   -10.0220     5.4246    36.0051 </r>
       <r>    -9.7156    -0.0166    36.0000 </r>
       <r>    -9.4093    -0.0000    36.0000 </r>
       <r>    -9.1029     0.0000    36.0000 </r>
       <r>    -8.7965     0.0000    36.0000 </r>
       <r>    -8.4901     0.0000    36.0000 </r>
       <r>    -8.1837     0.0000    36.0000 </r>
       <r>    -7.8774     0.0000    36.0000 </r>
       <r>    -7.5710     0.0000    36.0000 </r>
       <r>    -7.2646     0.0000    36.0000 </r>
       <r>    -6.9582    -0.0000    36.0000 </r>
       <r>    -6.6518    -0.0000    36.0000 </r>
       <r>    -6.3454    -0.0000    36.0000 </r>
       <r>    -6.0391     0.0538    36.0165 </r>
       <r>    -5.7327     3.4738    37.0808 </r>
       <r>    -5.4263     2.0470    37.7079 </r>
       <r>    -5.1199     1.8935    38.2880 </r>
       <r>    -4.8135     3.3173    39.3044 </r>
       <r>    -4.5072     2.2073    39.9807 </r>
       <r>    -4.2008     0.0631    40.0000 </r>
       <r>    -3.8944    -0.0000    40.0000 </r>
       <r>    -3.5880    -0.0000    40.0000 </r>
       <r>    -3.2816    -0.0000    40.0000 </r>
       <r>    -2.9753    -0.0005    39.9999 </r>
       <r>    -2.6689     0.3903    40.1194 </r>
       <r>    -2.3625     6.1746    42.0112 </r>
       <r>    -2.0561     6.7011    44.0643 </r>
       <r>    -1.7497     7.3335    46.3112 </r>
       <r>    -1.4434     6.4142    48.2764 </r>
       <r>    -1.1370     8.7708    50.9636 </r>
       <r>    -0.8306     9.0621    53.7400 </r>
       <r>    -0.5242    11.2863    57.1979 </r>
       <r>    -0.2178    17.9236    62.6894 </r>
       <r>     0.0886    29.1540    71.6216 </r>
       <r>     0.3949     1.2358    72.0002 </r>
       <r>     0.7013    -0.0008    72.0000 </r>
       <r>     1.0077    -0.0192    71.9941 </r>
       <r>     1.3141     7.2408    74.2126 </r>
       <r>     1.6205    44.9541    87.9856 </r>
       <r>     1.9268    13.8137    92.2179 </r>
       <r>     2.2332    13.1959    96.2609 </r>
       <r>     2.5396    12.8984   100.2127 </r>
       <r>     2.8460    11.1619   103.6325 </r>
       <r>     3.1524     9.0819   106.4150 </r>
       <r>     3.4587     7.9328   108.8455 </r>
       <r>     3.7651     6.9444   110.9731 </r>
       <r>     4.0715     3.1277   111.9314 </r>
       <r>     4.3779     0.2245   112.0001 </r>
       <r>     4.6843    -0.0005   112.0000 </r>
       <r>     4.9907    -0.0000   112.0000 </r>
       <r>     5.2970    -0.0001   112.0000 </r>
       <r>     5.6034     0.0749   112.0229 </r>
       <r>     5.9098     0.1508   112.0691 </r>
       <r>     6.2162     2.5813   112.8600 </r>
       <r>     6.5226     4.3174   114.1827 </r>
       <r>     6.8289     3.5163   115.2601 </r>
       <r>     7.1353     2.4666   116.0158 </r>
       <r>     7.4417     1.4193   116.4507 </r>
       <r>     7.7481     3.1629   117.4197 </r>
       <r>     8.0545     5.5393   119.1168 </r>
       <r>     8.3608     5.5314   120.8116 </r>
       <r>     8.6672     4.6107   122.2242 </r>
       <r>     8.9736     4.5263   123.6110 </r>
       <r>     9.2800     5.5765   125.3195 </r>
       <r>     9.5864     5.7239   127.0732 </r>
       <r>     9.8927     4.7973   128.5430 </r>
       <r>    10.1991     4.4712   129.9129 </r>
       <r>    10.5055     6.4735   131.8963 </r>
       <r>    10.8119     8.3238   134.4465 </r>
       <r>    11.1183     8.2682   136.9797 </r>
       <r>    11.4247     7.9573   139.4177 </r>
       <r>    11.7310     7.9340   141.8485 </r>
       <r>    12.0374     6.5347   143.8507 </r>
       <r>    12.3438     5.8517   145.6435 </r>
       <r>    12.6502     6.6590   147.6837 </r>
       <r>    12.9566     5.8413   149.4734 </r>
       <r>    13.2629     6.2015   151.3734 </r>
       <r>    13.5693     5.2407   152.9791 </r>
       <r>    13.8757     4.0498   154.2198 </r>
       <r>    14.1821     3.1091   155.1724 </r>
       <r>    14.4885     4.7208   156.6188 </r>
       <r>    14.7948     3.4699   157.6819 </r>
       <r>    15.1012     1.3968   158.1098 </r>
       <r>    15.4076     1.6091   158.6028 </r>
       <r>    15.7140     1.2195   158.9765 </r>
       <r>    16.0204     1.6835   159.4922 </r>
       <r>    16.3267     0.3279   159.5927 </r>
       <r>    16.6331     0.6878   159.8034 </r>
       <r>    16.9395     0.5140   159.9609 </r>
       <r>    17.2459     0.1276   160.0000 </r>
       <r>    17.5523    -0.0000   160.0000 </r>
       <r>    17.8587     0.0000   160.0000 </r>
       <r>    18.1650     0.0000   160.0000 </r>
       <r>    18.4714     0.0000   160.0000 </r>
       <r>    18.7778     0.0000   160.0000 </r>
       <r>    19.0842     0.0000   160.0000 </r>
      </set>
     </set>
    </array>
   </total>
  </dos>
 </calculation>
 <structure name="finalpos" >
  <crystal>
   <varray name="basis" >
    <v>       3.22479600      -5.64383000       0.03157200 </v>
    <v>       3.22479600       5.64383000       0.03157200 </v>
    <v>      -2.10194600       0.00000000       6.07553700 </v>
   </varray>
   <i name="volume">    221.90106089 </i>
   <varray name="rec_basis" >
    <v>       0.15452516      -0.08859232       0.05346088 </v>
    <v>       0.15452516       0.08859232       0.05346088 </v>
    <v>      -0.00160600       0.00000000       0.16403888 </v>
   </varray>
  </crystal>
  <varray name="positions" >
   <v>       0.61844300       0.12117100       0.11953300 </v>
   <v>       0.12117100       0.61844300       0.61953300 </v>
   <v>       0.96295700       0.79032200       0.11881300 </v>
   <v>       0.79032200       0.96295700       0.61881300 </v>
   <v>       0.43973200       0.26728100       0.59904700 </v>
   <v>       0.26728100       0.43973200       0.09904700 </v>
   <v>       0.07949800       0.91167500       0.49736300 </v>
   <v>       0.57140300       0.41236400       0.98018400 </v>
   <v>       0.73557260       0.25006200       0.49504900 </v>
   <v>       0.41236400       0.57140300       0.48018400 </v>
   <v>       0.91167500       0.07949800       0.99736300 </v>
   <v>       0.25006200       0.73711100       0.99504900 </v>
  </varray>
 </structure>
</modeling>
