   12   12    1    1
  0.1849176E+02  0.6500240E-09  0.6500240E-09  0.6428867E-09  0.5000000E-15
  1.000000000000000E-004
  CAR 
 CGS                                     
  112   42   80
 
  0.0000000E+00  0.0000000E+00  0.0000000E+00  0.1250000E-01
   1      -68.655604
   2      -68.645850
   3      -68.633216
   4      -68.629282
   5      -68.621998
   6      -68.613845
   7      -68.604677
   8      -68.596449
   9      -68.577355
  10      -68.572939
  11      -68.560447
  12      -68.555543
  13      -12.719401
  14      -11.127402
  15      -10.916882
  16      -10.603081
  17      -10.247946
  18      -10.233923
  19       -5.986066
  20       -4.982404
  21       -2.759178
  22       -2.210630
  23       -2.068339
  24       -1.923917
  25       -1.574561
  26       -0.987854
  27       -0.949976
  28       -0.683523
  29       -0.402273
  30       -0.279607
  31       -0.260763
  32       -0.234839
  33       -0.191270
  34       -0.156585
  35       -0.038322
  36        0.029722
  37        1.348176
  38        1.360118
  39        1.412353
  40        1.458227
  41        1.471398
  42        1.473595
  43        1.519771
  44        1.532688
  45        1.572463
  46        1.711385
  47        1.891542
  48        1.925439
  49        2.059715
  50        2.653786
  51        2.728414
  52        3.089881
  53        3.219148
  54        4.006957
  55        4.039145
  56        4.173338
  57        5.535095
  58        6.351184
  59        7.632666
  60        7.983394
  61        8.618417
  62        8.790674
  63        9.575457
  64        9.731916
  65        9.811673
  66       10.420198
  67       10.576577
  68       10.701011
  69       10.712457
  70       11.280088
  71       11.719787
  72       12.400370
  73       12.450855
  74       12.726278
  75       13.315292
  76       13.383171
  77       13.833095
  78       13.882003
  79       14.148855
  80       14.183983
 
  0.2500000E+00  0.7372575E-17  0.1387779E-16  0.2500000E-01
   1      -68.655557
   2      -68.645826
   3      -68.633190
   4      -68.629241
   5      -68.621888
   6      -68.613741
   7      -68.604706
   8      -68.596449
   9      -68.577286
  10      -68.572884
  11      -68.560413
  12      -68.555512
  13      -12.594469
  14      -11.125729
  15      -10.983091
  16      -10.672991
  17      -10.364860
  18      -10.276794
  19       -5.934856
  20       -4.772773
  21       -2.645235
  22       -2.253345
  23       -2.085323
  24       -1.688723
  25       -1.343652
  26       -0.997238
  27       -0.766872
  28       -0.623731
  29       -0.553315
  30       -0.439055
  31       -0.359970
  32       -0.244293
  33       -0.198051
  34       -0.167479
  35       -0.046401
  36        0.036265
  37        1.277819
  38        1.335836
  39        1.353950
  40        1.390702
  41        1.425600
  42        1.470845
  43        1.497893
  44        1.530045
  45        1.724810
  46        1.856501
  47        2.058094
  48        2.092876
  49        2.231137
  50        2.413916
  51        2.557305
  52        2.825232
  53        2.947918
  54        3.241454
  55        3.664422
  56        4.040508
  57        6.168025
  58        6.898669
  59        8.136838
  60        8.266466
  61        8.593241
  62        9.013103
  63        9.243718
  64        9.530911
  65        9.860589
  66       10.378208
  67       10.632302
  68       10.812353
  69       10.938883
  70       11.193837
  71       11.656789
  72       11.773326
  73       12.114664
  74       12.437569
  75       12.619542
  76       13.012602
  77       13.504761
  78       13.874462
  79       14.213660
  80       14.710641
 
  0.5000000E+00  0.1474515E-16  0.2775558E-16  0.1250000E-01
   1      -68.655438
   2      -68.645657
   3      -68.633114
   4      -68.629163
   5      -68.621840
   6      -68.613727
   7      -68.604617
   8      -68.596384
   9      -68.577229
  10      -68.572867
  11      -68.560300
  12      -68.555346
  13      -12.435152
  14      -11.249663
  15      -10.956740
  16      -10.756817
  17      -10.426756
  18      -10.358772
  19       -5.873127
  20       -4.548781
  21       -2.495547
  22       -2.243305
  23       -1.943555
  24       -1.460213
  25       -1.227050
  26       -1.099676
  27       -0.901993
  28       -0.860789
  29       -0.599768
  30       -0.538752
  31       -0.277478
  32       -0.207545
  33       -0.200444
  34       -0.145436
  35       -0.028715
  36        0.075488
  37        1.253877
  38        1.326469
  39        1.345156
  40        1.396539
  41        1.469046
  42        1.480473
  43        1.499562
  44        1.554032
  45        1.751432
  46        1.791730
  47        1.968769
  48        2.145937
  49        2.319870
  50        2.360522
  51        2.553740
  52        2.669617
  53        2.937820
  54        3.079327
  55        3.249589
  56        3.861832
  57        6.382919
  58        7.091736
  59        7.980436
  60        8.203560
  61        8.518724
  62        8.816802
  63        9.326934
  64        9.886498
  65       10.006628
  66       10.518843
  67       10.693218
  68       10.790327
  69       11.143515
  70       11.405550
  71       11.619147
  72       11.775344
  73       11.939225
  74       12.498449
  75       12.780064
  76       12.999194
  77       13.401302
  78       13.543198
  79       13.939360
  80       14.272290
 
  0.7372575E-17  0.2500000E+00  0.1387779E-16  0.2500000E-01
   1      -68.655584
   2      -68.645804
   3      -68.633176
   4      -68.629257
   5      -68.621890
   6      -68.613738
   7      -68.604676
   8      -68.596476
   9      -68.577303
  10      -68.572873
  11      -68.560410
  12      -68.555508
  13      -12.594405
  14      -11.123636
  15      -10.983358
  16      -10.676197
  17      -10.366286
  18      -10.274440
  19       -5.934186
  20       -4.771965
  21       -2.644916
  22       -2.252961
  23       -2.085688
  24       -1.688070
  25       -1.346189
  26       -0.996286
  27       -0.766941
  28       -0.624873
  29       -0.553109
  30       -0.442530
  31       -0.359022
  32       -0.244083
  33       -0.194877
  34       -0.167069
  35       -0.047302
  36        0.036187
  37        1.276995
  38        1.335528
  39        1.354188
  40        1.391337
  41        1.424705
  42        1.470672
  43        1.497232
  44        1.529892
  45        1.723716
  46        1.858450
  47        2.057637
  48        2.093148
  49        2.230596
  50        2.413936
  51        2.556548
  52        2.827549
  53        2.948142
  54        3.242437
  55        3.661667
  56        4.041590
  57        6.168955
  58        6.899292
  59        8.137709
  60        8.267367
  61        8.593345
  62        9.012361
  63        9.244834
  64        9.522621
  65        9.865582
  66       10.376903
  67       10.637752
  68       10.812874
  69       10.934916
  70       11.192044
  71       11.660296
  72       11.771641
  73       12.118099
  74       12.442968
  75       12.618170
  76       13.009977
  77       13.518505
  78       13.895105
  79       14.274800
  80       14.840792
 
  0.2500000E+00  0.2500000E+00  0.0000000E+00  0.2500000E-01
   1      -68.655581
   2      -68.645827
   3      -68.633080
   4      -68.629139
   5      -68.622024
   6      -68.613874
   7      -68.604581
   8      -68.596351
   9      -68.577418
  10      -68.573004
  11      -68.560431
  12      -68.555525
  13      -12.438944
  14      -11.189389
  15      -10.942928
  16      -10.874669
  17      -10.389140
  18      -10.350214
  19       -5.877406
  20       -4.521241
  21       -2.417416
  22       -2.246669
  23       -1.789722
  24       -1.681813
  25       -1.355415
  26       -1.297065
  27       -1.078436
  28       -0.681757
  29       -0.525528
  30       -0.299388
  31       -0.283898
  32       -0.225008
  33       -0.186097
  34       -0.127636
  35       -0.093675
  36        0.076408
  37        1.292086
  38        1.310579
  39        1.414276
  40        1.424211
  41        1.461446
  42        1.481939
  43        1.495591
  44        1.571313
  45        1.670585
  46        1.878331
  47        1.941116
  48        2.134120
  49        2.279274
  50        2.320801
  51        2.557602
  52        2.649159
  53        2.903457
  54        2.945327
  55        3.700119
  56        3.833794
  57        6.169817
  58        6.983082
  59        8.000328
  60        8.329528
  61        8.429310
  62        8.572313
  63        9.146774
  64        9.244168
  65       10.362167
  66       10.496237
  67       10.921535
  68       11.183889
  69       11.330783
  70       11.561711
  71       11.812781
  72       11.965811
  73       12.310977
  74       12.503229
  75       12.705722
  76       12.921135
  77       13.340173
  78       13.444974
  79       14.254992
  80       14.370193
 
  0.5000000E+00  0.2500000E+00 -0.2775558E-16  0.2500000E-01
   1      -68.655387
   2      -68.645602
   3      -68.633120
   4      -68.629202
   5      -68.621820
   6      -68.613638
   7      -68.604655
   8      -68.596407
   9      -68.577167
  10      -68.572835
  11      -68.560293
  12      -68.555372
  13      -12.439034
  14      -11.354145
  15      -10.937945
  16      -10.733400
  17      -10.388845
  18      -10.269412
  19       -5.949831
  20       -4.642455
  21       -2.391444
  22       -2.225701
  23       -2.057967
  24       -1.639456
  25       -1.362570
  26       -1.281522
  27       -1.017949
  28       -0.511952
  29       -0.481205
  30       -0.334856
  31       -0.283987
  32       -0.214170
  33       -0.151605
  34       -0.137538
  35       -0.011602
  36        0.111610
  37        1.244924
  38        1.314816
  39        1.380502
  40        1.436858
  41        1.460303
  42        1.491181
  43        1.497474
  44        1.549504
  45        1.746957
  46        1.828703
  47        1.921924
  48        2.134140
  49        2.218840
  50        2.385088
  51        2.561255
  52        2.790613
  53        2.980910
  54        3.313534
  55        3.602037
  56        3.748322
  57        6.085494
  58        6.931140
  59        7.612400
  60        8.063296
  61        8.411847
  62        8.617545
  63        8.982776
  64        9.146750
  65       10.090804
  66       10.337581
  67       10.729196
  68       11.111355
  69       11.457547
  70       11.595213
  71       11.797670
  72       12.079443
  73       12.474847
  74       12.909634
  75       13.046848
  76       13.818854
  77       14.195522
  78       14.646437
  79       15.429044
  80       15.641115
 
 -0.2500000E+00  0.2500000E+00  0.0000000E+00  0.2500000E-01
   1      -68.655572
   2      -68.645817
   3      -68.633156
   4      -68.629221
   5      -68.621821
   6      -68.613672
   7      -68.604676
   8      -68.596447
   9      -68.577245
  10      -68.572825
  11      -68.560413
  12      -68.555512
  13      -12.597163
  14      -11.250310
  15      -10.991629
  16      -10.567770
  17      -10.366342
  18      -10.176963
  19       -6.011759
  20       -4.894022
  21       -2.645886
  22       -2.314500
  23       -1.972510
  24       -1.645645
  25       -1.493265
  26       -1.184769
  27       -0.787980
  28       -0.584471
  29       -0.450892
  30       -0.334057
  31       -0.295134
  32       -0.232417
  33       -0.175323
  34       -0.132739
  35       -0.010148
  36        0.070877
  37        1.257548
  38        1.319818
  39        1.361730
  40        1.423185
  41        1.431932
  42        1.475338
  43        1.504065
  44        1.539769
  45        1.723148
  46        1.812334
  47        1.995638
  48        2.072823
  49        2.417485
  50        2.461172
  51        2.527819
  52        2.875118
  53        3.141658
  54        3.230061
  55        3.785106
  56        4.070295
  57        5.977014
  58        6.682755
  59        7.534631
  60        8.218947
  61        8.617107
  62        8.914901
  63        9.303094
  64        9.429696
  65        9.804287
  66       10.272661
  67       10.543713
  68       10.829756
  69       10.970425
  70       11.384653
  71       11.468707
  72       11.736684
  73       12.100783
  74       12.666086
  75       12.941618
  76       13.100831
  77       13.350355
  78       13.520498
  79       14.472669
  80       14.757881
 
  0.1474515E-16  0.5000000E+00  0.2775558E-16  0.1250000E-01
   1      -68.655415
   2      -68.645683
   3      -68.633103
   4      -68.629168
   5      -68.621875
   6      -68.613686
   7      -68.604612
   8      -68.596392
   9      -68.577294
  10      -68.572824
  11      -68.560240
  12      -68.555390
  13      -12.435059
  14      -11.245695
  15      -10.956577
  16      -10.764421
  17      -10.427831
  18      -10.355083
  19       -5.871662
  20       -4.546726
  21       -2.494087
  22       -2.245293
  23       -1.945250
  24       -1.463621
  25       -1.224992
  26       -1.100573
  27       -0.899518
  28       -0.861863
  29       -0.600006
  30       -0.538255
  31       -0.273939
  32       -0.205747
  33       -0.202534
  34       -0.146285
  35       -0.033681
  36        0.077832
  37        1.252839
  38        1.326729
  39        1.346385
  40        1.394328
  41        1.471131
  42        1.479442
  43        1.498679
  44        1.552433
  45        1.749757
  46        1.790943
  47        1.969076
  48        2.146461
  49        2.320847
  50        2.362332
  51        2.550834
  52        2.669593
  53        2.941411
  54        3.078390
  55        3.249280
  56        3.864750
  57        6.383620
  58        7.086417
  59        7.977518
  60        8.202640
  61        8.525635
  62        8.821024
  63        9.320461
  64        9.889490
  65       10.013049
  66       10.519661
  67       10.692635
  68       10.791355
  69       11.148927
  70       11.408305
  71       11.610513
  72       11.771706
  73       11.943939
  74       12.504750
  75       12.825291
  76       13.030905
  77       13.547918
  78       13.683723
  79       14.551941
  80       15.244744
 
  0.2500000E+00  0.5000000E+00 -0.2775558E-16  0.2500000E-01
   1      -68.655381
   2      -68.645611
   3      -68.633080
   4      -68.629199
   5      -68.621843
   6      -68.613639
   7      -68.604666
   8      -68.596415
   9      -68.577205
  10      -68.572807
  11      -68.560243
  12      -68.555408
  13      -12.438959
  14      -11.353187
  15      -10.937478
  16      -10.735737
  17      -10.389662
  18      -10.268140
  19       -5.949152
  20       -4.641711
  21       -2.390882
  22       -2.226544
  23       -2.056835
  24       -1.638938
  25       -1.361407
  26       -1.282245
  27       -1.021255
  28       -0.515424
  29       -0.485138
  30       -0.327152
  31       -0.284915
  32       -0.214265
  33       -0.148936
  34       -0.136666
  35       -0.014465
  36        0.111889
  37        1.245388
  38        1.312659
  39        1.381946
  40        1.435475
  41        1.459126
  42        1.491014
  43        1.496372
  44        1.550986
  45        1.747967
  46        1.827750
  47        1.921962
  48        2.133403
  49        2.219791
  50        2.384845
  51        2.562202
  52        2.792819
  53        2.979337
  54        3.311434
  55        3.602019
  56        3.751226
  57        6.085977
  58        6.932330
  59        7.611639
  60        8.066131
  61        8.410059
  62        8.614266
  63        8.979579
  64        9.151660
  65       10.090278
  66       10.336826
  67       10.732278
  68       11.107009
  69       11.452772
  70       11.579060
  71       11.788069
  72       12.035557
  73       12.509043
  74       12.665057
  75       12.907311
  76       13.213780
  77       14.210514
  78       14.719572
  79       15.176726
  80       15.901115
 
  0.5000000E+00  0.5000000E+00  0.0000000E+00  0.1250000E-01
   1      -68.655205
   2      -68.645442
   3      -68.632934
   4      -68.629025
   5      -68.621685
   6      -68.613557
   7      -68.604444
   8      -68.596219
   9      -68.577122
  10      -68.572706
  11      -68.560079
  12      -68.555176
  13      -12.430538
  14      -11.501705
  15      -10.912808
  16      -10.614543
  17      -10.398324
  18      -10.195377
  19       -6.028336
  20       -4.810337
  21       -2.309050
  22       -2.264264
  23       -2.094941
  24       -1.703802
  25       -1.247167
  26       -1.107429
  27       -0.844670
  28       -0.777545
  29       -0.729116
  30       -0.244486
  31       -0.199757
  32       -0.182195
  33       -0.151989
  34       -0.042632
  35       -0.003444
  36        0.185820
  37        1.266375
  38        1.315378
  39        1.374201
  40        1.414152
  41        1.433270
  42        1.489504
  43        1.506655
  44        1.546863
  45        1.787164
  46        1.847149
  47        1.994710
  48        2.150089
  49        2.254118
  50        2.335432
  51        2.559792
  52        2.765546
  53        2.775512
  54        3.369069
  55        3.766083
  56        4.006790
  57        5.852234
  58        6.762081
  59        7.080801
  60        8.408856
  61        8.554921
  62        8.772768
  63        9.133688
  64        9.240776
  65        9.964584
  66       10.286743
  67       10.727704
  68       10.823209
  69       10.871774
  70       11.279399
  71       11.754943
  72       11.914030
  73       11.975383
  74       12.374386
  75       12.538180
  76       13.458489
  77       14.276648
  78       14.673886
  79       16.742434
  80       16.757226
 
 -0.2168404E-18 -0.2168404E-18  0.2000000E+00  0.2500000E-01
   1      -68.655607
   2      -68.645852
   3      -68.633185
   4      -68.629250
   5      -68.621917
   6      -68.613767
   7      -68.604700
   8      -68.596471
   9      -68.577329
  10      -68.572912
  11      -68.560448
  12      -68.555546
  13      -12.616188
  14      -11.423569
  15      -10.777968
  16      -10.608140
  17      -10.247070
  18      -10.235587
  19       -5.832221
  20       -5.046226
  21       -2.599233
  22       -2.370865
  23       -1.962592
  24       -1.775292
  25       -1.442756
  26       -1.125117
  27       -1.068208
  28       -0.772293
  29       -0.470087
  30       -0.294631
  31       -0.238743
  32       -0.236424
  33       -0.193420
  34       -0.147192
  35       -0.016189
  36        0.022613
  37        1.332076
  38        1.379542
  39        1.413000
  40        1.438582
  41        1.464526
  42        1.467755
  43        1.514319
  44        1.546309
  45        1.631014
  46        1.759111
  47        1.785250
  48        1.949909
  49        2.088636
  50        2.658968
  51        2.720854
  52        3.194390
  53        3.254784
  54        3.520779
  55        3.895148
  56        3.978330
  57        6.043104
  58        6.409685
  59        7.822212
  60        7.908997
  61        8.366120
  62        8.816911
  63        9.770536
  64        9.794348
  65       10.064225
  66       10.580364
  67       10.646140
  68       10.812262
  69       10.859267
  70       11.494637
  71       11.560944
  72       12.025136
  73       12.580058
  74       12.779189
  75       12.917778
  76       13.204965
  77       13.530579
  78       13.828588
  79       14.199158
  80       14.698413
 
  0.2500000E+00  0.1517883E-17  0.2000000E+00  0.2500000E-01
   1      -68.655544
   2      -68.645790
   3      -68.633171
   4      -68.629237
   5      -68.621963
   6      -68.613807
   7      -68.604651
   8      -68.596430
   9      -68.577344
  10      -68.572920
  11      -68.560379
  12      -68.555486
  13      -12.457183
  14      -11.465252
  15      -10.864246
  16      -10.686472
  17      -10.372119
  18      -10.243876
  19       -5.768266
  20       -4.804279
  21       -2.445444
  22       -2.231296
  23       -1.851046
  24       -1.711476
  25       -1.431177
  26       -1.187795
  27       -0.888555
  28       -0.748680
  29       -0.604678
  30       -0.525461
  31       -0.312078
  32       -0.244617
  33       -0.177247
  34       -0.122715
  35       -0.052939
  36        0.059835
  37        1.299707
  38        1.334263
  39        1.367978
  40        1.433173
  41        1.445583
  42        1.476568
  43        1.521083
  44        1.546476
  45        1.644529
  46        1.871208
  47        1.978543
  48        2.048052
  49        2.194379
  50        2.475007
  51        2.595576
  52        2.837521
  53        2.963583
  54        3.133012
  55        3.569385
  56        3.724897
  57        6.438440
  58        6.950752
  59        8.169003
  60        8.246059
  61        8.832451
  62        9.127503
  63        9.459980
  64        9.798230
  65       10.084465
  66       10.295246
  67       10.738083
  68       11.079704
  69       11.294009
  70       11.426480
  71       11.632564
  72       11.721615
  73       12.089591
  74       12.267809
  75       12.545757
  76       12.654460
  77       12.954906
  78       13.063759
  79       13.638313
  80       14.690516
 
  0.5000000E+00  0.9107298E-17  0.2000000E+00  0.2500000E-01
   1      -68.655419
   2      -68.645601
   3      -68.633066
   4      -68.629138
   5      -68.621824
   6      -68.613673
   7      -68.604569
   8      -68.596354
   9      -68.577213
  10      -68.572844
  11      -68.560317
  12      -68.555403
  13      -12.354833
  14      -11.412667
  15      -10.952724
  16      -10.679464
  17      -10.476921
  18      -10.334833
  19       -5.754043
  20       -4.722837
  21       -2.522447
  22       -2.183891
  23       -1.951021
  24       -1.532810
  25       -1.300026
  26       -1.096154
  27       -0.869485
  28       -0.757140
  29       -0.549915
  30       -0.446818
  31       -0.292447
  32       -0.179450
  33       -0.149242
  34       -0.104838
  35       -0.043779
  36        0.018926
  37        1.270870
  38        1.296712
  39        1.349193
  40        1.429921
  41        1.451320
  42        1.478913
  43        1.502070
  44        1.588777
  45        1.718974
  46        1.931512
  47        2.077048
  48        2.144966
  49        2.266713
  50        2.403233
  51        2.566976
  52        2.597860
  53        2.900088
  54        3.008409
  55        3.357997
  56        3.899910
  57        6.361529
  58        6.892239
  59        7.575366
  60        8.082976
  61        8.548439
  62        8.795473
  63        9.280493
  64        9.623760
  65        9.931242
  66       10.270828
  67       10.654059
  68       10.928951
  69       10.973383
  70       11.279584
  71       11.521977
  72       11.789025
  73       12.247433
  74       12.539556
  75       13.104308
  76       13.517998
  77       14.299184
  78       14.565375
  79       15.131373
  80       16.271073
 
 -0.2500000E+00 -0.4098284E-16  0.2000000E+00  0.2500000E-01
   1      -68.655603
   2      -68.645843
   3      -68.633160
   4      -68.629226
   5      -68.621921
   6      -68.613778
   7      -68.604685
   8      -68.596456
   9      -68.577339
  10      -68.572935
  11      -68.560447
  12      -68.555535
  13      -12.539844
  14      -11.335860
  15      -10.873625
  16      -10.603791
  17      -10.395427
  18      -10.282937
  19       -5.826277
  20       -4.974527
  21       -2.664228
  22       -2.452978
  23       -2.038007
  24       -1.576622
  25       -1.169006
  26       -0.981954
  27       -0.794838
  28       -0.659411
  29       -0.516126
  30       -0.386966
  31       -0.270098
  32       -0.256290
  33       -0.192312
  34       -0.146110
  35       -0.046265
  36        0.011895
  37        1.288763
  38        1.310697
  39        1.389451
  40        1.407175
  41        1.432876
  42        1.453281
  43        1.491162
  44        1.564177
  45        1.686534
  46        1.914351
  47        1.986642
  48        2.145067
  49        2.334919
  50        2.565941
  51        2.616866
  52        2.829141
  53        2.972998
  54        3.248974
  55        3.684321
  56        3.944532
  57        6.175978
  58        6.632520
  59        7.766226
  60        7.971549
  61        8.212735
  62        8.563050
  63        9.378804
  64        9.576940
  65        9.907948
  66       10.253103
  67       10.539680
  68       10.786384
  69       10.839521
  70       11.070718
  71       11.566079
  72       12.021489
  73       12.530739
  74       12.759298
  75       12.948050
  76       13.308466
  77       13.412425
  78       13.737422
  79       13.847643
  80       14.728281
 
  0.1517883E-17  0.2500000E+00  0.2000000E+00  0.2500000E-01
   1      -68.655542
   2      -68.645788
   3      -68.633170
   4      -68.629236
   5      -68.621958
   6      -68.613814
   7      -68.604661
   8      -68.596423
   9      -68.577332
  10      -68.572927
  11      -68.560392
  12      -68.555478
  13      -12.457119
  14      -11.464620
  15      -10.863332
  16      -10.688693
  17      -10.373097
  18      -10.242699
  19       -5.767377
  20       -4.803489
  21       -2.445159
  22       -2.231819
  23       -1.851999
  24       -1.711273
  25       -1.434404
  26       -1.185226
  27       -0.888417
  28       -0.747712
  29       -0.607455
  30       -0.525686
  31       -0.309031
  32       -0.244503
  33       -0.174824
  34       -0.123120
  35       -0.053646
  36        0.057838
  37        1.301999
  38        1.334410
  39        1.368456
  40        1.431866
  41        1.443650
  42        1.477227
  43        1.520123
  44        1.546875
  45        1.644499
  46        1.870199
  47        1.979268
  48        2.047821
  49        2.192984
  50        2.474936
  51        2.594608
  52        2.836909
  53        2.963655
  54        3.134502
  55        3.568609
  56        3.726410
  57        6.440302
  58        6.950755
  59        8.170860
  60        8.241103
  61        8.833215
  62        9.130175
  63        9.466437
  64        9.789135
  65       10.084894
  66       10.297359
  67       10.738546
  68       11.081416
  69       11.290169
  70       11.429019
  71       11.635335
  72       11.726424
  73       12.092006
  74       12.261659
  75       12.540560
  76       12.659122
  77       12.953758
  78       13.056309
  79       13.656054
  80       14.696443
 
  0.2500000E+00  0.2500000E+00  0.2000000E+00  0.2500000E-01
   1      -68.655453
   2      -68.645698
   3      -68.633023
   4      -68.629082
   5      -68.621798
   6      -68.613649
   7      -68.604533
   8      -68.596305
   9      -68.577211
  10      -68.572790
  11      -68.560298
  12      -68.555391
  13      -12.325259
  14      -11.473669
  15      -10.861290
  16      -10.856457
  17      -10.404844
  18      -10.286520
  19       -5.749069
  20       -4.691701
  21       -2.241065
  22       -2.137953
  23       -1.927118
  24       -1.851103
  25       -1.453524
  26       -1.394291
  27       -1.036005
  28       -0.520701
  29       -0.463646
  30       -0.349649
  31       -0.249386
  32       -0.216796
  33       -0.162016
  34       -0.114015
  35       -0.092193
  36        0.078741
  37        1.260030
  38        1.345792
  39        1.398781
  40        1.433976
  41        1.452436
  42        1.509007
  43        1.533787
  44        1.540543
  45        1.754484
  46        1.816427
  47        2.040406
  48        2.133970
  49        2.285289
  50        2.311729
  51        2.519703
  52        2.770619
  53        2.897727
  54        3.261561
  55        3.496881
  56        3.801768
  57        6.181201
  58        6.834982
  59        7.827957
  60        8.044480
  61        8.187342
  62        8.726250
  63        9.150624
  64        9.305777
  65       10.218713
  66       10.443271
  67       10.592872
  68       11.005819
  69       11.234724
  70       11.491795
  71       11.811285
  72       12.171277
  73       12.209829
  74       12.573800
  75       12.691327
  76       13.120257
  77       13.416384
  78       13.878262
  79       14.005647
  80       14.520132
 
  0.5000000E+00  0.2500000E+00  0.2000000E+00  0.2500000E-01
   1      -68.655355
   2      -68.645564
   3      -68.633071
   4      -68.629208
   5      -68.621835
   6      -68.613668
   7      -68.604626
   8      -68.596376
   9      -68.577183
  10      -68.572862
  11      -68.560239
  12      -68.555377
  13      -12.371691
  14      -11.472944
  15      -10.937402
  16      -10.649748
  17      -10.417379
  18      -10.303533
  19       -5.802577
  20       -4.836723
  21       -2.525876
  22       -2.243717
  23       -1.873312
  24       -1.642700
  25       -1.504407
  26       -1.306390
  27       -0.897301
  28       -0.536801
  29       -0.380013
  30       -0.346338
  31       -0.224240
  32       -0.178976
  33       -0.163013
  34       -0.078826
  35       -0.027145
  36        0.080295
  37        1.189084
  38        1.362167
  39        1.395341
  40        1.441906
  41        1.462903
  42        1.504716
  43        1.516522
  44        1.586062
  45        1.739122
  46        1.818183
  47        2.037900
  48        2.234443
  49        2.269364
  50        2.362361
  51        2.487726
  52        2.670414
  53        3.054324
  54        3.411898
  55        3.727758
  56        3.864703
  57        5.928414
  58        6.607156
  59        7.354320
  60        7.943714
  61        8.062913
  62        8.718576
  63        8.906178
  64        9.140823
  65        9.846105
  66       10.328434
  67       10.555629
  68       10.924519
  69       11.220625
  70       11.416968
  71       11.752195
  72       12.002514
  73       12.498409
  74       12.823799
  75       13.201357
  76       14.181826
  77       14.725267
  78       15.156527
  79       15.916655
  80       16.571417
 
 -0.2500000E+00  0.2500000E+00  0.2000000E+00  0.2500000E-01
   1      -68.655510
   2      -68.645790
   3      -68.633219
   4      -68.629275
   5      -68.621892