       N       E                     dE             d eps       ncg     rms          ort
SDA:   1     0.755452068128E+02    0.75545E+02   -0.21325E+03  3360   0.533E+03 0.000E+00
DMP:   2    -0.837895510384E+01   -0.83924E+02   -0.14688E+03  3360   0.395E+03-0.738E+02
DMP:   3    -0.151412792797E+02   -0.67623E+01   -0.20382E+03  3360   0.693E+03-0.482E+03
DMP:   4    -0.226134532687E+02   -0.74722E+01   -0.10749E+03  3360   0.391E+03-0.320E+03
DMP:   5    -0.607873843460E+02   -0.38174E+02   -0.15119E+02  3360   0.709E+02-0.866E+02
DMP:   6    -0.659034081568E+02   -0.51160E+01   -0.82329E+01  3360   0.248E+02-0.111E+02
DMP:   7    -0.674530107086E+02   -0.15496E+01   -0.41745E+01  3360   0.148E+02-0.115E+02
DMP:   8    -0.690794720581E+02   -0.16265E+01   -0.77817E+00  3360   0.286E+01-0.240E+01
DMP:   9    -0.693938263739E+02   -0.31435E+00   -0.38875E+00  3360   0.111E+01-0.363E+00
DMP:  10    -0.694980228410E+02   -0.10420E+00   -0.15389E+00  3360   0.553E+00-0.440E+00
DMP:  11    -0.695682812587E+02   -0.70258E-01   -0.36853E-01  3360   0.105E+00-0.347E-01
DMP:  12    -0.695805990801E+02   -0.12318E-01   -0.23045E-01  3360   0.695E-01-0.310E-01
DMP:  13    -0.695903387101E+02   -0.97396E-02   -0.51483E-02  3360   0.163E-01-0.886E-02
DMP:  14    -0.695928178154E+02   -0.24791E-02   -0.38126E-02  3360   0.971E-02-0.467E-03
DMP:  15    -0.695943388233E+02   -0.15210E-02   -0.10499E-02  3360   0.336E-02-0.193E-02
DMP:  16    -0.695949186600E+02   -0.57984E-03   -0.41366E-03  3360   0.922E-03 0.294E-03
DMP:  17    -0.695950942263E+02   -0.17557E-03   -0.21128E-03  3360   0.585E-03-0.150E-03
DMP:  18    -0.695952130869E+02   -0.11886E-03   -0.57081E-04  3360   0.121E-03 0.579E-04
DMP:  19    -0.695952426263E+02   -0.29539E-04   -0.35893E-04  3360   0.894E-04 0.803E-06
DMP:  20    -0.695952628343E+02   -0.20208E-04   -0.11846E-04  3360   0.245E-04 0.133E-04
DMP:  21    -0.695952704440E+02   -0.76097E-05   -0.71882E-05  3360   0.143E-04 0.958E-05
   1 F= -.69595270E+02 E0= -.69595458E+02  d E =0.562746E-03
