<?xml version="1.0" encoding="ISO-8859-1"?>
<modeling>
 <generator>
  <i name="program" type="string">vasp </i>
  <i name="version" type="string">5.3.3  </i>
  <i name="subversion" type="string">18Dez12 (build Nov 13 2015 09:58:40) complex                          parallel </i>
  <i name="platform" type="string">LinuxIFC </i>
  <i name="date" type="string">2017 10 18 </i>
  <i name="time" type="string">13:09:33 </i>
 </generator>
 <incar>
  <i type="string" name="SYSTEM"> CGS</i>
  <i type="string" name="PREC">normal</i>
  <i type="string" name="ALGO"> D</i>
  <i type="logical" name="LDIAG"> T  </i>
  <i name="EDIFF">      0.00001000</i>
  <i name="ENCUT">    400.00000000</i>
  <i name="TIME">      0.40000000</i>
  <i type="int" name="ISMEAR">     1</i>
  <i name="SIGMA">      0.10000000</i>
  <i type="logical" name="LHFCALC"> T  </i>
  <i type="string" name="GGA"> PE</i>
  <i name="HFSCREEN">      0.20000000</i>
  <i name="AEXX">      0.25000000</i>
  <i type="string" name="PRECFOCK">fast</i>
 </incar>
 <kpoints>
  <generation param="Gamma">
   <v type="int" name="divisions">       4        4        5 </v>
   <v name="usershift">      0.00000000       0.00000000       0.00000000 </v>
   <v name="genvec1">      0.25000000       0.00000000       0.00000000 </v>
   <v name="genvec2">      0.00000000       0.25000000       0.00000000 </v>
   <v name="genvec3">      0.00000000       0.00000000       0.20000000 </v>
   <v name="shift">      0.00000000       0.00000000       0.00000000 </v>
  </generation>
  <varray name="kpointlist" >
   <v>       0.00000000       0.00000000       0.00000000 </v>
   <v>       0.25000000       0.00000000       0.00000000 </v>
   <v>       0.50000000       0.00000000       0.00000000 </v>
   <v>       0.00000000       0.25000000       0.00000000 </v>
   <v>       0.25000000       0.25000000       0.00000000 </v>
   <v>       0.50000000       0.25000000      -0.00000000 </v>
   <v>      -0.25000000       0.25000000       0.00000000 </v>
   <v>       0.00000000       0.50000000       0.00000000 </v>
   <v>       0.25000000       0.50000000      -0.00000000 </v>
   <v>       0.50000000       0.50000000       0.00000000 </v>
   <v>      -0.00000000      -0.00000000       0.20000000 </v>
   <v>       0.25000000       0.00000000       0.20000000 </v>
   <v>       0.50000000       0.00000000       0.20000000 </v>
   <v>      -0.25000000      -0.00000000       0.20000000 </v>
   <v>       0.00000000       0.25000000       0.20000000 </v>
   <v>       0.25000000       0.25000000       0.20000000 </v>
   <v>       0.50000000       0.25000000       0.20000000 </v>
   <v>      -0.25000000       0.25000000       0.20000000 </v>
   <v>       0.00000000       0.50000000       0.20000000 </v>
   <v>       0.25000000       0.50000000       0.20000000 </v>
   <v>       0.50000000       0.50000000       0.20000000 </v>
   <v>      -0.25000000       0.50000000       0.20000000 </v>
   <v>      -0.00000000      -0.25000000       0.20000000 </v>
   <v>       0.25000000      -0.25000000       0.20000000 </v>
   <v>       0.50000000      -0.25000000       0.20000000 </v>
   <v>      -0.25000000      -0.25000000       0.20000000 </v>
   <v>      -0.00000000      -0.00000000       0.40000000 </v>
   <v>       0.25000000       0.00000000       0.40000000 </v>
   <v>       0.50000000       0.00000000       0.40000000 </v>
   <v>      -0.25000000       0.00000000       0.40000000 </v>
   <v>       0.00000000       0.25000000       0.40000000 </v>
   <v>       0.25000000       0.25000000       0.40000000 </v>
   <v>       0.50000000       0.25000000       0.40000000 </v>
   <v>      -0.25000000       0.25000000       0.40000000 </v>
   <v>       0.00000000       0.50000000       0.40000000 </v>
   <v>       0.25000000       0.50000000       0.40000000 </v>
   <v>       0.50000000       0.50000000       0.40000000 </v>
   <v>      -0.25000000       0.50000000       0.40000000 </v>
   <v>       0.00000000      -0.25000000       0.40000000 </v>
   <v>       0.25000000      -0.25000000       0.40000000 </v>
   <v>       0.50000000      -0.25000000       0.40000000 </v>
   <v>      -0.25000000      -0.25000000       0.40000000 </v>
  </varray>
  <varray name="weights" >
   <v>       0.01250000 </v>
   <v>       0.02500000 </v>
   <v>       0.01250000 </v>
   <v>       0.02500000 </v>
   <v>       0.02500000 </v>
   <v>       0.02500000 </v>
   <v>       0.02500000 </v>
   <v>       0.01250000 </v>
   <v>       0.02500000 </v>
   <v>       0.01250000 </v>
   <v>       0.02500000 </v>
   <v>       0.02500000 </v>
   <v>       0.02500000 </v>
   <v>       0.02500000 </v>
   <v>       0.02500000 </v>
   <v>       0.02500000 </v>
   <v>       0.02500000 </v>
   <v>       0.02500000 </v>
   <v>       0.02500000 </v>
   <v>       0.02500000 </v>
   <v>       0.02500000 </v>
   <v>       0.02500000 </v>
   <v>       0.02500000 </v>
   <v>       0.02500000 </v>
   <v>       0.02500000 </v>
   <v>       0.02500000 </v>
   <v>       0.02500000 </v>
   <v>       0.02500000 </v>
   <v>       0.02500000 </v>
   <v>       0.02500000 </v>
   <v>       0.02500000 </v>
   <v>       0.02500000 </v>
   <v>       0.02500000 </v>
   <v>       0.02500000 </v>
   <v>       0.02500000 </v>
   <v>       0.02500000 </v>
   <v>       0.02500000 </v>
   <v>       0.02500000 </v>
   <v>       0.02500000 </v>
   <v>       0.02500000 </v>
   <v>       0.02500000 </v>
   <v>       0.02500000 </v>
  </varray>
 </kpoints>
 <parameters>
  <separator name="general" >
   <i type="string" name="SYSTEM">CGS</i>
   <i type="logical" name="LCOMPAT"> F  </i>
  </separator>
  <separator name="electronic" >
   <i type="string" name="PREC">normal</i>
   <i name="ENMAX">    400.00000000</i>
   <i name="ENAUG">    758.23300000</i>
   <i name="EDIFF">      0.00001000</i>
   <i type="int" name="IALGO">    53</i>
   <i type="int" name="IWAVPR">    10</i>
   <i type="int" name="NBANDS">    80</i>
   <i name="NELECT">    112.00000000</i>
   <i type="int" name="TURBO">     0</i>
   <i type="int" name="IRESTART">     0</i>
   <i type="int" name="NREBOOT">     0</i>
   <i type="int" name="NMIN">     0</i>
   <i name="EREF">      0.00000000</i>
   <separator name="electronic smearing" >
    <i type="int" name="ISMEAR">     1</i>
    <i name="SIGMA">      0.10000000</i>
    <i name="KSPACING">      0.50000000</i>
    <i type="logical" name="KGAMMA"> T  </i>
   </separator>
   <separator name="electronic projectors" >
    <i type="logical" name="LREAL"> F  </i>
    <v name="ROPT">      0.00000000      0.00000000      0.00000000</v>
    <i type="int" name="LMAXPAW">  -100</i>
    <i type="int" name="LMAXMIX">     2</i>
    <i type="logical" name="NLSPLINE"> F  </i>
   </separator>
   <separator name="electronic startup" >
    <i type="int" name="ISTART">     1</i>
    <i type="int" name="ICHARG">     0</i>
    <i type="int" name="INIWAV">     1</i>
   </separator>
   <separator name="electronic spin" >
    <i type="int" name="ISPIN">     1</i>
    <i type="logical" name="LNONCOLLINEAR"> F  </i>
    <v name="MAGMOM">      1.00000000      1.00000000      1.00000000      1.00000000      1.00000000      1.00000000      1.00000000      1.00000000      1.00000000      1.00000000      1.00000000      1.00000000</v>
    <i name="NUPDOWN">     -1.00000000</i>
    <i type="logical" name="LSORBIT"> F  </i>
    <v name="SAXIS">      0.00000000      0.00000000      1.00000000</v>
    <i type="logical" name="LSPIRAL"> F  </i>
    <v name="QSPIRAL">      0.00000000      0.00000000      0.00000000</v>
    <i type="logical" name="LZEROZ"> F  </i>
   </separator>
   <separator name="electronic exchange-correlation" >
    <i type="logical" name="LASPH"> F  </i>
    <i type="logical" name="LMETAGGA"> F  </i>
   </separator>
   <separator name="electronic convergence" >
    <i type="int" name="NELM">    60</i>
    <i type="int" name="NELMDL">     0</i>
    <i type="int" name="NELMIN">     2</i>
    <i name="ENINI">    400.00000000</i>
    <separator name="electronic convergence detail" >
     <i type="logical" name="LDIAG"> T  </i>
     <i type="logical" name="LSUBROT"> T  </i>
     <i name="WEIMIN">      0.00000000</i>
     <i name="EBREAK">      0.00000003</i>
     <i name="DEPER">      0.30000000</i>
     <i type="int" name="NRMM">     4</i>
     <i name="TIME">      0.40000000</i>
    </separator>
   </separator>
   <separator name="electronic mixer" >
    <i name="AMIX">      0.40000000</i>
    <i name="BMIX">      1.00000000</i>
    <i name="AMIN">      0.10000000</i>
    <i name="AMIX_MAG">      1.60000000</i>
    <i name="BMIX_MAG">      1.00000000</i>
    <separator name="electronic mixer details" >
     <i type="int" name="IMIX">     4</i>
     <i type="int" name="MAXMIX">   -45</i>
     <i name="WC">    100.00000000</i>
     <i type="int" name="INIMIX">     1</i>
     <i type="int" name="MIXPRE">     1</i>
     <i type="int" name="MREMOVE">     5</i>
    </separator>
   </separator>
   <separator name="electronic dipolcorrection" >
    <i type="logical" name="LDIPOL"> F  </i>
    <i type="logical" name="LMONO"> F  </i>
    <i type="int" name="IDIPOL">     0</i>
    <i name="EPSILON">      1.00000000</i>
    <v name="DIPOL">   -100.00000000   -100.00000000   -100.00000000</v>
    <i name="EFIELD">      0.00000000</i>
   </separator>
  </separator>
  <separator name="grids" >
   <i type="int" name="NGX">    32</i>
   <i type="int" name="NGY">    32</i>
   <i type="int" name="NGZ">    32</i>
   <i type="int" name="NGXF">    64</i>
   <i type="int" name="NGYF">    64</i>
   <i type="int" name="NGZF">    64</i>
   <i type="logical" name="ADDGRID"> F  </i>
  </separator>
  <separator name="ionic" >
   <i type="int" name="NSW">     0</i>
   <i type="int" name="IBRION">    -1</i>
   <i type="int" name="ISIF">     0</i>
   <i name="PSTRESS">      0.00000000</i>
   <i name="EDIFFG">      0.00010000</i>
   <i type="int" name="NFREE">     0</i>
   <i name="POTIM">      0.50000000</i>
   <i name="SMASS">     -3.00000000</i>
   <i name="SCALEE">      1.00000000</i>
  </separator>
  <separator name="ionic md" >
   <i name="TEBEG">      0.00010000</i>
   <i name="TEEND">      0.00010000</i>
   <i type="int" name="NBLOCK">     1</i>
   <i type="int" name="KBLOCK">     1</i>
   <i type="int" name="NPACO">   256</i>
   <i name="APACO">     16.00000000</i>
  </separator>
  <separator name="symmetry" >
   <i type="int" name="ISYM">     3</i>
   <i name="SYMPREC">      0.00001000</i>
  </separator>
  <separator name="dos" >
   <i type="logical" name="LORBIT"> F  </i>
   <v name="RWIGS">     -1.00000000     -1.00000000     -1.00000000</v>
   <i type="int" name="NEDOS">   301</i>
   <i name="EMIN">     10.00000000</i>
   <i name="EMAX">    -10.00000000</i>
   <i name="EFERMI">      0.00000000</i>
  </separator>
  <separator name="writing" >
   <i type="int" name="NWRITE">     2</i>
   <i type="logical" name="LWAVE"> T  </i>
   <i type="logical" name="LCHARG"> T  </i>
   <i type="logical" name="LPARD"> F  </i>
   <i type="logical" name="LVTOT"> F  </i>
   <i type="logical" name="LVHAR"> F  </i>
   <i type="logical" name="LELF"> F  </i>
   <i type="logical" name="LOPTICS"> F  </i>
   <v name="STM">      0.00000000      0.00000000      0.00000000      0.00000000      0.00000000      0.00000000      0.00000000</v>
  </separator>
  <separator name="performance" >
   <i type="int" name="NPAR">    16</i>
   <i type="int" name="NSIM">     4</i>
   <i type="int" name="NBLK">    -1</i>
   <i type="logical" name="LPLANE"> T  </i>
   <i type="logical" name="LSCALAPACK"> T  </i>
   <i type="logical" name="LSCAAWARE"> F  </i>
   <i type="logical" name="LSCALU"> F  </i>
   <i type="logical" name="LASYNC"> F  </i>
   <i type="logical" name="LORBITALREAL"> F  </i>
  </separator>
  <separator name="miscellaneous" >
   <i type="int" name="IDIOT">     3</i>
   <i type="logical" name="LMUSIC"> F  </i>
   <v name="POMASS">     63.54600000     72.61000000     32.06600000</v>
   <v name="DARWINR">      0.00000000      0.00000000      0.00000000</v>
   <v name="DARWINV">      1.00000000      1.00000000      1.00000000</v>
   <i type="logical" name="LCORR"> T  </i>
  </separator>
  <i type="logical" name="GGA_COMPAT"> T  </i>
  <i type="logical" name="LBERRY"> F  </i>
  <i type="int" name="ICORELEVEL">     0</i>
  <i type="logical" name="LDAU"> F  </i>
  <i type="int" name="I_CONSTRAINED_M">     0</i>
  <separator name="electronic exchange-correlation" >
   <i type="string" name="GGA">PE</i>
   <i type="int" name="VOSKOWN">     0</i>
   <i type="logical" name="LHFCALC"> T  </i>
   <i type="string" name="PRECFOCK">fast</i>
   <i type="logical" name="LSYMGRAD"> F  </i>
   <i type="logical" name="LHFONE"> F  </i>
   <i type="logical" name="LRHFCALC"> F  </i>
   <i type="logical" name="LTHOMAS"> F  </i>
   <i type="logical" name="LMODELHF"> F  </i>
   <i name="ENCUT4O">     -1.00000000</i>
   <i type="int" name="EXXOEP">     0</i>
   <i type="int" name="FOURORBIT">     0</i>
   <i name="AEXX">      0.25000000</i>
   <i name="HFALPHA">     -1.00000000</i>
   <i name="MCALPHA">      0.00000000</i>
   <i name="ALDAX">      0.75000000</i>
   <i name="AGGAX">      0.75000000</i>
   <i name="ALDAC">      1.00000000</i>
   <i name="AGGAC">      1.00000000</i>
   <i type="int" name="NKREDX">     1</i>
   <i type="int" name="NKREDY">     1</i>
   <i type="int" name="NKREDZ">     1</i>
   <i type="logical" name="SHIFTRED"> F  </i>
   <i type="logical" name="ODDONLY"> F  </i>
   <i type="logical" name="EVENONLY"> F  </i>
   <i type="int" name="LMAXFOCK">     4</i>
   <i type="int" name="NMAXFOCKAE">     1</i>
   <i type="logical" name="LFOCKAEDFT"> F  </i>
   <i name="HFSCREEN">      0.20000000</i>
   <i name="HFSCREENC">      0.20000000</i>
   <i type="int" name="NBANDSGWLOW">     1</i>
  </separator>
  <separator name="vdW DFT" >
   <i type="logical" name="LUSE_VDW"> F  </i>
   <i name="Zab_VDW">     -0.84910000</i>
   <i name="PARAM1">      0.12340000</i>
   <i name="PARAM2">      1.00000000</i>
   <i name="PARAM3">      0.00000000</i>
  </separator>
  <separator name="model GW" >
   <i type="int" name="MODEL_GW">     0</i>
   <i name="MODEL_EPS0">     11.09505304</i>
   <i name="MODEL_ALPHA">      1.00000000</i>
  </separator>
  <separator name="linear response parameters" >
   <i type="logical" name="LEPSILON"> F  </i>
   <i type="logical" name="LRPA"> F  </i>
   <i type="logical" name="LNABLA"> F  </i>
   <i type="logical" name="LVEL"> F  </i>
   <i type="int" name="KINTER">     0</i>
   <i name="CSHIFT">      0.10000000</i>
   <i name="OMEGAMAX">     -1.00000000</i>
   <i name="DEG_THRESHOLD">      0.00200000</i>
  </separator>
  <separator name="orbital magnetization" >
   <i type="logical" name="NUCIND"> F  </i>
   <v name="MAGPOS">      0.00000000      0.00000000      0.00000000</v>
   <i type="logical" name="LNICSALL"> T  </i>
   <i type="logical" name="ORBITALMAG"> F  </i>
   <i type="logical" name="LMAGBLOCH"> F  </i>
   <i type="logical" name="LCHIMAG"> F  </i>
   <i type="logical" name="LGAUGE"> T  </i>
   <i type="int" name="MAGATOM">     0</i>
   <v name="MAGDIPOL">      0.00000000      0.00000000      0.00000000</v>
   <v name="AVECCONST">      0.00000000      0.00000000      0.00000000</v>
  </separator>
  <separator name="response functions" >
   <i type="logical" name="LADDER"> F  </i>
   <i type="logical" name="LFXC"> F  </i>
   <i type="logical" name="LHARTREE"> T  </i>
   <i type="int" name="IBSE">     0</i>
   <i type="logical" name="LTCTE"> F  </i>
   <i type="logical" name="LTETE"> F  </i>
   <i type="logical" name="LTRIPLET"> F  </i>
   <i type="logical" name="LFXCEPS"> F  </i>
   <i type="logical" name="L2ORDER"> F  </i>
   <i type="logical" name="LUSEW"> F  </i>
   <i name="ENCUTGW">     -2.00000000</i>
   <i name="ENCUTGWSOFT">     -2.00000000</i>
   <i name="ENCUTLF">     -1.00000000</i>
   <i type="int" name="LMAXMP2">    -1</i>
   <i name="SCISSOR">      0.00000000</i>
   <i type="int" name="NOMEGA">     0</i>
   <i type="int" name="NOMEGAR">     0</i>
   <i type="int" name="NBANDSGW">    -1</i>
   <i type="int" name="NBANDSO">    -1</i>
   <i type="int" name="NBANDSV">    -1</i>
   <i type="int" name="NELM">     1</i>
   <i type="int" name="DIM">     3</i>
   <i type="int" name="ANTIRES">     0</i>
   <i name="OMEGAMAX">    -30.00000000</i>
   <i name="OMEGATL">   -200.00000000</i>
   <i type="int" name="OMEGAGRID">     0</i>
   <i name="CSHIFT">     -0.10000000</i>
   <i type="logical" name="SELFENERGY"> F  </i>
   <i type="logical" name="LSPECTRAL"> F  </i>
   <i type="logical" name="ODDONLYGW"> F  </i>
   <i type="logical" name="EVENONLYGW"> F  </i>
   <i type="int" name="NKREDLFX">     1</i>
   <i type="int" name="NKREDLFY">     1</i>
   <i type="int" name="NKREDLFZ">     1</i>
   <i type="int" name="MAXMEM">  1800</i>
   <i type="int" name="TELESCOPE">     0</i>
  </separator>
 </parameters>
 <atominfo>
  <atoms>      12 </atoms>
  <types>       3 </types>
  <array name="atoms" >
   <dimension dim="1">ion</dimension>
   <field type="string">element</field>
   <field type="int">atomtype</field>
   <set>
    <rc><c>Cu</c><c>   1</c></rc>
    <rc><c>Cu</c><c>   1</c></rc>
    <rc><c>Cu</c><c>   1</c></rc>
    <rc><c>Cu</c><c>   1</c></rc>
    <rc><c>Ge</c><c>   2</c></rc>
    <rc><c>Ge</c><c>   2</c></rc>
    <rc><c>S </c><c>   3</c></rc>
    <rc><c>S </c><c>   3</c></rc>
    <rc><c>S </c><c>   3</c></rc>
    <rc><c>S </c><c>   3</c></rc>
    <rc><c>S </c><c>   3</c></rc>
    <rc><c>S </c><c>   3</c></rc>
   </set>
  </array>
  <array name="atomtypes" >
   <dimension dim="1">type</dimension>
   <field type="int">atomspertype</field>
   <field type="string">element</field>
   <field>mass</field>
   <field>valence</field>
   <field type="string">pseudopotential</field>
   <set>
    <rc><c>   4</c><c>Cu</c><c>     63.54600000</c><c>     17.00000000</c><c>  PAW_PBE Cu_pv 06Sep2000               </c></rc>
    <rc><c>   2</c><c>Ge</c><c>     72.61000000</c><c>      4.00000000</c><c>  PAW_PBE Ge 05Jan2001                  </c></rc>
    <rc><c>   6</c><c>S </c><c>     32.06600000</c><c>      6.00000000</c><c>  PAW_PBE S 17Jan2003                   </c></rc>
   </set>
  </array>
 </atominfo>
 <structure name="initialpos" >
  <crystal>
   <varray name="basis" >
    <v>       3.22479600      -5.64383000       0.03157200 </v>
    <v>       3.22479600       5.64383000       0.03157200 </v>
    <v>      -2.10194600       0.00000000       6.07553700 </v>
   </varray>
   <i name="volume">    221.90106089 </i>
   <varray name="rec_basis" >
    <v>       0.15452516      -0.08859232       0.05346088 </v>
    <v>       0.15452516       0.08859232       0.05346088 </v>
    <v>      -0.00160600       0.00000000       0.16403888 </v>
   </varray>
  </crystal>
  <varray name="positions" >
   <v>       0.61844300       0.12117100       0.11953300 </v>
   <v>       0.12117100       0.61844300       0.61953300 </v>
   <v>       0.96295700       0.79032200       0.11881300 </v>
   <v>       0.79032200       0.96295700       0.61881300 </v>
   <v>       0.43973200       0.26728100       0.59904700 </v>
   <v>       0.26728100       0.43973200       0.09904700 </v>
   <v>       0.07949800       0.91013660       0.49736300 </v>
   <v>       0.57140300       0.41236400       0.98018400 </v>
   <v>       0.73711100       0.25006200       0.49504900 </v>
   <v>       0.41236400       0.57140300       0.48018400 </v>
   <v>       0.91167500       0.07949800       0.99736300 </v>
   <v>       0.25006200       0.73711100       0.99504900 </v>
  </varray>
 </structure>
 <calculation>
  <scstep>
   <time name="total">  242.01  241.80</time>
   <energy>
    <i name="alphaZ">    339.31929130 </i>
    <i name="ewald">  -9063.89226471 </i>
    <i name="hartreedc">  -8067.45032225 </i>
    <i name="XCdc">    369.90405468 </i>
    <i name="pawpsdc">  16899.26126265 </i>
    <i name="pawaedc"> -17392.07414994 </i>
    <i name="eentropy">     -0.00142796 </i>
    <i name="bandstr">  -1657.95534591 </i>
    <i name="atom">  18320.98302006 </i>
    <i name="e_fr_energy">     75.54520681 </i>
    <i name="e_wo_entrp">     75.54663477 </i>
    <i name="e_0_energy">     75.54568280 </i>
   </energy>
  </scstep>
  <scstep>
   <time name="total">  248.59  248.38</time>
   <energy>
    <i name="e_fr_energy">     -8.37895510 </i>
    <i name="e_wo_entrp">     -8.37821665 </i>
    <i name="e_0_energy">     -8.37870895 </i>
   </energy>
  </scstep>
  <scstep>
   <time name="total">  251.19  250.97</time>
   <energy>
    <i name="e_fr_energy">    -15.14127928 </i>
    <i name="e_wo_entrp">    -15.14143221 </i>
    <i name="e_0_energy">    -15.14133026 </i>
   </energy>
  </scstep>
  <scstep>
   <time name="total">  249.99  249.78</time>
   <energy>
    <i name="e_fr_energy">    -22.61345327 </i>
    <i name="e_wo_entrp">    -22.61383596 </i>
    <i name="e_0_energy">    -22.61358083 </i>
   </energy>
  </scstep>
  <scstep>
   <time name="total">  251.67  251.45</time>
   <energy>
    <i name="e_fr_energy">    -60.78738435 </i>
    <i name="e_wo_entrp">    -60.78802263 </i>
    <i name="e_0_energy">    -60.78759711 </i>
   </energy>
  </scstep>
  <scstep>
   <time name="total">  262.40  262.18</time>
   <energy>
    <i name="e_fr_energy">    -65.90340816 </i>
    <i name="e_wo_entrp">    -65.90410413 </i>
    <i name="e_0_energy">    -65.90364015 </i>
   </energy>
  </scstep>
  <scstep>
   <time name="total">  253.63  253.45</time>
   <energy>
    <i name="e_fr_energy">    -67.45301071 </i>
    <i name="e_wo_entrp">    -67.45345777 </i>
    <i name="e_0_energy">    -67.45315973 </i>
   </energy>
  </scstep>
  <scstep>
   <time name="total">  250.91  250.69</time>
   <energy>
    <i name="e_fr_energy">    -69.07947206 </i>
    <i name="e_wo_entrp">    -69.08020366 </i>
    <i name="e_0_energy">    -69.07971592 </i>
   </energy>
  </scstep>
  <scstep>
   <time name="total">  248.53  248.32</time>
   <energy>
    <i name="e_fr_energy">    -69.39382637 </i>
    <i name="e_wo_entrp">    -69.39469308 </i>
    <i name="e_0_energy">    -69.39411528 </i>
   </energy>
  </scstep>
  <scstep>
   <time name="total">  252.17  251.97</time>
   <energy>
    <i name="e_fr_energy">    -69.49802284 </i>
    <i name="e_wo_entrp">    -69.49874213 </i>
    <i name="e_0_energy">    -69.49826260 </i>
   </energy>
  </scstep>
  <scstep>
   <time name="total">  254.55  254.34</time>
   <energy>
    <i name="e_fr_energy">    -69.56828126 </i>
    <i name="e_wo_entrp">    -69.56888204 </i>
    <i name="e_0_energy">    -69.56848152 </i>
   </energy>
  </scstep>
  <scstep>
   <time name="total">  250.54  250.34</time>
   <energy>
    <i name="e_fr_energy">    -69.58059908 </i>
    <i name="e_wo_entrp">    -69.58114804 </i>
    <i name="e_0_energy">    -69.58078207 </i>
   </energy>
  </scstep>
  <scstep>
   <time name="total">  253.07  252.87</time>
   <energy>
    <i name="e_fr_energy">    -69.59033871 </i>
    <i name="e_wo_entrp">    -69.59087631 </i>
    <i name="e_0_energy">    -69.59051791 </i>
   </energy>
  </scstep>
  <scstep>
   <time name="total">  255.67  255.46</time>
   <energy>
    <i name="e_fr_energy">    -69.59281782 </i>
    <i name="e_wo_entrp">    -69.59337296 </i>
    <i name="e_0_energy">    -69.59300286 </i>
   </energy>
  </scstep>
  <scstep>
   <time name="total">  257.52  257.30</time>
   <energy>
    <i name="e_fr_energy">    -69.59433882 </i>
    <i name="e_wo_entrp">    -69.59490692 </i>
    <i name="e_0_energy">    -69.59452819 </i>
   </energy>
  </scstep>
  <scstep>
   <time name="total">  259.37  259.15</time>
   <energy>
    <i name="e_fr_energy">    -69.59491866 </i>
    <i name="e_wo_entrp">    -69.59548779 </i>
    <i name="e_0_energy">    -69.59510837 </i>
   </energy>
  </scstep>
  <scstep>
   <time name="total">  260.31  260.09</time>
   <energy>
    <i name="e_fr_energy">    -69.59509423 </i>
    <i name="e_wo_entrp">    -69.59566037 </i>
    <i name="e_0_energy">    -69.59528294 </i>
   </energy>
  </scstep>
  <scstep>
   <time name="total">  258.80  258.57</time>
   <energy>
    <i name="e_fr_energy">    -69.59521309 </i>
    <i name="e_wo_entrp">    -69.59577621 </i>
    <i name="e_0_energy">    -69.59540079 </i>
   </energy>
  </scstep>
  <scstep>
   <time name="total">  259.41  259.20</time>
   <energy>
    <i name="e_fr_energy">    -69.59524263 </i>
    <i name="e_wo_entrp">    -69.59580440 </i>
    <i name="e_0_energy">    -69.59542988 </i>
   </energy>
  </scstep>
  <scstep>
   <time name="total">  258.64  258.41</time>
   <energy>
    <i name="e_fr_energy">    -69.59526283 </i>
    <i name="e_wo_entrp">    -69.59582502 </i>
    <i name="e_0_energy">    -69.59545023 </i>
   </energy>
  </scstep>
  <scstep>
   <time name="total">  257.14  256.92</time>
   <energy>
    <i name="alphaZ">    339.31929130 </i>
    <i name="ewald">  -9063.89226471 </i>
    <i name="hartreedc">  -8150.15683877 </i>
    <i name="XCdc">    372.06467452 </i>
    <i name="pawpsdc">  15921.48373631 </i>
    <i name="pawaedc"> -16406.68915757 </i>
    <i name="eentropy">      0.00056275 </i>
    <i name="bandstr">  -1742.76645212 </i>
    <i name="atom">  18320.98302006 </i>
    <i name="e_fr_energy">    -69.59527044 </i>
    <i name="e_wo_entrp">    -69.59583319 </i>
    <i name="e_0_energy">    -69.59545803 </i>
   </energy>
  </scstep>
  <structure>
   <crystal>
    <varray name="basis" >
     <v>       3.22479600      -5.64383000       0.03157200 </v>
     <v>       3.22479600       5.64383000       0.03157200 </v>
     <v>      -2.10194600       0.00000000       6.07553700 </v>
    </varray>
    <i name="volume">    221.90106089 </i>
    <varray name="rec_basis" >
     <v>       0.15452516      -0.08859232       0.05346088 </v>
     <v>       0.15452516       0.08859232       0.05346088 </v>
     <v>      -0.00160600       0.00000000       0.16403888 </v>
    </varray>
   </crystal>
   <varray name="positions" >
    <v>       0.61844300       0.12117100       0.11953300 </v>
    <v>       0.12117100       0.61844300       0.61953300 </v>
    <v>       0.96295700       0.79032200       0.11881300 </v>
    <v>       0.79032200       0.96295700       0.61881300 </v>
    <v>       0.43973200       0.26728100       0.59904700 </v>
    <v>       0.26728100       0.43973200       0.09904700 </v>
    <v>       0.07949800       0.91013660       0.49736300 </v>
    <v>       0.57140300       0.41236400       0.98018400 </v>
    <v>       0.73711100       0.25006200       0.49504900 </v>
    <v>       0.41236400       0.57140300       0.48018400 </v>
    <v>       0.91167500       0.07949800       0.99736300 </v>
    <v>       0.25006200       0.73711100       0.99504900 </v>
   </varray>
  </structure>
  <varray name="forces" >
   <v>      -0.00270795      -0.00083077       0.00024225 </v>
   <v>      -0.01631060      -0.02324288       0.01142884 </v>
   <v>       0.00145603       0.00081845       0.00406600 </v>
   <v>       0.00973222      -0.01605348      -0.00591729 </v>
   <v>      -0.05013458       0.00216089      -0.01216944 </v>
   <v>       0.00152138      -0.00491556       0.00128767 </v>
   <v>       0.07347842       0.07369667       0.00561671 </v>
   <v>      -0.00203251      -0.00706139      -0.00229133 </v>
   <v>      -0.00338908      -0.00811850      -0.00140588 </v>
   <v>      -0.00989934      -0.00317595       0.00109229 </v>
   <v>       0.00130117      -0.00553765      -0.00098215 </v>
   <v>      -0.00301515      -0.00773983      -0.00096766 </v>
  </varray>
  <energy>
   <i name="e_fr_energy">    -69.59527044 </i>
   <i name="e_wo_entrp">    -69.59545803 </i>
   <i name="e_0_energy">      0.00056275 </i>
  </energy>
  <time name="totalsc"> 5838.83 5835.34</time>
  <eigenvalues>
   <array>
    <dimension dim="1">band</dimension>
    <dimension dim="2">kpoint</dimension>
    <dimension dim="3">spin</dimension>
    <field>eigene</field>
    <field>occ</field>
    <set>
     <set comment="spin 1">
      <set comment="kpoint 1">
       <r>  -68.6556    1.0000 </r>
       <r>  -68.6459    1.0000 </r>
       <r>  -68.6332    1.0000 </r>
       <r>  -68.6293    1.0000 </r>
       <r>  -68.6220    1.0000 </r>
       <r>  -68.6138    1.0000 </r>
       <r>  -68.6047    1.0000 </r>
       <r>  -68.5964    1.0000 </r>
       <r>  -68.5774    1.0000 </r>
       <r>  -68.5729    1.0000 </r>
       <r>  -68.5604    1.0000 </r>
       <r>  -68.5555    1.0000 </r>
       <r>  -12.7194    1.0000 </r>
       <r>  -11.1274    1.0000 </r>
       <r>  -10.9169    1.0000 </r>
       <r>  -10.6031    1.0000 </r>
       <r>  -10.2479    1.0000 </r>
       <r>  -10.2339    1.0000 </r>
       <r>   -5.9861    1.0000 </r>
       <r>   -4.9824    1.0000 </r>
       <r>   -2.7592    1.0000 </r>
       <r>   -2.2106    1.0000 </r>
       <r>   -2.0683    1.0000 </r>
       <r>   -1.9239    1.0000 </r>
       <r>   -1.5746    1.0000 </r>
       <r>   -0.9879    1.0000 </r>
       <r>   -0.9500    1.0000 </r>
       <r>   -0.6835    1.0000 </r>
       <r>   -0.4023    1.0000 </r>
       <r>   -0.2796    1.0000 </r>
       <r>   -0.2608    1.0000 </r>
       <r>   -0.2348    1.0000 </r>
       <r>   -0.1913    1.0000 </r>
       <r>   -0.1566    1.0000 </r>
       <r>   -0.0383    1.0000 </r>
       <r>    0.0297    1.0000 </r>
       <r>    1.3482    1.0000 </r>
       <r>    1.3601    1.0000 </r>
       <r>    1.4124    1.0000 </r>
       <r>    1.4582    1.0000 </r>
       <r>    1.4714    1.0000 </r>
       <r>    1.4736    1.0000 </r>
       <r>    1.5198    1.0000 </r>
       <r>    1.5327    1.0000 </r>
       <r>    1.5725    1.0000 </r>
       <r>    1.7114    1.0000 </r>
       <r>    1.8915    1.0000 </r>
       <r>    1.9254    1.0000 </r>
       <r>    2.0597    1.0000 </r>
       <r>    2.6538    1.0000 </r>
       <r>    2.7284    1.0000 </r>
       <r>    3.0899    1.0000 </r>
       <r>    3.2191    1.0000 </r>
       <r>    4.0070    1.0048 </r>
       <r>    4.0391    1.0133 </r>
       <r>    4.1733    0.8626 </r>
       <r>    5.5351   -0.0000 </r>
       <r>    6.3512   -0.0000 </r>
       <r>    7.6327    0.0000 </r>
       <r>    7.9834    0.0000 </r>
       <r>    8.6184    0.0000 </r>
       <r>    8.7907    0.0000 </r>
       <r>    9.5755    0.0000 </r>
       <r>    9.7319    0.0000 </r>
       <r>    9.8117    0.0000 </r>
       <r>   10.4202    0.0000 </r>
       <r>   10.5766    0.0000 </r>
       <r>   10.7010    0.0000 </r>
       <r>   10.7125    0.0000 </r>
       <r>   11.2801    0.0000 </r>
       <r>   11.7198    0.0000 </r>
       <r>   12.4004    0.0000 </r>
       <r>   12.4509    0.0000 </r>
       <r>   12.7263    0.0000 </r>
       <r>   13.3153    0.0000 </r>
       <r>   13.3832    0.0000 </r>
       <r>   13.8331    0.0000 </r>
       <r>   13.8820    0.0000 </r>
       <r>   14.1489    0.0000 </r>
       <r>   14.1840    0.0000 </r>
      </set>
      <set comment="kpoint 2">
       <r>  -68.6556    1.0000 </r>
       <r>  -68.6458    1.0000 </r>
       <r>  -68.6332    1.0000 </r>
       <r>  -68.6292    1.0000 </r>
       <r>  -68.6219    1.0000 </r>
       <r>  -68.6137    1.0000 </r>
       <r>  -68.6047    1.0000 </r>
       <r>  -68.5964    1.0000 </r>
       <r>  -68.5773    1.0000 </r>
       <r>  -68.5729    1.0000 </r>
       <r>  -68.5604    1.0000 </r>
       <r>  -68.5555    1.0000 </r>
       <r>  -12.5945    1.0000 </r>
       <r>  -11.1257    1.0000 </r>
       <r>  -10.9831    1.0000 </r>
       <r>  -10.6730    1.0000 </r>
       <r>  -10.3649    1.0000 </r>
       <r>  -10.2768    1.0000 </r>
       <r>   -5.9349    1.0000 </r>
       <r>   -4.7728    1.0000 </r>
       <r>   -2.6452    1.0000 </r>
       <r>   -2.2533    1.0000 </r>
       <r>   -2.0853    1.0000 </r>
       <r>   -1.6887    1.0000 </r>
       <r>   -1.3437    1.0000 </r>
       <r>   -0.9972    1.0000 </r>
       <r>   -0.7669    1.0000 </r>
       <r>   -0.6237    1.0000 </r>
       <r>   -0.5533    1.0000 </r>
       <r>   -0.4391    1.0000 </r>
       <r>   -0.3600    1.0000 </r>
       <r>   -0.2443    1.0000 </r>
       <r>   -0.1981    1.0000 </r>
       <r>   -0.1675    1.0000 </r>
       <r>   -0.0464    1.0000 </r>
       <r>    0.0363    1.0000 </r>
       <r>    1.2778    1.0000 </r>
       <r>    1.3358    1.0000 </r>
       <r>    1.3540    1.0000 </r>
       <r>    1.3907    1.0000 </r>
       <r>    1.4256    1.0000 </r>
       <r>    1.4708    1.0000 </r>
       <r>    1.4979    1.0000 </r>
       <r>    1.5300    1.0000 </r>
       <r>    1.7248    1.0000 </r>
       <r>    1.8565    1.0000 </r>
       <r>    2.0581    1.0000 </r>
       <r>    2.0929    1.0000 </r>
       <r>    2.2311    1.0000 </r>
       <r>    2.4139    1.0000 </r>
       <r>    2.5573    1.0000 </r>
       <r>    2.8252    1.0000 </r>
       <r>    2.9479    1.0000 </r>
       <r>    3.2415    1.0000 </r>
       <r>    3.6644    1.0000 </r>
       <r>    4.0405    1.0139 </r>
       <r>    6.1680   -0.0000 </r>
       <r>    6.8987   -0.0000 </r>
       <r>    8.1368    0.0000 </r>
       <r>    8.2665    0.0000 </r>
       <r>    8.5932    0.0000 </r>
       <r>    9.0131    0.0000 </r>
       <r>    9.2437    0.0000 </r>
       <r>    9.5309    0.0000 </r>
       <r>    9.8606    0.0000 </r>
       <r>   10.3782    0.0000 </r>
       <r>   10.6323    0.0000 </r>
       <r>   10.8124    0.0000 </r>
       <r>   10.9389    0.0000 </r>
       <r>   11.1938    0.0000 </r>
       <r>   11.6568    0.0000 </r>
       <r>   11.7733    0.0000 </r>
       <r>   12.1147    0.0000 </r>
       <r>   12.4376    0.0000 </r>
       <r>   12.6195    0.0000 </r>
       <r>   13.0126    0.0000 </r>
       <r>   13.5048    0.0000 </r>
       <r>   13.8745    0.0000 </r>
       <r>   14.2137    0.0000 </r>
       <r>   14.7106    0.0000 </r>
      </set>
      <set comment="kpoint 3">
       <r>  -68.6554    1.0000 </r>
       <r>  -68.6457    1.0000 </r>
       <r>  -68.6331    1.0000 </r>
       <r>  -68.6292    1.0000 </r>
       <r>  -68.6218    1.0000 </r>
       <r>  -68.6137    1.0000 </r>
       <r>  -68.6046    1.0000 </r>
       <r>  -68.5964    1.0000 </r>
       <r>  -68.5772    1.0000 </r>
       <r>  -68.5729    1.0000 </r>
       <r>  -68.5603    1.0000 </r>
       <r>  -68.5553    1.0000 </r>
       <r>  -12.4352    1.0000 </r>
       <r>  -11.2497    1.0000 </r>
       <r>  -10.9567    1.0000 </r>
       <r>  -10.7568    1.0000 </r>
       <r>  -10.4268    1.0000 </r>
       <r>  -10.3588    1.0000 </r>
       <r>   -5.8731    1.0000 </r>
       <r>   -4.5488    1.0000 </r>
       <r>   -2.4955    1.0000 </r>
       <r>   -2.2433    1.0000 </r>
       <r>   -1.9436    1.0000 </r>
       <r>   -1.4602    1.0000 </r>
       <r>   -1.2270    1.0000 </r>
       <r>   -1.0997    1.0000 </r>
       <r>   -0.9020    1.0000 </r>
       <r>   -0.8608    1.0000 </r>
       <r>   -0.5998    1.0000 </r>
       <r>   -0.5388    1.0000 </r>
       <r>   -0.2775    1.0000 </r>
       <r>   -0.2075    1.0000 </r>
       <r>   -0.2004    1.0000 </r>
       <r>   -0.1454    1.0000 </r>
       <r>   -0.0287    1.0000 </r>
       <r>    0.0755    1.0000 </r>
       <r>    1.2539    1.0000 </r>
       <r>    1.3265    1.0000 </r>
       <r>    1.3452    1.0000 </r>
       <r>    1.3965    1.0000 </r>
       <r>    1.4690    1.0000 </r>
       <r>    1.4805    1.0000 </r>
       <r>    1.4996    1.0000 </r>
       <r>    1.5540    1.0000 </r>
       <r>    1.7514    1.0000 </r>
       <r>    1.7917    1.0000 </r>
       <r>    1.9688    1.0000 </r>
       <r>    2.1459    1.0000 </r>
       <r>    2.3199    1.0000 </r>
       <r>    2.3605    1.0000 </r>
       <r>    2.5537    1.0000 </r>
       <r>    2.6696    1.0000 </r>
       <r>    2.9378    1.0000 </r>
       <r>    3.0793    1.0000 </r>
       <r>    3.2496    1.0000 </r>
       <r>    3.8618    1.0000 </r>
       <r>    6.3829   -0.0000 </r>
       <r>    7.0917    0.0000 </r>
       <r>    7.9804    0.0000 </r>
       <r>    8.2036    0.0000 </r>
       <r>    8.5187    0.0000 </r>
       <r>    8.8168    0.0000 </r>
       <r>    9.3269    0.0000 </r>
       <r>    9.8865    0.0000 </r>
       <r>   10.0066    0.0000 </r>
       <r>   10.5188    0.0000 </r>
       <r>   10.6932    0.0000 </r>
       <r>   10.7903    0.0000 </r>
       <r>   11.1435    0.0000 </r>
       <r>   11.4056    0.0000 </r>
       <r>   11.6191    0.0000 </r>
       <r>   11.7753    0.0000 </r>
       <r>   11.9392    0.0000 </r>
       <r>   12.4984    0.0000 </r>
       <r>   12.7801    0.0000 </r>
       <r>   12.9992    0.0000 </r>
       <r>   13.4013    0.0000 </r>
       <r>   13.5432    0.0000 </r>
       <r>   13.9394    0.0000 </r>
       <r>   14.2723    0.0000 </r>
      </set>
      <set comment="kpoint 4">
       <r>  -68.6556    1.0000 </r>
       <r>  -68.6458    1.0000 </r>
       <r>  -68.6332    1.0000 </r>
       <r>  -68.6293    1.0000 </r>
       <r>  -68.6219    1.0000 </r>
       <r>  -68.6137    1.0000 </r>
       <r>  -68.6047    1.0000 </r>
       <r>  -68.5965    1.0000 </r>
       <r>  -68.5773    1.0000 </r>
       <r>  -68.5729    1.0000 </r>
       <r>  -68.5604    1.0000 </r>
       <r>  -68.5555    1.0000 </r>
       <r>  -12.5944    1.0000 </r>
       <r>  -11.1236    1.0000 </r>
       <r>  -10.9834    1.0000 </r>
       <r>  -10.6762    1.0000 </r>
       <r>  -10.3663    1.0000 </r>
       <r>  -10.2744    1.0000 </r>
       <r>   -5.9342    1.0000 </r>
       <r>   -4.7720    1.0000 </r>
       <r>   -2.6449    1.0000 </r>
       <r>   -2.2530    1.0000 </r>
       <r>   -2.0857    1.0000 </r>
       <r>   -1.6881    1.0000 </r>
       <r>   -1.3462    1.0000 </r>
       <r>   -0.9963    1.0000 </r>
       <r>   -0.7669    1.0000 </r>
       <r>   -0.6249    1.0000 </r>
       <r>   -0.5531    1.0000 </r>
       <r>   -0.4425    1.0000 </r>
       <r>   -0.3590    1.0000 </r>
       <r>   -0.2441    1.0000 </r>
       <r>   -0.1949    1.0000 </r>
       <r>   -0.1671    1.0000 </r>
       <r>   -0.0473    1.0000 </r>
       <r>    0.0362    1.0000 </r>
       <r>    1.2770    1.0000 </r>
       <r>    1.3355    1.0000 </r>
       <r>    1.3542    1.0000 </r>
       <r>    1.3913    1.0000 </r>
       <r>    1.4247    1.0000 </r>
       <r>    1.4707    1.0000 </r>
       <r>    1.4972    1.0000 </r>
       <r>    1.5299    1.0000 </r>
       <r>    1.7237    1.0000 </r>
       <r>    1.8584    1.0000 </r>
       <r>    2.0576    1.0000 </r>
       <r>    2.0931    1.0000 </r>
       <r>    2.2306    1.0000 </r>
       <r>    2.4139    1.0000 </r>
       <r>    2.5565    1.0000 </r>
       <r>    2.8275    1.0000 </r>
       <r>    2.9481    1.0000 </r>
       <r>    3.2424    1.0000 </r>
       <r>    3.6617    1.0000 </r>
       <r>    4.0416    1.0143 </r>
       <r>    6.1690   -0.0000 </r>
       <r>    6.8993   -0.0000 </r>
       <r>    8.1377    0.0000 </r>
       <r>    8.2674    0.0000 </r>
       <r>    8.5933    0.0000 </r>
       <r>    9.0124    0.0000 </r>
       <r>    9.2448    0.0000 </r>
       <r>    9.5226    0.0000 </r>
       <r>    9.8656    0.0000 </r>
       <r>   10.3769    0.0000 </r>
       <r>   10.6378    0.0000 </r>
       <r>   10.8129    0.0000 </r>
       <r>   10.9349    0.0000 </r>
       <r>   11.1920    0.0000 </r>
       <r>   11.6603    0.0000 </r>
       <r>   11.7716    0.0000 </r>
       <r>   12.1181    0.0000 </r>
       <r>   12.4430    0.0000 </r>
       <r>   12.6182    0.0000 </r>
       <r>   13.0100    0.0000 </r>
       <r>   13.5185    0.0000 </r>
       <r>   13.8951    0.0000 </r>
       <r>   14.2748    0.0000 </r>
       <r>   14.8408    0.0000 </r>
      </set>
      <set comment="kpoint 5">
       <r>  -68.6556    1.0000 </r>
       <r>  -68.6458    1.0000 </r>
       <r>  -68.6331    1.0000 </r>
       <r>  -68.6291    1.0000 </r>
       <r>  -68.6220    1.0000 </r>
       <r>  -68.6139    1.0000 </r>
       <r>  -68.6046    1.0000 </r>
       <r>  -68.5964    1.0000 </r>
       <r>  -68.5774    1.0000 </r>
       <r>  -68.5730    1.0000 </r>
       <r>  -68.5604    1.0000 </r>
       <r>  -68.5555    1.0000 </r>
       <r>  -12.4389    1.0000 </r>
       <r>  -11.1894    1.0000 </r>
       <r>  -10.9429    1.0000 </r>
       <r>  -10.8747    1.0000 </r>
       <r>  -10.3891    1.0000 </r>
       <r>  -10.3502    1.0000 </r>
       <r>   -5.8774    1.0000 </r>
       <r>   -4.5212    1.0000 </r>
       <r>   -2.4174    1.0000 </r>
       <r>   -2.2467    1.0000 </r>
       <r>   -1.7897    1.0000 </r>
       <r>   -1.6818    1.0000 </r>
       <r>   -1.3554    1.0000 </r>
       <r>   -1.2971    1.0000 </r>
       <r>   -1.0784    1.0000 </r>
       <r>   -0.6818    1.0000 </r>
       <r>   -0.5255    1.0000 </r>
       <r>   -0.2994    1.0000 </r>
       <r>   -0.2839    1.0000 </r>
       <r>   -0.2250    1.0000 </r>
       <r>   -0.1861    1.0000 </r>
       <r>   -0.1276    1.0000 </r>
       <r>   -0.0937    1.0000 </r>
       <r>    0.0764    1.0000 </r>
       <r>    1.2921    1.0000 </r>
       <r>    1.3106    1.0000 </r>
       <r>    1.4143    1.0000 </r>
       <r>    1.4242    1.0000 </r>
       <r>    1.4614    1.0000 </r>
       <r>    1.4819    1.0000 </r>
       <r>    1.4956    1.0000 </r>
       <r>    1.5713    1.0000 </r>
       <r>    1.6706    1.0000 </r>
       <r>    1.8783    1.0000 </r>
       <r>    1.9411    1.0000 </r>
       <r>    2.1341    1.0000 </r>
       <r>    2.2793    1.0000 </r>
       <r>    2.3208    1.0000 </r>
       <r>    2.5576    1.0000 </r>
       <r>    2.6492    1.0000 </r>
       <r>    2.9035    1.0000 </r>
       <r>    2.9453    1.0000 </r>
       <r>    3.7001    1.0000 </r>
       <r>    3.8338    1.0000 </r>
       <r>    6.1698   -0.0000 </r>
       <r>    6.9831    0.0000 </r>
       <r>    8.0003    0.0000 </r>
       <r>    8.3295    0.0000 </r>
       <r>    8.4293    0.0000 </r>
       <r>    8.5723    0.0000 </r>
       <r>    9.1468    0.0000 </r>
       <r>    9.2442    0.0000 </r>
       <r>   10.3622    0.0000 </r>
       <r>   10.4962    0.0000 </r>
       <r>   10.9215    0.0000 </r>
       <r>   11.1839    0.0000 </r>
       <r>   11.3308    0.0000 </r>
       <r>   11.5617    0.0000 </r>
       <r>   11.8128    0.0000 </r>
       <r>   11.9658    0.0000 </r>
       <r>   12.3110    0.0000 </r>
       <r>   12.5032    0.0000 </r>
       <r>   12.7057    0.0000 </r>
       <r>   12.9211    0.0000 </r>
       <r>   13.3402    0.0000 </r>
       <r>   13.4450    0.0000 </r>
       <r>   14.2550    0.0000 </r>
       <r>   14.3702    0.0000 </r>
      </set>
      <set comment="kpoint 6">
       <r>  -68.6554    1.0000 </r>
       <r>  -68.6456    1.0000 </r>
       <r>  -68.6331    1.0000 </r>
       <r>  -68.6292    1.0000 </r>
       <r>  -68.6218    1.0000 </r>
       <r>  -68.6136    1.0000 </r>
       <r>  -68.6047    1.0000 </r>
       <r>  -68.5964    1.0000 </r>
       <r>  -68.5772    1.0000 </r>
       <r>  -68.5728    1.0000 </r>
       <r>  -68.5603    1.0000 </r>
       <r>  -68.5554    1.0000 </r>
       <r>  -12.4390    1.0000 </r>
       <r>  -11.3541    1.0000 </r>
       <r>  -10.9379    1.0000 </r>
       <r>  -10.7334    1.0000 </r>
       <r>  -10.3888    1.0000 </r>
       <r>  -10.2694    1.0000 </r>
       <r>   -5.9498    1.0000 </r>
       <r>   -4.6425    1.0000 </r>
       <r>   -2.3914    1.0000 </r>
       <r>   -2.2257    1.0000 </r>
       <r>   -2.0580    1.0000 </r>
       <r>   -1.6395    1.0000 </r>
       <r>   -1.3626    1.0000 </r>
       <r>   -1.2815    1.0000 </r>
       <r>   -1.0179    1.0000 </r>
       <r>   -0.5120    1.0000 </r>
       <r>   -0.4812    1.0000 </r>
       <r>   -0.3349    1.0000 </r>
       <r>   -0.2840    1.0000 </r>
       <r>   -0.2142    1.0000 </r>
       <r>   -0.1516    1.0000 </r>
       <r>   -0.1375    1.0000 </r>
       <r>   -0.0116    1.0000 </r>
       <r>    0.1116    1.0000 </r>
       <r>    1.2449    1.0000 </r>
       <r>    1.3148    1.0000 </r>
       <r>    1.3805    1.0000 </r>
       <r>    1.4369    1.0000 </r>
       <r>    1.4603    1.0000 </r>
       <r>    1.4912    1.0000 </r>
       <r>    1.4975    1.0000 </r>
       <r>    1.5495    1.0000 </r>
       <r>    1.7470    1.0000 </r>
       <r>    1.8287    1.0000 </r>
       <r>    1.9219    1.0000 </r>
       <r>    2.1341    1.0000 </r>
       <r>    2.2188    1.0000 </r>
       <r>    2.3851    1.0000 </r>
       <r>    2.5613    1.0000 </r>
       <r>    2.7906    1.0000 </r>
       <r>    2.9809    1.0000 </r>
       <r>    3.3135    1.0000 </r>
       <r>    3.6020    1.0000 </r>
       <r>    3.7483    1.0000 </r>
       <r>    6.0855   -0.0000 </r>
       <r>    6.9311   -0.0000 </r>
       <r>    7.6124    0.0000 </r>
       <r>    8.0633    0.0000 </r>
       <r>    8.4118    0.0000 </r>
       <r>    8.6175    0.0000 </r>
       <r>    8.9828    0.0000 </r>
       <r>    9.1468    0.0000 </r>
       <r>   10.0908    0.0000 </r>
       <r>   10.3376    0.0000 </r>
       <r>   10.7292    0.0000 </r>
       <r>   11.1114    0.0000 </r>
       <r>   11.4575    0.0000 </r>
       <r>   11.5952    0.0000 </r>
       <r>   11.7977    0.0000 </r>
       <r>   12.0794    0.0000 </r>
       <r>   12.4748    0.0000 </r>
       <r>   12.9096    0.0000 </r>
       <r>   13.0468    0.0000 </r>
       <r>   13.8189    0.0000 </r>
       <r>   14.1955    0.0000 </r>
       <r>   14.6464    0.0000 </r>
       <r>   15.4290    0.0000 </r>
       <r>   15.6411    0.0000 </r>
      </set>
      <set comment="kpoint 7">
       <r>  -68.6556    1.0000 </r>
       <r>  -68.6458    1.0000 </r>
       <r>  -68.6332    1.0000 </r>
       <r>  -68.6292    1.0000 </r>
       <r>  -68.6218    1.0000 </r>
       <r>  -68.6137    1.0000 </r>
       <r>  -68.6047    1.0000 </r>
       <r>  -68.5964    1.0000 </r>
       <r>  -68.5772    1.0000 </r>
       <r>  -68.5728    1.0000 </r>
       <r>  -68.5604    1.0000 </r>
       <r>  -68.5555    1.0000 </r>
       <r>  -12.5972    1.0000 </r>
       <r>  -11.2503    1.0000 </r>
       <r>  -10.9916    1.0000 </r>
       <r>  -10.5678    1.0000 </r>
       <r>  -10.3663    1.0000 </r>
       <r>  -10.1770    1.0000 </r>
       <r>   -6.0118    1.0000 </r>
       <r>   -4.8940    1.0000 </r>
       <r>   -2.6459    1.0000 </r>
       <r>   -2.3145    1.0000 </r>
       <r>   -1.9725    1.0000 </r>
       <r>   -1.6456    1.0000 </r>
       <r>   -1.4933    1.0000 </r>
       <r>   -1.1848    1.0000 </r>
       <r>   -0.7880    1.0000 </r>
       <r>   -0.5845    1.0000 </r>
       <r>   -0.4509    1.0000 </r>
       <r>   -0.3341    1.0000 </r>
       <r>   -0.2951    1.0000 </r>
       <r>   -0.2324    1.0000 </r>
       <r>   -0.1753    1.0000 </r>
       <r>   -0.1327    1.0000 </r>
       <r>   -0.0101    1.0000 </r>
       <r>    0.0709    1.0000 </r>
       <r>    1.2575    1.0000 </r>
       <r>    1.3198    1.0000 </r>
       <r>    1.3617    1.0000 </r>
       <r>    1.4232    1.0000 </r>
       <r>    1.4319    1.0000 </r>
       <r>    1.4753    1.0000 </r>
       <r>    1.5041    1.0000 </r>
       <r>    1.5398    1.0000 </r>
       <r>    1.7231    1.0000 </r>
       <r>    1.8123    1.0000 </r>
       <r>    1.9956    1.0000 </r>
       <r>    2.0728    1.0000 </r>
       <r>    2.4175    1.0000 </r>
       <r>    2.4612    1.0000 </r>
       <r>    2.5278    1.0000 </r>
       <r>    2.8751    1.0000 </r>
       <r>    3.1417    1.0000 </r>
       <r>    3.2301    1.0000 </r>
       <r>    3.7851    1.0000 </r>
       <r>    4.0703    1.0269 </r>
       <r>    5.9770   -0.0000 </r>
       <r>    6.6828   -0.0000 </r>
       <r>    7.5346    0.0000 </r>
       <r>    8.2189    0.0000 </r>
       <r>    8.6171    0.0000 </r>
       <r>    8.9149    0.0000 </r>
       <r>    9.3031    0.0000 </r>
       <r>    9.4297    0.0000 </r>
       <r>    9.8043    0.0000 </r>
       <r>   10.2727    0.0000 </r>
       <r>   10.5437    0.0000 </r>
       <r>   10.8298    0.0000 </r>
       <r>   10.9704    0.0000 </r>
       <r>   11.3847    0.0000 </r>
       <r>   11.4687    0.0000 </r>
       <r>   11.7367    0.0000 </r>
       <r>   12.1008    0.0000 </r>
       <r>   12.6661    0.0000 </r>
       <r>   12.9416    0.0000 </r>
       <r>   13.1008    0.0000 </r>
       <r>   13.3504    0.0000 </r>
       <r>   13.5205    0.0000 </r>
       <r>   14.4727    0.0000 </r>
       <r>   14.7579    0.0000 </r>
      </set>
      <set comment="kpoint 8">
       <r>  -68.6554    1.0000 </r>
       <r>  -68.6457    1.0000 </r>
       <r>  -68.6331    1.0000 </r>
       <r>  -68.6292    1.0000 </r>
       <r>  -68.6219    1.0000 </r>
       <r>  -68.6137    1.0000 </r>
       <r>  -68.6046    1.0000 </r>
       <r>  -68.5964    1.0000 </r>
       <r>  -68.5773    1.0000 </r>
       <r>  -68.5728    1.0000 </r>
       <r>  -68.5602    1.0000 </r>
       <r>  -68.5554    1.0000 </r>
       <r>  -12.4351    1.0000 </r>
       <r>  -11.2457    1.0000 </r>
       <r>  -10.9566    1.0000 </r>
       <r>  -10.7644    1.0000 </r>
       <r>  -10.4278    1.0000 </r>
       <r>  -10.3551    1.0000 </r>
       <r>   -5.8717    1.0000 </r>
       <r>   -4.5467    1.0000 </r>
       <r>   -2.4941    1.0000 </r>
       <r>   -2.2453    1.0000 </r>
       <r>   -1.9453    1.0000 </r>
       <r>   -1.4636    1.0000 </r>
       <r>   -1.2250    1.0000 </r>
       <r>   -1.1006    1.0000 </r>
       <r>   -0.8995    1.0000 </r>
       <r>   -0.8619    1.0000 </r>
       <r>   -0.6000    1.0000 </r>
       <r>   -0.5383    1.0000 </r>
       <r>   -0.2739    1.0000 </r>
       <r>   -0.2057    1.0000 </r>
       <r>   -0.2025    1.0000 </r>
       <r>   -0.1463    1.0000 </r>
       <r>   -0.0337    1.0000 </r>
       <r>    0.0778    1.0000 </r>
       <r>    1.2528    1.0000 </r>
       <r>    1.3267    1.0000 </r>
       <r>    1.3464    1.0000 </r>
       <r>    1.3943    1.0000 </r>
       <r>    1.4711    1.0000 </r>
       <r>    1.4794    1.0000 </r>
       <r>    1.4987    1.0000 </r>
       <r>    1.5524    1.0000 </r>
       <r>    1.7498    1.0000 </r>
       <r>    1.7909    1.0000 </r>
       <r>    1.9691    1.0000 </r>
       <r>    2.1465    1.0000 </r>
       <r>    2.3208    1.0000 </r>
       <r>    2.3623    1.0000 </r>
       <r>    2.5508    1.0000 </r>
       <r>    2.6696    1.0000 </r>
       <r>    2.9414    1.0000 </r>
       <r>    3.0784    1.0000 </r>
       <r>    3.2493    1.0000 </r>
       <r>    3.8647    1.0000 </r>
       <r>    6.3836   -0.0000 </r>
       <r>    7.0864    0.0000 </r>
       <r>    7.9775    0.0000 </r>
       <r>    8.2026    0.0000 </r>
       <r>    8.5256    0.0000 </r>
       <r>    8.8210    0.0000 </r>
       <r>    9.3205    0.0000 </r>
       <r>    9.8895    0.0000 </r>
       <r>   10.0130    0.0000 </r>
       <r>   10.5197    0.0000 </r>
       <r>   10.6926    0.0000 </r>
       <r>   10.7914    0.0000 </r>
       <r>   11.1489    0.0000 </r>
       <r>   11.4083    0.0000 </r>
       <r>   11.6105    0.0000 </r>
       <r>   11.7717    0.0000 </r>
       <r>   11.9439    0.0000 </r>
       <r>   12.5048    0.0000 </r>
       <r>   12.8253    0.0000 </r>
       <r>   13.0309    0.0000 </r>
       <r>   13.5479    0.0000 </r>
       <r>   13.6837    0.0000 </r>
       <r>   14.5519    0.0000 </r>
       <r>   15.2447    0.0000 </r>
      </set>
      <set comment="kpoint 9">
       <r>  -68.6554    1.0000 </r>
       <r>  -68.6456    1.0000 </r>
       <r>  -68.6331    1.0000 </r>
       <r>  -68.6292    1.0000 </r>
       <r>  -68.6218    1.0000 </r>
       <r>  -68.6136    1.0000 </r>
       <r>  -68.6047    1.0000 </r>
       <r>  -68.5964    1.0000 </r>
       <r>  -68.5772    1.0000 </r>
       <r>  -68.5728    1.0000 </r>
       <r>  -68.5602    1.0000 </r>
       <r>  -68.5554    1.0000 </r>
       <r>  -12.4390    1.0000 </r>
       <r>  -11.3532    1.0000 </r>
       <r>  -10.9375    1.0000 </r>
       <r>  -10.7357    1.0000 </r>
       <r>  -10.3897    1.0000 </r>
       <r>  -10.2681    1.0000 </r>
       <r>   -5.9492    1.0000 </r>
       <r>   -4.6417    1.0000 </r>
       <r>   -2.3909    1.0000 </r>
       <r>   -2.2265    1.0000 </r>
       <r>   -2.0568    1.0000 </r>
       <r>   -1.6389    1.0000 </r>
       <r>   -1.3614    1.0000 </r>
       <r>   -1.2822    1.0000 </r>
       <r>   -1.0213    1.0000 </r>
       <r>   -0.5154    1.0000 </r>
       <r>   -0.4851    1.0000 </r>
       <r>   -0.3272    1.0000 </r>
       <r>   -0.2849    1.0000 </r>
       <r>   -0.2143    1.0000 </r>
       <r>   -0.1489    1.0000 </r>
       <r>   -0.1367    1.0000 </r>
       <r>   -0.0145    1.0000 </r>
       <r>    0.1119    1.0000 </r>
       <r>    1.2454    1.0000 </r>
       <r>    1.3127    1.0000 </r>
       <r>    1.3819    1.0000 </r>
       <r>    1.4355    1.0000 </r>
       <r>    1.4591    1.0000 </r>
       <r>    1.4910    1.0000 </r>
       <r>    1.4964    1.0000 </r>
       <r>    1.5510    1.0000 </r>
       <r>    1.7480    1.0000 </r>
       <r>    1.8277    1.0000 </r>
       <r>    1.9220    1.0000 </r>
       <r>    2.1334    1.0000 </r>
       <r>    2.2198    1.0000 </r>
       <r>    2.3848    1.0000 </r>
       <r>    2.5622    1.0000 </r>
       <r>    2.7928    1.0000 </r>
       <r>    2.9793    1.0000 </r>
       <r>    3.3114    1.0000 </r>
       <r>    3.6020    1.0000 </r>
       <r>    3.7512    1.0000 </r>
       <r>    6.0860   -0.0000 </r>
       <r>    6.9323   -0.0000 </r>
       <r>    7.6116    0.0000 </r>
       <r>    8.0661    0.0000 </r>
       <r>    8.4101    0.0000 </r>
       <r>    8.6143    0.0000 </r>
       <r>    8.9796    0.0000 </r>
       <r>    9.1517    0.0000 </r>
       <r>   10.0903    0.0000 </r>
       <r>   10.3368    0.0000 </r>
       <r>   10.7323    0.0000 </r>
       <r>   11.1070    0.0000 </r>
       <r>   11.4528    0.0000 </r>
       <r>   11.5791    0.0000 </r>
       <r>   11.7881    0.0000 </r>
       <r>   12.0356    0.0000 </r>
       <r>   12.5090    0.0000 </r>
       <r>   12.6651    0.0000 </r>
       <r>   12.9073    0.0000 </r>
       <r>   13.2138    0.0000 </r>
       <r>   14.2105    0.0000 </r>
       <r>   14.7196    0.0000 </r>
       <r>   15.1767    0.0000 </r>
       <r>   15.9011    0.0000 </r>
      </set>
      <set comment="kpoint 10">
       <r>  -68.6552    1.0000 </r>
       <r>  -68.6454    1.0000 </r>
       <r>  -68.6329    1.0000 </r>
       <r>  -68.6290    1.0000 </r>
       <r>  -68.6217    1.0000 </r>
       <r>  -68.6136    1.0000 </r>
       <r>  -68.6044    1.0000 </r>
       <r>  -68.5962    1.0000 </r>
       <r>  -68.5771    1.0000 </r>
       <r>  -68.5727    1.0000 </r>
       <r>  -68.5601    1.0000 </r>
       <r>  -68.5552    1.0000 </r>
       <r>  -12.4305    1.0000 </r>
       <r>  -11.5017    1.0000 </r>
       <r>  -10.9128    1.0000 </r>
       <r>  -10.6145    1.0000 </r>
       <r>  -10.3983    1.0000 </r>
       <r>  -10.1954    1.0000 </r>
       <r>   -6.0283    1.0000 </r>
       <r>   -4.8103    1.0000 </r>
       <r>   -2.3090    1.0000 </r>
       <r>   -2.2643    1.0000 </r>
       <r>   -2.0949    1.0000 </r>
       <r>   -1.7038    1.0000 </r>
       <r>   -1.2472    1.0000 </r>
       <r>   -1.1074    1.0000 </r>
       <r>   -0.8447    1.0000 </r>
       <r>   -0.7775    1.0000 </r>
       <r>   -0.7291    1.0000 </r>
       <r>   -0.2445    1.0000 </r>
       <r>   -0.1998    1.0000 </r>
       <r>   -0.1822    1.0000 </r>
       <r>   -0.1520    1.0000 </r>
       <r>   -0.0426    1.0000 </r>
       <r>   -0.0034    1.0000 </r>
       <r>    0.1858    1.0000 </r>
       <r>    1.2664    1.0000 </r>
       <r>    1.3154    1.0000 </r>
       <r>    1.3742    1.0000 </r>
       <r>    1.4142    1.0000 </r>
       <r>    1.4333    1.0000 </r>
       <r>    1.4895    1.0000 </r>
       <r>    1.5067    1.0000 </r>
       <r>    1.5469    1.0000 </r>
       <r>    1.7872    1.0000 </r>
       <r>    1.8471    1.0000 </r>
       <r>    1.9947    1.0000 </r>
       <r>    2.1501    1.0000 </r>
       <r>    2.2541    1.0000 </r>
       <r>    2.3354    1.0000 </r>
       <r>    2.5598    1.0000 </r>
       <r>    2.7655    1.0000 </r>
       <r>    2.7755    1.0000 </r>
       <r>    3.3691    1.0000 </r>
       <r>    3.7661    1.0000 </r>
       <r>    4.0068    1.0048 </r>
       <r>    5.8522   -0.0000 </r>
       <r>    6.7621   -0.0000 </r>
       <r>    7.0808    0.0000 </r>
       <r>    8.4089    0.0000 </r>
       <r>    8.5549    0.0000 </r>
       <r>    8.7728    0.0000 </r>
       <r>    9.1337    0.0000 </r>
       <r>    9.2408    0.0000 </r>
       <r>    9.9646    0.0000 </r>
       <r>   10.2867    0.0000 </r>
       <r>   10.7277    0.0000 </r>
       <r>   10.8232    0.0000 </r>
       <r>   10.8718    0.0000 </r>
       <r>   11.2794    0.0000 </r>
       <r>   11.7549    0.0000 </r>
       <r>   11.9140    0.0000 </r>
       <r>   11.9754    0.0000 </r>
       <r>   12.3744    0.0000 </r>
       <r>   12.5382    0.0000 </r>
       <r>   13.4585    0.0000 </r>
       <r>   14.2766    0.0000 </r>
       <r>   14.6739    0.0000 </r>
       <r>   16.7424    0.0000 </r>
       <r>   16.7572    0.0000 </r>
      </set>
      <set comment="kpoint 11">
       <r>  -68.6556    1.0000 </r>
       <r>  -68.6459    1.0000 </r>
       <r>  -68.6332    1.0000 </r>
       <r>  -68.6293    1.0000 </r>
       <r>  -68.6219    1.0000 </r>
       <r>  -68.6138    1.0000 </r>
       <r>  -68.6047    1.0000 </r>
       <r>  -68.5965    1.0000 </r>
       <r>  -68.5773    1.0000 </r>
       <r>  -68.5729    1.0000 </r>
       <r>  -68.5604    1.0000 </r>
       <r>  -68.5555    1.0000 </r>
       <r>  -12.6162    1.0000 </r>
       <r>  -11.4236    1.0000 </r>
       <r>  -10.7780    1.0000 </r>
       <r>  -10.6081    1.0000 </r>
       <r>  -10.2471    1.0000 </r>
       <r>  -10.2356    1.0000 </r>
       <r>   -5.8322    1.0000 </r>
       <r>   -5.0462    1.0000 </r>
       <r>   -2.5992    1.0000 </r>
       <r>   -2.3709    1.0000 </r>
       <r>   -1.9626    1.0000 </r>
       <r>   -1.7753    1.0000 </r>
       <r>   -1.4428    1.0000 </r>
       <r>   -1.1251    1.0000 </r>
       <r>   -1.0682    1.0000 </r>
       <r>   -0.7723    1.0000 </r>
       <r>   -0.4701    1.0000 </r>
       <r>   -0.2946    1.0000 </r>
       <r>   -0.2387    1.0000 </r>
       <r>   -0.2364    1.0000 </r>
       <r>   -0.1934    1.0000 </r>
       <r>   -0.1472    1.0000 </r>
       <r>   -0.0162    1.0000 </r>
       <r>    0.0226    1.0000 </r>
       <r>    1.3321    1.0000 </r>
       <r>    1.3795    1.0000 </r>
       <r>    1.4130    1.0000 </r>
       <r>    1.4386    1.0000 </r>
       <r>    1.4645    1.0000 </r>
       <r>    1.4678    1.0000 </r>
       <r>    1.5143    1.0000 </r>
       <r>    1.5463    1.0000 </r>
       <r>    1.6310    1.0000 </r>
       <r>    1.7591    1.0000 </r>
       <r>    1.7853    1.0000 </r>
       <r>    1.9499    1.0000 </r>
       <r>    2.0886    1.0000 </r>
       <r>    2.6590    1.0000 </r>
       <r>    2.7209    1.0000 </r>
       <r>    3.1944    1.0000 </r>
       <r>    3.2548    1.0000 </r>
       <r>    3.5208    1.0000 </r>
       <r>    3.8951    1.0000 </r>
       <r>    3.9783    1.0015 </r>
       <r>    6.0431   -0.0000 </r>
       <r>    6.4097   -0.0000 </r>
       <r>    7.8222    0.0000 </r>
       <r>    7.9090    0.0000 </r>
       <r>    8.3661    0.0000 </r>
       <r>    8.8169    0.0000 </r>
       <r>    9.7705    0.0000 </r>
       <r>    9.7943    0.0000 </r>
       <r>   10.0642    0.0000 </r>
       <r>   10.5804    0.0000 </r>
       <r>   10.6461    0.0000 </r>
       <r>   10.8123    0.0000 </r>
       <r>   10.8593    0.0000 </r>
       <r>   11.4946    0.0000 </r>
       <r>   11.5609    0.0000 </r>
       <r>   12.0251    0.0000 </r>
       <r>   12.5801    0.0000 </r>
       <r>   12.7792    0.0000 </r>
       <r>   12.9178    0.0000 </r>
       <r>   13.2050    0.0000 </r>
       <r>   13.5306    0.0000 </r>
       <r>   13.8286    0.0000 </r>
       <r>   14.1992    0.0000 </r>
       <r>   14.6984    0.0000 </r>
      </set>
      <set comment="kpoint 12">
       <r>  -68.6555    1.0000 </r>
       <r>  -68.6458    1.0000 </r>
       <r>  -68.6332    1.0000 </r>
       <r>  -68.6292    1.0000 </r>
       <r>  -68.6220    1.0000 </r>
       <r>  -68.6138    1.0000 </r>
       <r>  -68.6047    1.0000 </r>
       <r>  -68.5964    1.0000 </r>
       <r>  -68.5773    1.0000 </r>
       <r>  -68.5729    1.0000 </r>
       <r>  -68.5604    1.0000 </r>
       <r>  -68.5555    1.0000 </r>
       <r>  -12.4572    1.0000 </r>
       <r>  -11.4653    1.0000 </r>
       <r>  -10.8642    1.0000 </r>
       <r>  -10.6865    1.0000 </r>
       <r>  -10.3721    1.0000 </r>
       <r>  -10.2439    1.0000 </r>
       <r>   -5.7683    1.0000 </r>
       <r>   -4.8043    1.0000 </r>
       <r>   -2.4454    1.0000 </r>
       <r>   -2.2313    1.0000 </r>
       <r>   -1.8510    1.0000 </r>
       <r>   -1.7115    1.0000 </r>
       <r>   -1.4312    1.0000 </r>
       <r>   -1.1878    1.0000 </r>
       <r>   -0.8886    1.0000 </r>
       <r>   -0.7487    1.0000 </r>
       <r>   -0.6047    1.0000 </r>
       <r>   -0.5255    1.0000 </r>
       <r>   -0.3121    1.0000 </r>
       <r>   -0.2446    1.0000 </r>
       <r>   -0.1772    1.0000 </r>
       <r>   -0.1227    1.0000 </r>
       <r>   -0.0529    1.0000 </r>
       <r>    0.0598    1.0000 </r>
       <r>    1.2997    1.0000 </r>
       <r>    1.3343    1.0000 </r>
       <r>    1.3680    1.0000 </r>
       <r>    1.4332    1.0000 </r>
       <r>    1.4456    1.0000 </r>
       <r>    1.4766    1.0000 </r>
       <r>    1.5211    1.0000 </r>
       <r>    1.5465    1.0000 </r>
       <r>    1.6445    1.0000 </r>
       <r>    1.8712    1.0000 </r>
       <r>    1.9785    1.0000 </r>
       <r>    2.0481    1.0000 </r>
       <r>    2.1944    1.0000 </r>
       <r>    2.4750    1.0000 </r>
       <r>    2.5956    1.0000 </r>
       <r>    2.8375    1.0000 </r>
       <r>    2.9636    1.0000 </r>
       <r>    3.1330    1.0000 </r>
       <r>    3.5694    1.0000 </r>
       <r>    3.7249    1.0000 </r>
       <r>    6.4384   -0.0000 </r>
       <r>    6.9508   -0.0000 </r>
       <r>    8.1690    0.0000 </r>
       <r>    8.2461    0.0000 </r>
       <r>    8.8325    0.0000 </r>
       <r>    9.1275    0.0000 </r>
       <r>    9.4600    0.0000 </r>
       <r>    9.7982    0.0000 </r>
       <r>   10.0845    0.0000 </r>
       <r>   10.2952    0.0000 </r>
       <r>   10.7381    0.0000 </r>
       <r>   11.0797    0.0000 </r>
       <r>   11.2940    0.0000 </r>
       <r>   11.4265    0.0000 </r>
       <r>   11.6326    0.0000 </r>
       <r>   11.7216    0.0000 </r>
       <r>   12.0896    0.0000 </r>
       <r>   12.2678    0.0000 </r>
       <r>   12.5458    0.0000 </r>
       <r>   12.6545    0.0000 </r>
       <r>   12.9549    0.0000 </r>
       <r>   13.0638    0.0000 </r>
       <r>   13.6383    0.0000 </r>
       <r>   14.6905    0.0000 </r>
      </set>
      <set comment="kpoint 13">
       <r>  -68.6554    1.0000 </r>
       <r>  -68.6456    1.0000 </r>
       <r>  -68.6331    1.0000 </r>
       <r>  -68.6291    1.0000 </r>
       <r>  -68.6218    1.0000 </r>
       <r>  -68.6137    1.0000 </r>
       <r>  -68.6046    1.0000 </r>
       <r>  -68.5964    1.0000 </r>
       <r>  -68.5772    1.0000 </r>
       <r>  -68.5728    1.0000 </r>
       <r>  -68.5603    1.0000 </r>
       <r>  -68.5554    1.0000 </r>
       <r>  -12.3548    1.0000 </r>
       <r>  -11.4127    1.0000 </r>
       <r>  -10.9527    1.0000 </r>
       <r>  -10.6795    1.0000 </r>
       <r>  -10.4769    1.0000 </r>
       <r>  -10.3348    1.0000 </r>
       <r>   -5.7540    1.0000 </r>
       <r>   -4.7228    1.0000 </r>
       <r>   -2.5224    1.0000 </r>
       <r>   -2.1839    1.0000 </r>
       <r>   -1.9510    1.0000 </r>
       <r>   -1.5328    1.0000 </r>
       <r>   -1.3000    1.0000 </r>
       <r>   -1.0962    1.0000 </r>
       <r>   -0.8695    1.0000 </r>
       <r>   -0.7571    1.0000 </r>
       <r>   -0.5499    1.0000 </r>
       <r>   -0.4468    1.0000 </r>
       <r>   -0.2924    1.0000 </r>
       <r>   -0.1795    1.0000 </r>
       <r>   -0.1492    1.0000 </r>
       <r>   -0.1048    1.0000 </r>
       <r>   -0.0438    1.0000 </r>
       <r>    0.0189    1.0000 </r>
       <r>    1.2709    1.0000 </r>
       <r>    1.2967    1.0000 </r>
       <r>    1.3492    1.0000 </r>
       <r>    1.4299    1.0000 </r>
       <r>    1.4513    1.0000 </r>
       <r>    1.4789    1.0000 </r>
       <r>    1.5021    1.0000 </r>
       <r>    1.5888    1.0000 </r>
       <r>    1.7190    1.0000 </r>
       <r>    1.9315    1.0000 </r>
       <r>    2.0770    1.0000 </r>
       <r>    2.1450    1.0000 </r>
       <r>    2.2667    1.0000 </r>
       <r>    2.4032    1.0000 </r>
       <r>    2.5670    1.0000 </r>
       <r>    2.5979    1.0000 </r>
       <r>    2.9001    1.0000 </r>
       <r>    3.0084    1.0000 </r>
       <r>    3.3580    1.0000 </r>
       <r>    3.8999    1.0000 </r>
       <r>    6.3615   -0.0000 </r>
       <r>    6.8922   -0.0000 </r>
       <r>    7.5754    0.0000 </r>
       <r>    8.0830    0.0000 </r>
       <r>    8.5484    0.0000 </r>
       <r>    8.7955    0.0000 </r>
       <r>    9.2805    0.0000 </r>
       <r>    9.6238    0.0000 </r>
       <r>    9.9312    0.0000 </r>
       <r>   10.2708    0.0000 </r>
       <r>   10.6541    0.0000 </r>
       <r>   10.9290    0.0000 </r>
       <r>   10.9734    0.0000 </r>
       <r>   11.2796    0.0000 </r>
       <r>   11.5220    0.0000 </r>
       <r>   11.7890    0.0000 </r>
       <r>   12.2474    0.0000 </r>
       <r>   12.5396    0.0000 </r>
       <r>   13.1043    0.0000 </r>
       <r>   13.5180    0.0000 </r>
       <r>   14.2992    0.0000 </r>
       <r>   14.5654    0.0000 </r>
       <r>   15.1314    0.0000 </r>
       <r>   16.2711    0.0000 </r>
      </set>
      <set comment="kpoint 14">
       <r>  -68.6556    1.0000 </r>
       <r>  -68.6458    1.0000 </r>
       <r>  -68.6332    1.0000 </r>
       <r>  -68.6292    1.0000 </r>
       <r>  -68.6219    1.0000 </r>
       <r>  -68.6138    1.0000 </r>
       <r>  -68.6047    1.0000 </r>
       <r>  -68.5965    1.0000 </r>
       <r>  -68.5773    1.0000 </r>
       <r>  -68.5729    1.0000 </r>
       <r>  -68.5604    1.0000 </r>
       <r>  -68.5555    1.0000 </r>
       <r>  -12.5398    1.0000 </r>
       <r>  -11.3359    1.0000 </r>
       <r>  -10.8736    1.0000 </r>
       <r>  -10.6038    1.0000 </r>
       <r>  -10.3954    1.0000 </r>
       <r>  -10.2829    1.0000 </r>
       <r>   -5.8263    1.0000 </r>
       <r>   -4.9745    1.0000 </r>
       <r>   -2.6642    1.0000 </r>
       <r>   -2.4530    1.0000 </r>
       <r>   -2.0380    1.0000 </r>
       <r>   -1.5766    1.0000 </r>
       <r>   -1.1690    1.0000 </r>
       <r>   -0.9820    1.0000 </r>
       <r>   -0.7948    1.0000 </r>
       <r>   -0.6594    1.0000 </r>
       <r>   -0.5161    1.0000 </r>
       <r>   -0.3870    1.0000 </r>
       <r>   -0.2701    1.0000 </r>
       <r>   -0.2563    1.0000 </r>
       <r>   -0.1923    1.0000 </r>
       <r>   -0.1461    1.0000 </r>
       <r>   -0.0463    1.0000 </r>
       <r>    0.0119    1.0000 </r>
       <r>    1.2888    1.0000 </r>
       <r>    1.3107    1.0000 </r>
       <r>    1.3895    1.0000 </r>
       <r>    1.4072    1.0000 </r>
       <r>    1.4329    1.0000 </r>
       <r>    1.4533    1.0000 </r>
       <r>    1.4912    1.0000 </r>
       <r>    1.5642    1.0000 </r>
       <r>    1.6865    1.0000 </r>
       <r>    1.9144    1.0000 </r>
       <r>    1.9866    1.0000 </r>
       <r>    2.1451    1.0000 </r>
       <r>    2.3349    1.0000 </r>
       <r>    2.5659    1.0000 </r>
       <r>    2.6169    1.0000 </r>
       <r>    2.8291    1.0000 </r>
       <r>    2.9730    1.0000 </r>
       <r>    3.2490    1.0000 </r>
       <r>    3.6843    1.0000 </r>
       <r>    3.9445    1.0003 </r>
       <r>    6.1760   -0.0000 </r>
       <r>    6.6325   -0.0000 </r>
       <r>    7.7662    0.0000 </r>
       <r>    7.9715    0.0000 </r>
       <r>    8.2127    0.0000 </r>
       <r>    8.5631    0.0000 </r>
       <r>    9.3788    0.0000 </r>
       <r>    9.5769    0.0000 </r>
       <r>    9.9079    0.0000 </r>
       <r>   10.2531    0.0000 </r>
       <r>   10.5397    0.0000 </r>
       <r>   10.7864    0.0000 </r>
       <r>   10.8395    0.0000 </r>
       <r>   11.0707    0.0000 </r>
       <r>   11.5661    0.0000 </r>
       <r>   12.0215    0.0000 </r>
       <r>   12.5307    0.0000 </r>
       <r>   12.7593    0.0000 </r>
       <r>   12.9481    0.0000 </r>
       <r>   13.3085    0.0000 </r>
       <r>   13.4124    0.0000 </r>
       <r>   13.7374    0.0000 </r>
       <r>   13.8476    0.0000 </r>
       <r>   14.7283    0.0000 </r>
      </set>
      <set comment="kpoint 15">
       <r>  -68.6555    1.0000 </r>
       <r>  -68.6458    1.0000 </r>
       <r>  -68.6332    1.0000 </r>
       <r>  -68.6292    1.0000 </r>
       <r>  -68.6220    1.0000 </r>
       <r>  -68.6138    1.0000 </r>
       <r>  -68.6047    1.0000 </r>
       <r>  -68.5964    1.0000 </r>
       <r>  -68.5773    1.0000 </r>
       <r>  -68.5729    1.0000 </r>
       <r>  -68.5604    1.0000 </r>
       <r>  -68.5555    1.0000 </r>
       <r>  -12.4571    1.0000 </r>
       <r>  -11.4646    1.0000 </r>
       <r>  -10.8633    1.0000 </r>
       <r>  -10.6887    1.0000 </r>
       <r>  -10.3731    1.0000 </r>
       <r>  -10.2427    1.0000 </r>
       <r>   -5.7674    1.0000 </r>
       <r>   -4.8035    1.0000 </r>
       <r>   -2.4452    1.0000 </r>
       <r>   -2.2318    1.0000 </r>
       <r>   -1.8520    1.0000 </r>
       <r>   -1.7113    1.0000 </r>
       <r>   -1.4344    1.0000 </r>
       <r>   -1.1852    1.0000 </r>
       <r>   -0.8884    1.0000 </r>
       <r>   -0.7477    1.0000 </r>
       <r>   -0.6075    1.0000 </r>
       <r>   -0.5257    1.0000 </r>
       <r>   -0.3090    1.0000 </r>
       <r>   -0.2445    1.0000 </r>
       <r>   -0.1748    1.0000 </r>
       <r>   -0.1231    1.0000 </r>
       <r>   -0.0536    1.0000 </r>
       <r>    0.0578    1.0000 </r>
       <r>    1.3020    1.0000 </r>
       <r>    1.3344    1.0000 </r>
       <r>    1.3685    1.0000 </r>
       <r>    1.4319    1.0000 </r>
       <r>    1.4436    1.0000 </r>
       <r>    1.4772    1.0000 </r>
       <r>    1.5201    1.0000 </r>
       <r>    1.5469    1.0000 </r>
       <r>    1.6445    1.0000 </r>
       <r>    1.8702    1.0000 </r>
       <r>    1.9793    1.0000 </r>
       <r>    2.0478    1.0000 </r>
       <r>    2.1930    1.0000 </r>
       <r>    2.4749    1.0000 </r>
       <r>    2.5946    1.0000 </r>
       <r>    2.8369    1.0000 </r>
       <r>    2.9637    1.0000 </r>
       <r>    3.1345    1.0000 </r>
       <r>    3.5686    1.0000 </r>
       <r>    3.7264    1.0000 </r>
       <r>    6.4403   -0.0000 </r>
       <r>    6.9508   -0.0000 </r>
       <r>    8.1709    0.0000 </r>
       <r>    8.2411    0.0000 </r>
       <r>    8.8332    0.0000 </r>
       <r>    9.1302    0.0000 </r>
       <r>    9.4664    0.0000 </r>
       <r>    9.7891    0.0000 </r>
       <r>   10.0849    0.0000 </r>
       <r>   10.2974    0.0000 </r>
       <r>   10.7385    0.0000 </r>
       <r>   11.0814    0.0000 </r>
       <r>   11.2902    0.0000 </r>
       <r>   11.4290    0.0000 </r>
       <r>   11.6353    0.0000 </r>
       <r>   11.7264    0.0000 </r>
       <r>   12.0920    0.0000 </r>
       <r>   12.2617    0.0000 </r>
       <r>   12.5406    0.0000 </r>
       <r>   12.6591    0.0000 </r>
       <r>   12.9538    0.0000 </r>
       <r>   13.0563    0.0000 </r>
       <r>   13.6561    0.0000 </r>
       <r>   14.6964    0.0000 </r>
      </set>
      <set comment="kpoint 16">
       <r>  -68.6555    1.0000 </r>
       <r>  -68.6457    1.0000 </r>
       <r>  -68.6330    1.0000 </r>
       <r>  -68.6291    1.0000 </r>
       <r>  -68.6218    1.0000 </r>
       <r>  -68.6136    1.0000 </r>
       <r>  -68.6045    1.0000 </r>
       <r>  -68.5963    1.0000 </r>
       <r>  -68.5772    1.0000 </r>
       <r>  -68.5728    1.0000 </r>
       <r>  -68.5603    1.0000 </r>
       <r>  -68.5554    1.0000 </r>
       <r>  -12.3253    1.0000 </r>
       <r>  -11.4737    1.0000 </r>
       <r>  -10.8613    1.0000 </r>
       <r>  -10.8565    1.0000 </r>
       <r>  -10.4048    1.0000 </r>
       <r>  -10.2865    1.0000 </r>
       <r>   -5.7491    1.0000 </r>
       <r>   -4.6917    1.0000 </r>
       <r>   -2.2411    1.0000 </r>
       <r>   -2.1380    1.0000 </r>
       <r>   -1.9271    1.0000 </r>
       <r>   -1.8511    1.0000 </r>
       <r>   -1.4535    1.0000 </r>
       <r>   -1.3943    1.0000 </r>
       <r>   -1.0360    1.0000 </r>
       <r>   -0.5207    1.0000 </r>
       <r>   -0.4636    1.0000 </r>
       <r>   -0.3496    1.0000 </r>
       <r>   -0.2494    1.0000 </r>
       <r>   -0.2168    1.0000 </r>
       <r>   -0.1620    1.0000 </r>
       <r>   -0.1140    1.0000 </r>
       <r>   -0.0922    1.0000 </r>
       <r>    0.0787    1.0000 </r>
       <r>    1.2600    1.0000 </r>
       <r>    1.3458    1.0000 </r>
       <r>    1.3988    1.0000 </r>
       <r>    1.4340    1.0000 </r>
       <r>    1.4524    1.0000 </r>
       <r>    1.5090    1.0000 </r>
       <r>    1.5338    1.0000 </r>
       <r>    1.5405    1.0000 </r>
       <r>    1.7545    1.0000 </r>
       <r>    1.8164    1.0000 </r>
       <r>    2.0404    1.0000 </r>
       <r>    2.1340    1.0000 </r>
       <r>    2.2853    1.0000 </r>
       <r>    2.3117    1.0000 </r>
       <r>    2.5197    1.0000 </r>
       <r>    2.7706    1.0000 </r>
       <r>    2.8977    1.0000 </r>
       <r>    3.2616    1.0000 </r>
       <r>    3.4969    1.0000 </r>
       <r>    3.8018    1.0000 </r>
       <r>    6.1812   -0.0000 </r>
       <r>    6.8350   -0.0000 </r>
       <r>    7.8280    0.0000 </r>
       <r>    8.0445    0.0000 </r>
       <r>    8.1873    0.0000 </r>
       <r>    8.7263    0.0000 </r>
       <r>    9.1506    0.0000 </r>
       <r>    9.3058    0.0000 </r>
       <r>   10.2187    0.0000 </r>
       <r>   10.4433    0.0000 </r>
       <r>   10.5929    0.0000 </r>
       <r>   11.0058    0.0000 </r>
       <r>   11.2347    0.0000 </r>
       <r>   11.4918    0.0000 </r>
       <r>   11.8113    0.0000 </r>
       <r>   12.1713    0.0000 </r>
       <r>   12.2098    0.0000 </r>
       <r>   12.5738    0.0000 </r>
       <r>   12.6913    0.0000 </r>
       <r>   13.1203    0.0000 </r>
       <r>   13.4164    0.0000 </r>
       <r>   13.8783    0.0000 </r>
       <r>   14.0056    0.0000 </r>
       <r>   14.5201    0.0000 </r>
      </set>
      <set comment="kpoint 17">
       <r>  -68.6554    1.0000 </r>
       <r>  -68.6456    1.0000 </r>
       <r>  -68.6331    1.0000 </r>
       <r>  -68.6292    1.0000 </r>
       <r>  -68.6218    1.0000 </r>
       <r>  -68.6137    1.0000 </r>
       <r>  -68.6046    1.0000 </r>
       <r>  -68.5964    1.0000 </r>
       <r>  -68.5772    1.0000 </r>
       <r>  -68.5729    1.0000 </r>
       <r>  -68.5602    1.0000 </r>
       <r>  -68.5554    1.0000 </r>
       <r>  -12.3717    1.0000 </r>
       <r>  -11.4729    1.0000 </r>
       <r>  -10.9374    1.0000 </r>
       <r>  -10.6497    1.0000 </r>
       <r>  -10.4174    1.0000 </r>
       <r>  -10.3035    1.0000 </r>
       <r>   -5.8026    1.0000 </r>
       <r>   -4.8367    1.0000 </r>
       <r>   -2.5259    1.0000 </r>
       <r>   -2.2437    1.0000 </r>
       <r>   -1.8733    1.0000 </r>
       <r>   -1.6427    1.0000 </r>
       <r>   -1.5044    1.0000 </r>
       <r>   -1.3064    1.0000 </r>
       <r>   -0.8973    1.0000 </r>
       <r>   -0.5368    1.0000 </r>
       <r>   -0.3800    1.0000 </r>
       <r>   -0.3463    1.0000 </r>
       <r>   -0.2242    1.0000 </r>
       <r>   -0.1790    1.0000 </r>
       <r>   -0.1630    1.0000 </r>
       <r>   -0.0788    1.0000 </r>
       <r>   -0.0271    1.0000 </r>
       <r>    0.0803    1.0000 </r>
       <r>    1.1891    1.0000 </r>
       <r>    1.3622    1.0000 </r>
       <r>    1.3953    1.0000 </r>
       <r>    1.4419    1.0000 </r>
       <r>    1.4629    1.0000 </r>
       <r>    1.5047    1.0000 </r>
       <r>    1.5165    1.0000 </r>
       <r>    1.5861    1.0000 </r>
       <r>    1.7391    1.0000 </r>
       <r>    1.8182    1.0000 </r>
       <r>    2.0379    1.0000 </r>
       <r>    2.2344    1.0000 </r>
       <r>    2.2694    1.0000 </r>
       <r>    2.3624    1.0000 </r>
       <r>    2.4877    1.0000 </r>
       <r>    2.6704    1.0000 </r>
       <r>    3.0543    1.0000 </r>
       <r>    3.4119    1.0000 </r>
       <r>    3.7278    1.0000 </r>
       <r>    3.8647    1.0000 </r>
       <r>    5.9284   -0.0000 </r>
       <r>    6.6072   -0.0000 </r>
       <r>    7.3543    0.0000 </r>
       <r>    7.9437    0.0000 </r>
       <r>    8.0629    0.0000 </r>
       <r>    8.7186    0.0000 </r>
       <r>    8.9062    0.0000 </r>
       <r>    9.1408    0.0000 </r>
       <r>    9.8461    0.0000 </r>
       <r>   10.3284    0.0000 </r>
       <r>   10.5556    0.0000 </r>
       <r>   10.9245    0.0000 </r>
       <r>   11.2206    0.0000 </r>
       <r>   11.4170    0.0000 </r>
       <r>   11.7522    0.0000 </r>
       <r>   12.0025    0.0000 </r>
       <r>   12.4984    0.0000 </r>
       <r>   12.8238    0.0000 </r>
       <r>   13.2014    0.0000 </r>
       <r>   14.1818    0.0000 </r>
       <r>   14.7253    0.0000 </r>
       <r>   15.1565    0.0000 </r>
       <r>   15.9167    0.0000 </r>
       <r>   16.5714    0.0000 </r>
      </set>
      <set comment="kpoint 18">
       <r>  -68.6555    1.0000 </r>
       <r>  -68.6458    1.0000 </r>
       <r>  -68.6332    1.0000 </r>
       <r>  -68.6293    1.0000 </r>
       <r>  -68.6219    1.0000 </r>
       <r>  -68.6137    1.0000 </r>
       <r>  -68.6047    1.0000 </r>
       <r>  -68.5965    1.0000 </r>
       <r>  -68.5773    1.0000 </r>
       <r>  -68.5729    1.0000 </r>
       <r>  -68.5603    1.0000 </r>
       <r>  -68.5555    1.0000 </r>
       <r>  -12.4981    1.0000 </r>
       <r>  -11.4240    1.0000 </r>
       <r>  -10.9483    1.0000 </r>
       <r>  -10.5799    1.0000 </r>
       <r>  -10.3740    1.0000 </r>
       <r>  -10.2046    1.0000 </r>
       <r>   -5.8300    1.0000 </r>
       <r>   -4.9400    1.0000 </r>
       <r>   -2.5720    1.0000 </r>
       <r>   -2.3654    1.0000 </r>
       <r>   -1.9182    1.0000 </r>
       <r>   -1.5955    1.0000 </r>
       <r>   -1.4145    1.0000 </r>
       <r>   -1.1211    1.0000 </r>
       <r>   -0.8148    1.0000 </r>
       <r>   -0.6746    1.0000 </r>
       <r>   -0.5353    1.0000 </r>
       <r>   -0.4719    1.0000 </r>
       <r>   -0.2529    1.0000 </r>
       <r>   -0.1943    1.0000 </r>
       <r>   -0.1691    1.0000 </r>
       <r>   -0.1201    1.0000 </r>
       <r>   -0.0363    1.0000 </r>
       <r>    0.0563    1.0000 </r>
       <r>    1.2802    1.0000 </r>
       <r>    1.3225    1.0000 </r>
       <r>    1.3450    1.0000 </r>
       <r>    1.4329    1.0000 </r>
       <r>    1.4501    1.0000 </r>
       <r>    1.4656    1.0000 </r>
       <r>    1.4921    1.0000 </r>
       <r>    1.5584    1.0000 </r>
       <r>    1.7264    1.0000 </r>
       <r>    1.8415    1.0000 </r>
       <r>    1.9701    1.0000 </r>
       <r>    2.0991    1.0000 </r>
       <r>    2.3364    1.0000 </r>
       <r>    2.4493    1.0000 </r>
       <r>    2.5385    1.0000 </r>
       <r>    2.8512    1.0000 </r>
       <r>    3.0539    1.0000 </r>
       <r>    3.2653    1.0000 </r>
       <r>    3.6726    1.0000 </r>
       <r>    3.7847    1.0000 </r>
       <r>    6.2586   -0.0000 </r>
       <r>    6.7924   -0.0000 </r>
       <r>    7.8157    0.0000 </r>
       <r>    8.1321    0.0000 </r>
       <r>    8.3332    0.0000 </r>
       <r>    8.9299    0.0000 </r>
       <r>    9.3370    0.0000 </r>
[...]
       <r>   11.7065    0.0000 </r>
       <r>   11.8948    0.0000 </r>
       <r>   12.2987    0.0000 </r>
       <r>   12.6541    0.0000 </r>
       <r>   13.0133    0.0000 </r>
       <r>   13.2328    0.0000 </r>
       <r>   13.6964    0.0000 </r>
       <r>   14.0673    0.0000 </r>
       <r>   14.3874    0.0000 </r>
       <r>   16.5203    0.0000 </r>
      </set>
      <set comment="kpoint 42">
       <r>  -68.6555    1.0000 </r>
       <r>  -68.6457    1.0000 </r>
       <r>  -68.6329    1.0000 </r>
       <r>  -68.6290    1.0000 </r>
       <r>  -68.6218    1.0000 </r>
       <r>  -68.6137    1.0000 </r>
       <r>  -68.6045    1.0000 </r>
       <r>  -68.5962    1.0000 </r>
       <r>  -68.5772    1.0000 </r>
       <r>  -68.5728    1.0000 </r>
       <r>  -68.5604    1.0000 </r>
       <r>  -68.5555    1.0000 </r>
       <r>  -12.1773    1.0000 </r>
       <r>  -11.7041    1.0000 </r>
       <r>  -10.7159    1.0000 </r>
       <r>  -10.6924    1.0000 </r>
       <r>  -10.5846    1.0000 </r>
       <r>  -10.3911    1.0000 </r>
       <r>   -5.4465    1.0000 </r>
       <r>   -5.0719    1.0000 </r>
       <r>   -2.5090    1.0000 </r>
       <r>   -2.3789    1.0000 </r>
       <r>   -1.9617    1.0000 </r>
       <r>   -1.3690    1.0000 </r>
       <r>   -1.3294    1.0000 </r>
       <r>   -1.0521    1.0000 </r>
       <r>   -0.8316    1.0000 </r>
       <r>   -0.7659    1.0000 </r>
       <r>   -0.4245    1.0000 </r>
       <r>   -0.3417    1.0000 </r>
       <r>   -0.2728    1.0000 </r>
       <r>   -0.2079    1.0000 </r>
       <r>   -0.1444    1.0000 </r>
       <r>   -0.1402    1.0000 </r>
       <r>   -0.0141    1.0000 </r>
       <r>    0.0277    1.0000 </r>
       <r>    1.1717    1.0000 </r>
       <r>    1.3702    1.0000 </r>
       <r>    1.3964    1.0000 </r>
       <r>    1.4505    1.0000 </r>
       <r>    1.4537    1.0000 </r>
       <r>    1.4993    1.0000 </r>
       <r>    1.5172    1.0000 </r>
       <r>    1.5466    1.0000 </r>
       <r>    1.7446    1.0000 </r>
       <r>    1.8198    1.0000 </r>
       <r>    1.9723    1.0000 </r>
       <r>    2.2246    1.0000 </r>
       <r>    2.3975    1.0000 </r>
       <r>    2.6146    1.0000 </r>
       <r>    2.6557    1.0000 </r>
       <r>    2.9165    1.0000 </r>
       <r>    3.0688    1.0000 </r>
       <r>    3.1194    1.0000 </r>
       <r>    3.2866    1.0000 </r>
       <r>    3.5820    1.0000 </r>
       <r>    6.2857   -0.0000 </r>
       <r>    6.3782   -0.0000 </r>
       <r>    7.3521    0.0000 </r>
       <r>    7.5260    0.0000 </r>
       <r>    8.3085    0.0000 </r>
       <r>    8.3327    0.0000 </r>
       <r>    9.1074    0.0000 </r>
       <r>    9.3602    0.0000 </r>
       <r>    9.7167    0.0000 </r>
       <r>    9.9455    0.0000 </r>
       <r>   10.5237    0.0000 </r>
       <r>   10.9901    0.0000 </r>
       <r>   11.4236    0.0000 </r>
       <r>   11.5622    0.0000 </r>
       <r>   12.0134    0.0000 </r>
       <r>   12.2906    0.0000 </r>
       <r>   12.4295    0.0000 </r>
       <r>   12.4797    0.0000 </r>
       <r>   13.0344    0.0000 </r>
       <r>   13.1427    0.0000 </r>
       <r>   14.1385    0.0000 </r>
       <r>   14.4435    0.0000 </r>
       <r>   15.1713    0.0000 </r>
       <r>   15.8736    0.0000 </r>
      </set>
     </set>
    </set>
   </array>
  </eigenvalues>
  <separator name="orbital magnetization" >
   <v name="MAGDIPOLOUT">      0.00000000      0.00000000      0.00000000</v>
  </separator>
  <dos>
   <i name="efermi">      4.22196398 </i>
   <total>
    <array>
     <dimension dim="1">gridpoints</dimension>
     <dimension dim="2">spin</dimension>
     <field>energy</field>
     <field>total</field>
     <field>integrated</field>
     <set>
      <set comment="spin 1">
       <r>   -72.8301     0.0000     0.0000 </r>
       <r>   -72.5238     0.0000     0.0000 </r>
       <r>   -72.2174     0.0000     0.0000 </r>
       <r>   -71.9110     0.0000     0.0000 </r>
       <r>   -71.6046     0.0000     0.0000 </r>
       <r>   -71.2982     0.0000     0.0000 </r>
       <r>   -70.9918     0.0000     0.0000 </r>
       <r>   -70.6855     0.0000     0.0000 </r>
       <r>   -70.3791     0.0000     0.0000 </r>
       <r>   -70.0727     0.0000     0.0000 </r>
       <r>   -69.7663     0.0000     0.0000 </r>
       <r>   -69.4599    -0.0000    -0.0000 </r>
       <r>   -69.1536    -0.0000    -0.0000 </r>
       <r>   -68.8472    -0.2393    -0.0733 </r>
       <r>   -68.5408    70.1669    21.4245 </r>
       <r>   -68.2344     8.4066    24.0001 </r>
       <r>   -67.9280    -0.0004    24.0000 </r>
       <r>   -67.6217     0.0000    24.0000 </r>
       <r>   -67.3153     0.0000    24.0000 </r>
       <r>   -67.0089     0.0000    24.0000 </r>
       <r>   -66.7025     0.0000    24.0000 </r>
       <r>   -66.3961     0.0000    24.0000 </r>
       <r>   -66.0898     0.0000    24.0000 </r>
       <r>   -65.7834     0.0000    24.0000 </r>
       <r>   -65.4770     0.0000    24.0000 </r>
       <r>   -65.1706     0.0000    24.0000 </r>
       <r>   -64.8642     0.0000    24.0000 </r>
       <r>   -64.5578     0.0000    24.0000 </r>
       <r>   -64.2515     0.0000    24.0000 </r>
       <r>   -63.9451     0.0000    24.0000 </r>
       <r>   -63.6387     0.0000    24.0000 </r>
       <r>   -63.3323     0.0000    24.0000 </r>
       <r>   -63.0259     0.0000    24.0000 </r>
       <r>   -62.7196     0.0000    24.0000 </r>
       <r>   -62.4132     0.0000    24.0000 </r>
       <r>   -62.1068     0.0000    24.0000 </r>
       <r>   -61.8004     0.0000    24.0000 </r>
       <r>   -61.4940     0.0000    24.0000 </r>
       <r>   -61.1877     0.0000    24.0000 </r>
       <r>   -60.8813     0.0000    24.0000 </r>
       <r>   -60.5749     0.0000    24.0000 </r>
       <r>   -60.2685     0.0000    24.0000 </r>
       <r>   -59.9621     0.0000    24.0000 </r>
       <r>   -59.6557     0.0000    24.0000 </r>
       <r>   -59.3494     0.0000    24.0000 </r>
       <r>   -59.0430     0.0000    24.0000 </r>
       <r>   -58.7366     0.0000    24.0000 </r>
       <r>   -58.4302     0.0000    24.0000 </r>
       <r>   -58.1238     0.0000    24.0000 </r>
       <r>   -57.8175     0.0000    24.0000 </r>
       <r>   -57.5111     0.0000    24.0000 </r>
       <r>   -57.2047     0.0000    24.0000 </r>
       <r>   -56.8983     0.0000    24.0000 </r>
       <r>   -56.5919     0.0000    24.0000 </r>
       <r>   -56.2856     0.0000    24.0000 </r>
       <r>   -55.9792     0.0000    24.0000 </r>
       <r>   -55.6728     0.0000    24.0000 </r>
       <r>   -55.3664     0.0000    24.0000 </r>
       <r>   -55.0600     0.0000    24.0000 </r>
       <r>   -54.7537     0.0000    24.0000 </r>
       <r>   -54.4473     0.0000    24.0000 </r>
       <r>   -54.1409     0.0000    24.0000 </r>
       <r>   -53.8345     0.0000    24.0000 </r>
       <r>   -53.5281     0.0000    24.0000 </r>
       <r>   -53.2217     0.0000    24.0000 </r>
       <r>   -52.9154     0.0000    24.0000 </r>
       <r>   -52.6090     0.0000    24.0000 </r>
       <r>   -52.3026     0.0000    24.0000 </r>
       <r>   -51.9962     0.0000    24.0000 </r>
       <r>   -51.6898     0.0000    24.0000 </r>
       <r>   -51.3835     0.0000    24.0000 </r>
       <r>   -51.0771     0.0000    24.0000 </r>
       <r>   -50.7707     0.0000    24.0000 </r>
       <r>   -50.4643     0.0000    24.0000 </r>
       <r>   -50.1579     0.0000    24.0000 </r>
       <r>   -49.8516     0.0000    24.0000 </r>
       <r>   -49.5452     0.0000    24.0000 </r>
       <r>   -49.2388     0.0000    24.0000 </r>
       <r>   -48.9324     0.0000    24.0000 </r>
       <r>   -48.6260     0.0000    24.0000 </r>
       <r>   -48.3197     0.0000    24.0000 </r>
       <r>   -48.0133     0.0000    24.0000 </r>
       <r>   -47.7069     0.0000    24.0000 </r>
       <r>   -47.4005     0.0000    24.0000 </r>
       <r>   -47.0941     0.0000    24.0000 </r>
       <r>   -46.7877     0.0000    24.0000 </r>
       <r>   -46.4814     0.0000    24.0000 </r>
       <r>   -46.1750     0.0000    24.0000 </r>
       <r>   -45.8686     0.0000    24.0000 </r>
       <r>   -45.5622     0.0000    24.0000 </r>
       <r>   -45.2558     0.0000    24.0000 </r>
       <r>   -44.9495     0.0000    24.0000 </r>
       <r>   -44.6431     0.0000    24.0000 </r>
       <r>   -44.3367     0.0000    24.0000 </r>
       <r>   -44.0303     0.0000    24.0000 </r>
       <r>   -43.7239     0.0000    24.0000 </r>
       <r>   -43.4176     0.0000    24.0000 </r>
       <r>   -43.1112     0.0000    24.0000 </r>
       <r>   -42.8048     0.0000    24.0000 </r>
       <r>   -42.4984     0.0000    24.0000 </r>
       <r>   -42.1920     0.0000    24.0000 </r>
       <r>   -41.8856     0.0000    24.0000 </r>
       <r>   -41.5793     0.0000    24.0000 </r>
       <r>   -41.2729     0.0000    24.0000 </r>
       <r>   -40.9665     0.0000    24.0000 </r>
       <r>   -40.6601     0.0000    24.0000 </r>
       <r>   -40.3537     0.0000    24.0000 </r>
       <r>   -40.0474     0.0000    24.0000 </r>
       <r>   -39.7410     0.0000    24.0000 </r>
       <r>   -39.4346     0.0000    24.0000 </r>
       <r>   -39.1282     0.0000    24.0000 </r>
       <r>   -38.8218     0.0000    24.0000 </r>
       <r>   -38.5155     0.0000    24.0000 </r>
       <r>   -38.2091     0.0000    24.0000 </r>
       <r>   -37.9027     0.0000    24.0000 </r>
       <r>   -37.5963     0.0000    24.0000 </r>
       <r>   -37.2899     0.0000    24.0000 </r>
       <r>   -36.9836     0.0000    24.0000 </r>
       <r>   -36.6772     0.0000    24.0000 </r>
       <r>   -36.3708     0.0000    24.0000 </r>
       <r>   -36.0644     0.0000    24.0000 </r>
       <r>   -35.7580     0.0000    24.0000 </r>
       <r>   -35.4516     0.0000    24.0000 </r>
       <r>   -35.1453     0.0000    24.0000 </r>
       <r>   -34.8389     0.0000    24.0000 </r>
       <r>   -34.5325     0.0000    24.0000 </r>
       <r>   -34.2261     0.0000    24.0000 </r>
       <r>   -33.9197     0.0000    24.0000 </r>
       <r>   -33.6134     0.0000    24.0000 </r>
       <r>   -33.3070     0.0000    24.0000 </r>
       <r>   -33.0006     0.0000    24.0000 </r>
       <r>   -32.6942     0.0000    24.0000 </r>
       <r>   -32.3878     0.0000    24.0000 </r>
       <r>   -32.0815     0.0000    24.0000 </r>
       <r>   -31.7751     0.0000    24.0000 </r>
       <r>   -31.4687     0.0000    24.0000 </r>
       <r>   -31.1623     0.0000    24.0000 </r>
       <r>   -30.8559     0.0000    24.0000 </r>
       <r>   -30.5496     0.0000    24.0000 </r>
       <r>   -30.2432     0.0000    24.0000 </r>
       <r>   -29.9368     0.0000    24.0000 </r>
       <r>   -29.6304     0.0000    24.0000 </r>
       <r>   -29.3240     0.0000    24.0000 </r>
       <r>   -29.0176     0.0000    24.0000 </r>
       <r>   -28.7113     0.0000    24.0000 </r>
       <r>   -28.4049     0.0000    24.0000 </r>
       <r>   -28.0985     0.0000    24.0000 </r>
       <r>   -27.7921     0.0000    24.0000 </r>
       <r>   -27.4857     0.0000    24.0000 </r>
       <r>   -27.1794     0.0000    24.0000 </r>
       <r>   -26.8730     0.0000    24.0000 </r>
       <r>   -26.5666     0.0000    24.0000 </r>
       <r>   -26.2602     0.0000    24.0000 </r>
       <r>   -25.9538     0.0000    24.0000 </r>
       <r>   -25.6475     0.0000    24.0000 </r>
       <r>   -25.3411     0.0000    24.0000 </r>
       <r>   -25.0347     0.0000    24.0000 </r>
       <r>   -24.7283     0.0000    24.0000 </r>
       <r>   -24.4219     0.0000    24.0000 </r>
       <r>   -24.1155     0.0000    24.0000 </r>
       <r>   -23.8092     0.0000    24.0000 </r>
       <r>   -23.5028     0.0000    24.0000 </r>
       <r>   -23.1964     0.0000    24.0000 </r>
       <r>   -22.8900     0.0000    24.0000 </r>
       <r>   -22.5836     0.0000    24.0000 </r>
       <r>   -22.2773     0.0000    24.0000 </r>
       <r>   -21.9709     0.0000    24.0000 </r>
       <r>   -21.6645     0.0000    24.0000 </r>
       <r>   -21.3581     0.0000    24.0000 </r>
       <r>   -21.0517     0.0000    24.0000 </r>
       <r>   -20.7454     0.0000    24.0000 </r>
       <r>   -20.4390     0.0000    24.0000 </r>
       <r>   -20.1326     0.0000    24.0000 </r>
       <r>   -19.8262     0.0000    24.0000 </r>
       <r>   -19.5198     0.0000    24.0000 </r>
       <r>   -19.2135     0.0000    24.0000 </r>
       <r>   -18.9071     0.0000    24.0000 </r>
       <r>   -18.6007     0.0000    24.0000 </r>
       <r>   -18.2943     0.0000    24.0000 </r>
       <r>   -17.9879     0.0000    24.0000 </r>
       <r>   -17.6815     0.0000    24.0000 </r>
       <r>   -17.3752     0.0000    24.0000 </r>
       <r>   -17.0688     0.0000    24.0000 </r>
       <r>   -16.7624     0.0000    24.0000 </r>
       <r>   -16.4560     0.0000    24.0000 </r>
       <r>   -16.1496     0.0000    24.0000 </r>
       <r>   -15.8433     0.0000    24.0000 </r>
       <r>   -15.5369     0.0000    24.0000 </r>
       <r>   -15.2305     0.0000    24.0000 </r>
       <r>   -14.9241     0.0000    24.0000 </r>
       <r>   -14.6177     0.0000    24.0000 </r>
       <r>   -14.3114     0.0000    24.0000 </r>
       <r>   -14.0050     0.0000    24.0000 </r>
       <r>   -13.6986    -0.0000    24.0000 </r>
       <r>   -13.3922    -0.0000    24.0000 </r>
       <r>   -13.0858    -0.0000    24.0000 </r>
       <r>   -12.7795    -0.0040    23.9988 </r>
       <r>   -12.4731     1.5289    24.4672 </r>
       <r>   -12.1667     3.5698    25.5609 </r>
       <r>   -11.8603     1.9128    26.1470 </r>
       <r>   -11.5539     2.1602    26.8088 </r>
       <r>   -11.2475     3.1872    27.7853 </r>
       <r>   -10.9412     2.5400    28.5635 </r>
       <r>   -10.6348     9.2704    31.4038 </r>
       <r>   -10.3284     9.3489    34.2681 </r>
       <r>   -10.0220     5.6723    36.0060 </r>
       <r>    -9.7156    -0.0195    36.0000 </r>
       <r>    -9.4093    -0.0000    36.0000 </r>
       <r>    -9.1029     0.0000    36.0000 </r>
       <r>    -8.7965     0.0000    36.0000 </r>
       <r>    -8.4901     0.0000    36.0000 </r>
       <r>    -8.1837     0.0000    36.0000 </r>
       <r>    -7.8774     0.0000    36.0000 </r>
       <r>    -7.5710     0.0000    36.0000 </r>
       <r>    -7.2646     0.0000    36.0000 </r>
       <r>    -6.9582    -0.0000    36.0000 </r>
       <r>    -6.6518    -0.0000    36.0000 </r>
       <r>    -6.3454    -0.0000    36.0000 </r>
       <r>    -6.0391     0.0619    36.0190 </r>
       <r>    -5.7327     3.5051    37.0928 </r>
       <r>    -5.4263     2.0481    37.7203 </r>
       <r>    -5.1199     1.8624    38.2909 </r>
       <r>    -4.8135     3.2972    39.3011 </r>
       <r>    -4.5072     2.2146    39.9796 </r>
       <r>    -4.2008     0.0665    40.0000 </r>
       <r>    -3.8944    -0.0000    40.0000 </r>
       <r>    -3.5880    -0.0000    40.0000 </r>
       <r>    -3.2816    -0.0000    40.0000 </r>
       <r>    -2.9753    -0.0004    39.9999 </r>
       <r>    -2.6689     0.3692    40.1130 </r>
       <r>    -2.3625     6.1389    41.9938 </r>
       <r>    -2.0561     6.7036    44.0477 </r>
       <r>    -1.7497     7.3566    46.3016 </r>
       <r>    -1.4434     6.4114    48.2659 </r>
       <r>    -1.1370     8.7382    50.9432 </r>
       <r>    -0.8306     9.0644    53.7203 </r>
       <r>    -0.5242    11.4427    57.2262 </r>
       <r>    -0.2178    18.2046    62.8037 </r>
       <r>     0.0886    28.9122    71.6619 </r>
       <r>     0.3949     1.1043    72.0002 </r>
       <r>     0.7013    -0.0007    72.0000 </r>
       <r>     1.0077    -0.0209    71.9936 </r>
       <r>     1.3141     7.5640    74.3111 </r>
       <r>     1.6205    44.6884    88.0028 </r>
       <r>     1.9268    13.8163    92.2358 </r>
       <r>     2.2332    13.1815    96.2744 </r>
       <r>     2.5396    12.8371   100.2074 </r>
       <r>     2.8460    11.1234   103.6154 </r>
       <r>     3.1524     9.0987   106.4031 </r>
       <r>     3.4587     7.9197   108.8295 </r>
       <r>     3.7651     6.9195   110.9495 </r>
       <r>     4.0715     3.1785   111.9233 </r>
       <r>     4.3779     0.2508   112.0002 </r>
       <r>     4.6843    -0.0006   112.0000 </r>
       <r>     4.9907    -0.0000   112.0000 </r>
       <r>     5.2970    -0.0002   112.0000 </r>
       <r>     5.6034     0.0779   112.0238 </r>
       <r>     5.9098     0.1765   112.0779 </r>
       <r>     6.2162     2.6585   112.8924 </r>
       <r>     6.5226     4.4041   114.2417 </r>
       <r>     6.8289     3.4431   115.2966 </r>
       <r>     7.1353     2.3720   116.0234 </r>
       <r>     7.4417     1.4502   116.4677 </r>
       <r>     7.7481     3.1804   117.4421 </r>
       <r>     8.0545     5.5874   119.1540 </r>
       <r>     8.3608     5.5160   120.8440 </r>
       <r>     8.6672     4.5922   122.2509 </r>
       <r>     8.9736     4.4621   123.6180 </r>
       <r>     9.2800     5.6220   125.3405 </r>
       <r>     9.5864     5.6893   127.0836 </r>
       <r>     9.8927     4.7747   128.5465 </r>
       <r>    10.1991     4.4298   129.9037 </r>
       <r>    10.5055     6.5391   131.9071 </r>
       <r>    10.8119     8.2641   134.4391 </r>
       <r>    11.1183     8.2506   136.9669 </r>
       <r>    11.4247     7.9616   139.4062 </r>
       <r>    11.7310     7.8838   141.8216 </r>
       <r>    12.0374     6.6055   143.8454 </r>
       <r>    12.3438     5.8542   145.6390 </r>
       <r>    12.6502     6.6914   147.6892 </r>
       <r>    12.9566     5.7625   149.4547 </r>
       <r>    13.2629     6.1997   151.3542 </r>
       <r>    13.5693     5.2774   152.9710 </r>
       <r>    13.8757     4.1132   154.2313 </r>
       <r>    14.1821     3.2304   155.2210 </r>
       <r>    14.4885     4.5822   156.6249 </r>
       <r>    14.7948     3.4822   157.6918 </r>
       <r>    15.1012     1.3501   158.1054 </r>
       <r>    15.4076     1.6236   158.6029 </r>
       <r>    15.7140     1.2191   158.9764 </r>
       <r>    16.0204     1.6832   159.4921 </r>
       <r>    16.3267     0.3270   159.5923 </r>
       <r>    16.6331     0.6880   159.8031 </r>
       <r>    16.9395     0.5250   159.9639 </r>
       <r>    17.2459     0.1178   160.0000 </r>
       <r>    17.5523    -0.0000   160.0000 </r>
       <r>    17.8587     0.0000   160.0000 </r>
       <r>    18.1650     0.0000   160.0000 </r>
       <r>    18.4714     0.0000   160.0000 </r>
       <r>    18.7778     0.0000   160.0000 </r>
       <r>    19.0842     0.0000   160.0000 </r>
      </set>
     </set>
    </array>
   </total>
  </dos>
 </calculation>
 <structure name="finalpos" >
  <crystal>
   <varray name="basis" >
    <v>       3.22479600      -5.64383000       0.03157200 </v>
    <v>       3.22479600       5.64383000       0.03157200 </v>
    <v>      -2.10194600       0.00000000       6.07553700 </v>
   </varray>
   <i name="volume">    221.90106089 </i>
   <varray name="rec_basis" >
    <v>       0.15452516      -0.08859232       0.05346088 </v>
    <v>       0.15452516       0.08859232       0.05346088 </v>
    <v>      -0.00160600       0.00000000       0.16403888 </v>
   </varray>
  </crystal>
  <varray name="positions" >
   <v>       0.61844300       0.12117100       0.11953300 </v>
   <v>       0.12117100       0.61844300       0.61953300 </v>
   <v>       0.96295700       0.79032200       0.11881300 </v>
   <v>       0.79032200       0.96295700       0.61881300 </v>
   <v>       0.43973200       0.26728100       0.59904700 </v>
   <v>       0.26728100       0.43973200       0.09904700 </v>
   <v>       0.07949800       0.91013660       0.49736300 </v>
   <v>       0.57140300       0.41236400       0.98018400 </v>
   <v>       0.73711100       0.25006200       0.49504900 </v>
   <v>       0.41236400       0.57140300       0.48018400 </v>
   <v>       0.91167500       0.07949800       0.99736300 </v>
   <v>       0.25006200       0.73711100       0.99504900 </v>
  </varray>
 </structure>
</modeling>
