   12   12    1    1
  0.1849176E+02  0.6500240E-09  0.6500240E-09  0.6428867E-09  0.5000000E-15
  1.000000000000000E-004
  CAR 
 CGS                                     
  112   42   80
 
  0.0000000E+00  0.0000000E+00  0.0000000E+00  0.1250000E-01
   1      -68.650364
   2      -68.645623
   3      -68.641200
   4      -68.633005
   5      -68.617495
   6      -68.613603
   7      -68.601185
   8      -68.596088
   9      -68.584404
  10      -68.577151
  11      -68.567685
  12      -68.560187
  13      -12.713826
  14      -11.125603
  15      -10.917643
  16      -10.600418
  17      -10.251570
  18      -10.235497
  19       -5.973918
  20       -4.987840
  21       -2.757539
  22       -2.206196
  23       -2.067687
  24       -1.923679
  25       -1.573759
  26       -0.987293
  27       -0.954883
  28       -0.689170
  29       -0.399821
  30       -0.277694
  31       -0.264777
  32       -0.238646
  33       -0.191899
  34       -0.156408
  35       -0.041600
  36        0.028534
  37        1.347728
  38        1.360147
  39        1.411580
  40        1.454002
  41        1.468817
  42        1.471082
  43        1.517713
  44        1.531103
  45        1.573100
  46        1.710963
  47        1.891722
  48        1.927110
  49        2.058473
  50        2.649194
  51        2.727173
  52        3.092960
  53        3.217014
  54        4.006927
  55        4.039151
  56        4.174326
  57        5.535040
  58        6.347126
  59        7.625518
  60        7.989762
  61        8.612376
  62        8.788034
  63        9.574339
  64        9.735994
  65        9.816997
  66       10.419030
  67       10.579798
  68       10.703536
  69       10.717130
  70       11.285933
  71       11.716826
  72       12.392861
  73       12.450821
  74       12.724258
  75       13.318033
  76       13.386669
  77       13.833506
  78       13.883584
  79       14.148489
  80       14.184262
 
  0.2500000E+00  0.7372575E-17  0.1387779E-16  0.2500000E-01
   1      -68.650340
   2      -68.645577
   3      -68.641174
   4      -68.632965
   5      -68.617384
   6      -68.613498
   7      -68.601190
   8      -68.596113
   9      -68.584336
  10      -68.577098
  11      -68.567651
  12      -68.560152
  13      -12.587931
  14      -11.128310
  15      -10.977324
  16      -10.676137
  17      -10.366553
  18      -10.277673
  19       -5.922530
  20       -4.777935
  21       -2.643456
  22       -2.250072
  23       -2.085997
  24       -1.685258
  25       -1.343563
  26       -1.002752
  27       -0.771129
  28       -0.623183
  29       -0.552814
  30       -0.443586
  31       -0.359930
  32       -0.244508
  33       -0.195724
  34       -0.172945
  35       -0.048078
  36        0.037276
  37        1.276678
  38        1.334071
  39        1.352312
  40        1.388792
  41        1.424473
  42        1.468981
  43        1.496570
  44        1.527691
  45        1.723413
  46        1.856621
  47        2.055918
  48        2.093469
  49        2.231181
  50        2.412192
  51        2.556577
  52        2.824881
  53        2.945450
  54        3.242417
  55        3.662180
  56        4.040980
  57        6.172865
  58        6.892735
  59        8.139033
  60        8.266813
  61        8.589017
  62        9.010459
  63        9.242542
  64        9.526642
  65        9.868544
  66       10.379364
  67       10.638354
  68       10.816792
  69       10.935693
  70       11.195729
  71       11.655626
  72       11.772618
  73       12.118156
  74       12.441020
  75       12.619072
  76       13.006559
  77       13.503618
  78       13.876195
  79       14.219030
  80       14.710987
 
  0.5000000E+00  0.1474515E-16  0.2775558E-16  0.1250000E-01
   1      -68.650172
   2      -68.645462
   3      -68.641094
   4      -68.632887
   5      -68.617368
   6      -68.613446
   7      -68.601122
   8      -68.596028
   9      -68.584282
  10      -68.577087
  11      -68.567534
  12      -68.559983
  13      -12.426845
  14      -11.253766
  15      -10.948643
  16      -10.764474
  17      -10.428323
  18      -10.357904
  19       -5.860454
  20       -4.553561
  21       -2.491264
  22       -2.243496
  23       -1.944839
  24       -1.464187
  25       -1.226963
  26       -1.096618
  27       -0.901948
  28       -0.865373
  29       -0.599087
  30       -0.537431
  31       -0.277048
  32       -0.205230
  33       -0.203600
  34       -0.153701
  35       -0.030737
  36        0.079480
  37        1.252087
  38        1.326469
  39        1.343302
  40        1.394438
  41        1.468626
  42        1.476752
  43        1.497492
  44        1.549298
  45        1.750290
  46        1.790037
  47        1.968060
  48        2.144361
  49        2.320531
  50        2.361403
  51        2.552806
  52        2.667305
  53        2.936861
  54        3.079145
  55        3.249399
  56        3.861034
  57        6.390008
  58        7.079999
  59        7.980007
  60        8.207938
  61        8.525365
  62        8.817886
  63        9.318242
  64        9.884248
  65       10.012482
  66       10.523770
  67       10.692894
  68       10.797375
  69       11.139544
  70       11.408217
  71       11.611442
  72       11.773733
  73       11.943534
  74       12.504248
  75       12.780926
  76       12.998089
  77       13.397769
  78       13.542993
  79       13.934700
  80       14.272800
 
  0.7372575E-17  0.2500000E+00  0.1387779E-16  0.2500000E-01
   1      -68.650319
   2      -68.645599
   3      -68.641160
   4      -68.632980
   5      -68.617381
   6      -68.613502
   7      -68.601214
   8      -68.596087
   9      -68.584350
  10      -68.577083
  11      -68.567650
  12      -68.560154
  13      -12.588063
  14      -11.125577
  15      -10.980267
  16      -10.676371
  17      -10.365315
  18      -10.278275
  19       -5.922407
  20       -4.778222
  21       -2.642474
  22       -2.248614
  23       -2.086226
  24       -1.690990
  25       -1.342486
  26       -1.002490
  27       -0.769292
  28       -0.622875
  29       -0.560069
  30       -0.440175
  31       -0.362856
  32       -0.242187
  33       -0.193065
  34       -0.169759
  35       -0.048806
  36        0.036714
  37        1.276394
  38        1.332272
  39        1.351441
  40        1.390646
  41        1.424721
  42        1.469500
  43        1.494235
  44        1.529155
  45        1.723211
  46        1.857697
  47        2.056519
  48        2.095112
  49        2.231184
  50        2.411907
  51        2.553788
  52        2.825920
  53        2.948606
  54        3.242642
  55        3.662277
  56        4.040667
  57        6.170519
  58        6.891362
  59        8.128436
  60        8.267427
  61        8.595655
  62        9.011901
  63        9.244894
  64        9.531986
  65        9.864149
  66       10.381744
  67       10.636423
  68       10.816688
  69       10.940000
  70       11.191811
  71       11.654906
  72       11.769791
  73       12.114376
  74       12.443586
  75       12.621969
  76       13.007297
  77       13.516280
  78       13.898281
  79       14.268354
  80       14.832110
 
  0.2500000E+00  0.2500000E+00  0.0000000E+00  0.2500000E-01
   1      -68.650341
   2      -68.645600
   3      -68.641062
   4      -68.632864
   5      -68.617516
   6      -68.613634
   7      -68.601092
   8      -68.595988
   9      -68.584467
  10      -68.577215
  11      -68.567668
  12      -68.560170
  13      -12.430975
  14      -11.193622
  15      -10.936336
  16      -10.878469
  17      -10.391191
  18      -10.350317
  19       -5.865468
  20       -4.527220
  21       -2.414279
  22       -2.242485
  23       -1.792942
  24       -1.678991
  25       -1.360228
  26       -1.299179
  27       -1.081381
  28       -0.684653
  29       -0.526009
  30       -0.297826
  31       -0.284585
  32       -0.225691
  33       -0.187092
  34       -0.128338
  35       -0.094566
  36        0.078291
  37        1.290490
  38        1.308839
  39        1.413337
  40        1.423982
  41        1.460767
  42        1.479541
  43        1.492950
  44        1.567478
  45        1.669258
  46        1.879493
  47        1.938956
  48        2.133271
  49        2.280314
  50        2.319434
  51        2.560829
  52        2.648719
  53        2.902731
  54        2.942913
  55        3.697400
  56        3.832160
  57        6.172933
  58        6.975233
  59        8.004982
  60        8.326361
  61        8.432883
  62        8.569187
  63        9.142916
  64        9.249250
  65       10.360916
  66       10.497345
  67       10.923790
  68       11.188008
  69       11.329562
  70       11.560091
  71       11.814883
  72       11.963952
  73       12.312216
  74       12.506528
  75       12.708093
  76       12.915072
  77       13.337186
  78       13.445749
  79       14.259472
  80       14.365614
 
  0.5000000E+00  0.2500000E+00 -0.2775558E-16  0.2500000E-01
   1      -68.650081
   2      -68.645396
   3      -68.641155
   4      -68.632945
   5      -68.617289
   6      -68.613405
   7      -68.601143
   8      -68.596040
   9      -68.584234
  10      -68.577046
  11      -68.567532
  12      -68.560012
  13      -12.431060
  14      -11.357347
  15      -10.930609
  16      -10.738664
  17      -10.389328
  18      -10.271961
  19       -5.937762
  20       -4.647414
  21       -2.389711
  22       -2.225123
  23       -2.055243
  24       -1.638577
  25       -1.360718
  26       -1.279851
  27       -1.023699
  28       -0.512125
  29       -0.484765
  30       -0.331879
  31       -0.284133
  32       -0.221619
  33       -0.155132
  34       -0.136334
  35       -0.012328
  36        0.111583
  37        1.244062
  38        1.312119
  39        1.381244
  40        1.434543
  41        1.459686
  42        1.489172
  43        1.493341
  44        1.546740
  45        1.745180
  46        1.826886
  47        1.920818
  48        2.133243
  49        2.220465
  50        2.384460
  51        2.560824
  52        2.788844
  53        2.979652
  54        3.310973
  55        3.604000
  56        3.747356
  57        6.091362
  58        6.926345
  59        7.611134
  60        8.069596
  61        8.407165
  62        8.608357
  63        8.982472
  64        9.151726
  65       10.086760
  66       10.338634
  67       10.733359
  68       11.111735
  69       11.465498
  70       11.596262
  71       11.801222
  72       12.089201
  73       12.476507
  74       12.911697
  75       13.030544
  76       13.821824
  77       14.211385
  78       14.642774
  79       15.424812
  80       15.636426
 
 -0.2500000E+00  0.2500000E+00  0.0000000E+00  0.2500000E-01
   1      -68.650332
   2      -68.645589
   3      -68.641140
   4      -68.632945
   5      -68.617315
   6      -68.613433
   7      -68.601186
   8      -68.596084
   9      -68.584292
  10      -68.577039
  11      -68.567652
  12      -68.560154
  13      -12.590871
  14      -11.252529
  15      -10.985813
  16      -10.569955
  17      -10.366660
  18      -10.180487
  19       -5.999913
  20       -4.899131
  21       -2.645027
  22       -2.312545
  23       -1.967382
  24       -1.646021
  25       -1.495575
  26       -1.181488
  27       -0.792350
  28       -0.585531
  29       -0.447595
  30       -0.338329
  31       -0.296833
  32       -0.234852
  33       -0.177946
  34       -0.134665
  35       -0.012056
  36        0.070263
  37        1.256098
  38        1.317813
  39        1.362193
  40        1.420390
  41        1.427869
  42        1.473228
  43        1.501339
  44        1.541441
  45        1.723939
  46        1.811230
  47        1.993539
  48        2.071247
  49        2.417757
  50        2.461572
  51        2.528801
  52        2.872206
  53        3.141317
  54        3.228424
  55        3.782987
  56        4.070943
  57        5.981570
  58        6.678522
  59        7.526751
  60        8.226725
  61        8.611745
  62        8.903501
  63        9.308741
  64        9.434420
  65        9.805194
  66       10.276993
  67       10.547424
  68       10.833692
  69       10.973530
  70       11.384062
  71       11.472591
  72       11.731187
  73       12.101092
  74       12.663079
  75       12.943395
  76       13.099403
  77       13.351009
  78       13.519020
  79       14.480177
  80       14.757409
 
  0.1474515E-16  0.5000000E+00  0.2775558E-16  0.1250000E-01
   1      -68.650194
   2      -68.645428
   3      -68.641087
   4      -68.632894
   5      -68.617328
   6      -68.613489
   7      -68.601130
   8      -68.596023
   9      -68.584339
  10      -68.577026
  11      -68.567483
  12      -68.560042
  13      -12.427262
  14      -11.250426
  15      -10.951240
  16      -10.766699
  17      -10.424398
  18      -10.359832
  19       -5.860235
  20       -4.554157
  21       -2.489798
  22       -2.239368
  23       -1.946784
  24       -1.467521
  25       -1.229890
  26       -1.102463
  27       -0.904722
  28       -0.865167
  29       -0.599147
  30       -0.535653
  31       -0.275204
  32       -0.205776
  33       -0.202989
  34       -0.145552
  35       -0.031985
  36        0.079124
  37        1.250722
  38        1.323696
  39        1.346281
  40        1.395919
  41        1.467663
  42        1.475240
  43        1.497339
  44        1.552243
  45        1.749853
  46        1.788226
  47        1.965024
  48        2.146363
  49        2.324041
  50        2.365301
  51        2.554061
  52        2.668356
  53        2.938211
  54        3.082034
  55        3.245011
  56        3.860993
  57        6.387098
  58        7.083186
  59        7.979455
  60        8.186967
  61        8.521582
  62        8.817696
  63        9.327058
  64        9.892460
  65       10.014157
  66       10.519880
  67       10.692530
  68       10.797056
  69       11.142943
  70       11.407263
  71       11.615585
  72       11.773662
  73       11.951821
  74       12.500824
  75       12.827644
  76       13.030638
  77       13.551067
  78       13.682693
  79       14.552801
  80       15.245672
 
  0.2500000E+00  0.5000000E+00 -0.2775558E-16  0.2500000E-01
   1      -68.650111
   2      -68.645382
   3      -68.641121
   4      -68.632930
   5      -68.617262
   6      -68.613453
   7      -68.601144
   8      -68.596061
   9      -68.584266
  10      -68.577008
  11      -68.567490
  12      -68.560054
  13      -12.431265
  14      -11.356302
  15      -10.931364
  16      -10.739344
  17      -10.388638
  18      -10.271997
  19       -5.937684
  20       -4.647665
  21       -2.388271
  22       -2.223478
  23       -2.054520
  24       -1.642867
  25       -1.364524
  26       -1.280614
  27       -1.023438
  28       -0.512397
  29       -0.483120
  30       -0.334733
  31       -0.286808
  32       -0.215483
  33       -0.153080
  34       -0.134882
  35       -0.013600
  36        0.111897
  37        1.242590
  38        1.313859
  39        1.378726
  40        1.434449
  41        1.459005
  42        1.489140
  43        1.494840
  44        1.548890
  45        1.748517
  46        1.824418
  47        1.920785
  48        2.132675
  49        2.221681
  50        2.385459
  51        2.560836
  52        2.791564
  53        2.978084
  54        3.311397
  55        3.601797
  56        3.747142
  57        6.089962
  58        6.924213
  59        7.608994
  60        8.068680
  61        8.406097
  62        8.613602
  63        8.982503
  64        9.151477
  65       10.089686
  66       10.341109
  67       10.733276
  68       11.113062
  69       11.457761
  70       11.579682
  71       11.786623
  72       12.035824
  73       12.520939
  74       12.684442
  75       12.908525
  76       13.214018
  77       14.232452
  78       14.771425
  79       15.254943
  80       15.913101
 
  0.5000000E+00  0.5000000E+00  0.0000000E+00  0.1250000E-01
   1      -68.649950
   2      -68.645188
   3      -68.640960
   4      -68.632747
   5      -68.617157
   6      -68.613337
   7      -68.600947
   8      -68.595856
   9      -68.584174
  10      -68.576917
  11      -68.567320
  12      -68.559822
  13      -12.422625
  14      -11.504722
  15      -10.905690
  16      -10.618597
  17      -10.398452
  18      -10.199540
  19       -6.016687
  20       -4.815161
  21       -2.309375
  22       -2.263507
  23       -2.092375
  24       -1.700226
  25       -1.244163
  26       -1.109687
  27       -0.843604
  28       -0.778660
  29       -0.728709
  30       -0.246652
  31       -0.202600
  32       -0.181920
  33       -0.157405
  34       -0.044207
  35       -0.005076
  36        0.183992
  37        1.262989
  38        1.315619
  39        1.372008
  40        1.410243
  41        1.430326
  42        1.490126
  43        1.506373
  44        1.548142
  45        1.785565
  46        1.846259
  47        1.994083
  48        2.148443
  49        2.251184
  50        2.336944
  51        2.557618
  52        2.762067
  53        2.776030
  54        3.368005
  55        3.762795
  56        4.007306
  57        5.857545
  58        6.759338
  59        7.073023
  60        8.411514
  61        8.558654
  62        8.774500
  63        9.138802
  64        9.235701
  65        9.961493
  66       10.292984
  67       10.729919
  68       10.824112
  69       10.872480
  70       11.280531
  71       11.757602
  72       11.910159
  73       11.973799
  74       12.370071
  75       12.538487
  76       13.465043
  77       14.275995
  78       14.685062
  79       16.746118
  80       16.750234
 
 -0.2168404E-18 -0.2168404E-18  0.2000000E+00  0.2500000E-01
   1      -68.650367
   2      -68.645624
   3      -68.641169
   4      -68.632973
   5      -68.617410
   6      -68.613527
   7      -68.601211
   8      -68.596108
   9      -68.584377
  10      -68.577124
  11      -68.567687
  12      -68.560189
  13      -12.610743
  14      -11.420788
  15      -10.778909
  16      -10.606004
  17      -10.250422
  18      -10.237496
  19       -5.821490
  20       -5.049496
  21       -2.597571
  22       -2.369328
  23       -1.961927
  24       -1.772869
  25       -1.442515
  26       -1.129550
  27       -1.068301
  28       -0.775743
  29       -0.470608
  30       -0.295821
  31       -0.241513
  32       -0.235757
  33       -0.193393
  34       -0.147477
  35       -0.019466
  36        0.021481
  37        1.330762
  38        1.379147
  39        1.413862
  40        1.436897
  41        1.460694
  42        1.464873
  43        1.512339
  44        1.544166
  45        1.631834
  46        1.756423
  47        1.786293
  48        1.949526
  49        2.087848
  50        2.658190
  51        2.717776
  52        3.197198
  53        3.252420
  54        3.520537
  55        3.895433
  56        3.977811
  57        6.042403
  58        6.405318
  59        7.828987
  60        7.906354
  61        8.361515
  62        8.811241
  63        9.774049
  64        9.793012
  65       10.061721
  66       10.587581
  67       10.647298
  68       10.815585
  69       10.862148
  70       11.496272
  71       11.561502
  72       12.028048
  73       12.580247
  74       12.773482
  75       12.913959
  76       13.204344
  77       13.535138
  78       13.821797
  79       14.197531
  80       14.707988
 
  0.2500000E+00  0.1517883E-17  0.2000000E+00  0.2500000E-01
   1      -68.650304
   2      -68.645560
   3      -68.641154
   4      -68.632960
   5      -68.617451
   6      -68.613574
   7      -68.601170
   8      -68.596060
   9      -68.584392
  10      -68.577130
  11      -68.567618
  12      -68.560132
  13      -12.450246
  14      -11.464508
  15      -10.861449
  16      -10.689651
  17      -10.373658
  18      -10.245524
  19       -5.757841
  20       -4.806469
  21       -2.443060
  22       -2.231776
  23       -1.848790
  24       -1.709592
  25       -1.431052
  26       -1.191440
  27       -0.891560
  28       -0.747666
  29       -0.610126
  30       -0.525052
  31       -0.313120
  32       -0.247554
  33       -0.175518
  34       -0.123351
  35       -0.054369
  36        0.059910
  37        1.300306
  38        1.332860
  39        1.366474
  40        1.430559
  41        1.443570
  42        1.477369
  43        1.517785
  44        1.544014
  45        1.640475
  46        1.867768
  47        1.978641
  48        2.046733
  49        2.193544
  50        2.474526
  51        2.595667
  52        2.838648
  53        2.963791
  54        3.132138
  55        3.567335
  56        3.724736
  57        6.443646
  58        6.942009
  59        8.171911
  60        8.244327
  61        8.832777
  62        9.126475
  63        9.464594
  64        9.791455
  65       10.086777
  66       10.305817
  67       10.742672
  68       11.077360
  69       11.295225
  70       11.423621
  71       11.633236
  72       11.724767
  73       12.085325
  74       12.267020
  75       12.538882
  76       12.658924
  77       12.954970
  78       13.059780
  79       13.641138
  80       14.690746
 
  0.5000000E+00  0.9107298E-17  0.2000000E+00  0.2500000E-01
   1      -68.650076
   2      -68.645429
   3      -68.641090
   4      -68.632881
   5      -68.617314
   6      -68.613422
   7      -68.601093
   8      -68.595967
   9      -68.584271
  10      -68.577052
  11      -68.567561
  12      -68.560047
  13      -12.347209
  14      -11.410741
  15      -10.952728
  16      -10.683217
  17      -10.478317
  18      -10.335056
  19       -5.743422
  20       -4.725746
  21       -2.520790
  22       -2.183404
  23       -1.951198
  24       -1.532389
  25       -1.298327
  26       -1.099567
  27       -0.871436
  28       -0.754101
  29       -0.551851
  30       -0.447741
  31       -0.290995
  32       -0.183548
  33       -0.147666
  34       -0.111486
  35       -0.045993
  36        0.023455
  37        1.270739
  38        1.293974
  39        1.348585
  40        1.426692
  41        1.449143
  42        1.478443
  43        1.499069
  44        1.585521
  45        1.717161
  46        1.930687
  47        2.075698
  48        2.144068
  49        2.265996
  50        2.402145
  51        2.566715
  52        2.596966
  53        2.898833
  54        3.008306
  55        3.358119
  56        3.899720
  57        6.369434
  58        6.879001
  59        7.571496
  60        8.088396
  61        8.549308
  62        8.797096
  63        9.269200
  64        9.633159
  65        9.932447
  66       10.277309
  67       10.657976
  68       10.930835
  69       10.971467
  70       11.281819
  71       11.520549
  72       11.788527
  73       12.245134
  74       12.544378
  75       13.097297
  76       13.516600
  77       14.291086
  78       14.565800
  79       15.122338
  80       16.271120
 
 -0.2500000E+00 -0.4098284E-16  0.2000000E+00  0.2500000E-01
   1      -68.650358
   2      -68.645621
   3      -68.641144
   4      -68.632949
   5      -68.617420
   6      -68.613530
   7      -68.601198
   8      -68.596092
   9      -68.584388
  10      -68.577149
  11      -68.567685
  12      -68.560178
  13      -12.534162
  14      -11.330976
  15      -10.875652
  16      -10.604289
  17      -10.398531
  18      -10.283637
  19       -5.815493
  20       -4.978543
  21       -2.662981
  22       -2.451110
  23       -2.038399
  24       -1.572279
  25       -1.170982
  26       -0.982959
  27       -0.799661
  28       -0.655188
  29       -0.515997
  30       -0.389939
  31       -0.274689
  32       -0.257277
  33       -0.194330
  34       -0.145307
  35       -0.048338
  36        0.011778
  37        1.288057
  38        1.306857
  39        1.387594
  40        1.404995
  41        1.431442
  42        1.452054
  43        1.490262
  44        1.564093
  45        1.686673
  46        1.914234
  47        1.985030
  48        2.144036
  49        2.333767
  50        2.564698
  51        2.616899
  52        2.829256
  53        2.971516
  54        3.246011
  55        3.683693
  56        3.946082
  57        6.179916
  58        6.625523
  59        7.763941
  60        7.968937
  61        8.217930
  62        8.554861
  63        9.377104
  64        9.577503
  65        9.908116
  66       10.254121
  67       10.541779
  68       10.789416
  69       10.845970
  70       11.072415
  71       11.565802
  72       12.026247
  73       12.524468
  74       12.755577
  75       12.952982
  76       13.311547
  77       13.415208
  78       13.740220
  79       13.846724
  80       14.728429
 
  0.1517883E-17  0.2500000E+00  0.2000000E+00  0.2500000E-01
   1      -68.650302
   2      -68.645562
   3      -68.641154
   4      -68.632959
   5      -68.617457
   6      -68.613567
   7      -68.601164
   8      -68.596067
   9      -68.584382
  10      -68.577140
  11      -68.567629
  12      -68.560121
  13      -12.450716
  14      -11.462101
  15      -10.864994
  16      -10.688782
  17      -10.373588
  18      -10.244935
  19       -5.756422
  20       -4.807932
  21       -2.441771
  22       -2.229926
  23       -1.850712
  24       -1.715017
  25       -1.431929
  26       -1.189729
  27       -0.890907
  28       -0.747740
  29       -0.606807
  30       -0.530858
  31       -0.311629
  32       -0.243735
  33       -0.173566
  34       -0.124724
  35       -0.054733
  36        0.059425
  37        1.299070
  38        1.334332
  39        1.367119
  40        1.427074
  41        1.444024
  42        1.475970
  43        1.519674
  44        1.543759
  45        1.641710
  46        1.870210
  47        1.979594
  48        2.047526
  49        2.192361
  50        2.474068
  51        2.594283
  52        2.838194
  53        2.964321
  54        3.135546
  55        3.567637
  56        3.723801
  57        6.438602
  58        6.944038
  59        8.168965
  60        8.246451
  61        8.828317
  62        9.125702
  63        9.469780
  64        9.796727
  65       10.088547
  66       10.296738
  67       10.741544
  68       11.076959
  69       11.294522
  70       11.425424
  71       11.633977
  72       11.724891
  73       12.084889
  74       12.266242
  75       12.544436
  76       12.657376
  77       12.953827
  78       13.054876
  79       13.659911
  80       14.696550
 
  0.2500000E+00  0.2500000E+00  0.2000000E+00  0.2500000E-01
   1      -68.650212
   2      -68.645472
   3      -68.641004
   4      -68.632807
   5      -68.617291
   6      -68.613410
   7      -68.601045
   8      -68.595943
   9      -68.584258
  10      -68.577003
  11      -68.567536
  12      -68.560036
  13      -12.317294
  14      -11.473561
  15      -10.864548
  16      -10.853766
  17      -10.407357
  18      -10.286847
  19       -5.739337
  20       -4.695600
  21       -2.239102
  22       -2.135121
  23       -1.926004
  24       -1.849308
  25       -1.455964
  26       -1.397382
  27       -1.038728
  28       -0.521431
  29       -0.465716
  30       -0.353223
  31       -0.250718
  32       -0.218511
  33       -0.161148
  34       -0.113486
  35       -0.091967
  36        0.079875
  37        1.258259
  38        1.344976
  39        1.395227
  40        1.432731
  41        1.450248
  42        1.507193
  43        1.533218
  44        1.541688
  45        1.751739
  46        1.816328
  47        2.038773
  48        2.135208
  49        2.284305
  50        2.311053
  51        2.521276
  52        2.767792
  53        2.897614
  54        3.262913
  55        3.495472
  56        3.799890
  57        6.182113
  58        6.827340
  59        7.823282
  60        8.042195
  61        8.187796
  62        8.728830
  63        9.151797
  64        9.305070
  65       10.223246
  66       10.445209
  67       10.591590
  68       11.008046
  69       11.238350
  70       11.489546
  71       11.812727
  72       12.173574
  73       12.210211
  74       12.574429
  75       12.689469
  76       13.114819
  77       13.414793
  78       13.881241
  79       14.008515
  80       14.524863
 
  0.5000000E+00  0.2500000E+00  0.2000000E+00  0.2500000E-01
   1      -68.650059
   2      -68.645346
   3      -68.641107
   4      -68.632950
   5      -68.617256
   6      -68.613486
   7      -68.601119
   8      -68.596005
   9      -68.584260
  10      -68.577054
  11      -68.567490
  12      -68.560018
  13      -12.364754
  14      -11.471289
  15      -10.934232
  16      -10.653673
  17      -10.419075
  18      -10.305599
  19       -5.792158
  20       -4.840621
  21       -2.525078
  22       -2.241703
  23       -1.871231
  24       -1.638233
  25       -1.507462
  26       -1.302129
  27       -0.901680
  28       -0.538062
  29       -0.379158
  30       -0.349750
  31       -0.226701
  32       -0.181464
  33       -0.166975
  34       -0.079787
  35       -0.026200
  36        0.079370
  37        1.185977
  38        1.361416
  39        1.395774
  40        1.438927
  41        1.460380
  42        1.502582
  43        1.516900
  44        1.584461
  45        1.737494
  46        1.817100
  47        2.034753
  48        2.234596
  49        2.269083
  50        2.362420
  51        2.485838
  52        2.669172
  53        3.054767
  54        3.409622
  55        3.729426
  56        3.864878
  57        5.932514
  58        6.601761
  59        7.348209
  60        7.939676
  61        8.065051
  62        8.725081
  63        8.900662
  64        9.140355
  65        9.843968
  66       10.326312
  67       10.560556
  68       10.928266
  69       11.221557
  70       11.418885
  71       11.751951
  72       12.006257
  73       12.499697
  74       12.836525
  75       13.206967
  76       14.181952
  77       14.711967
  78       15.146284
  79       15.917129
  80       16.568310
 
 -0.2500000E+00  0.2500000E+00  0.2000000E+00  0.2500000E-01
   1      -68.650302
   2      -68.645527
   3      -68.641202
   4      -68.632999
   5      -68.617367