       N       E                     dE             d eps       ncg     rms          ort
SDA:   1     0.755361900645E+02    0.75536E+02   -0.21324E+03  3360   0.533E+03 0.000E+00
DMP:   2    -0.837316538330E+01   -0.83909E+02   -0.14691E+03  3360   0.395E+03-0.737E+02
DMP:   3    -0.151117639400E+02   -0.67386E+01   -0.20409E+03  3360   0.695E+03-0.483E+03
DMP:   4    -0.225845120994E+02   -0.74727E+01   -0.10750E+03  3360   0.391E+03-0.320E+03
DMP:   5    -0.608086274014E+02   -0.38224E+02   -0.15072E+02  3360   0.706E+02-0.863E+02
DMP:   6    -0.659202389028E+02   -0.51116E+01   -0.82067E+01  3360   0.247E+02-0.111E+02
DMP:   7    -0.674651226395E+02   -0.15449E+01   -0.41520E+01  3360   0.148E+02-0.115E+02
DMP:   8    -0.690832324640E+02   -0.16181E+01   -0.77302E+00  3360   0.284E+01-0.239E+01
DMP:   9    -0.693943832039E+02   -0.31115E+00   -0.38767E+00  3360   0.111E+01-0.366E+00
DMP:  10    -0.694984426851E+02   -0.10406E+00   -0.15290E+00  3360   0.550E+00-0.439E+00
DMP:  11    -0.695683077635E+02   -0.69865E-01   -0.36908E-01  3360   0.105E+00-0.341E-01
DMP:  12    -0.695806440073E+02   -0.12336E-01   -0.22935E-01  3360   0.692E-01-0.311E-01
DMP:  13    -0.695903405136E+02   -0.96965E-02   -0.51304E-02  3360   0.162E-01-0.880E-02
DMP:  14    -0.695928025313E+02   -0.24620E-02   -0.37951E-02  3360   0.968E-02-0.507E-03
DMP:  15    -0.695943143651E+02   -0.15118E-02   -0.10418E-02  3360   0.334E-02-0.194E-02
DMP:  16    -0.695948882397E+02   -0.57387E-03   -0.41107E-03  3360   0.919E-03 0.284E-03
DMP:  17    -0.695950621141E+02   -0.17387E-03   -0.20967E-03  3360   0.582E-03-0.152E-03
DMP:  18    -0.695951797722E+02   -0.11766E-03   -0.56449E-04  3360   0.120E-03 0.560E-04
DMP:  19    -0.695952088246E+02   -0.29052E-04   -0.35495E-04  3360   0.888E-04-0.585E-07
DMP:  20    -0.695952287205E+02   -0.19896E-04   -0.11661E-04  3360   0.243E-04 0.127E-04
DMP:  21    -0.695952361701E+02   -0.74496E-05   -0.70696E-05  3360   0.141E-04 0.924E-05
   1 F= -.69595236E+02 E0= -.69595416E+02  d E =0.538009E-03
