 vasp.5.3.3 18Dez12 (build Nov 13 2015 09:58:40) complex                        
  
 executed on             LinuxIFC date 2017.10.18  13:12:29
 running on   48 total cores
 distrk:  each k-point on   16 cores,    3 groups
 distr:  one band on NCORES_PER_BAND=   1 cores,   16 groups


--------------------------------------------------------------------------------------------------------


 INCAR:
 POTCAR:    PAW_PBE Cu_pv 06Sep2000               
 POTCAR:    PAW_PBE Ge 05Jan2001                  
 POTCAR:    PAW_PBE S 17Jan2003                   

 ----------------------------------------------------------------------------- 
|                                                                             |
|           W    W    AA    RRRRR   N    N  II  N    N   GGGG   !!!           |
|           W    W   A  A   R    R  NN   N  II  NN   N  G    G  !!!           |
|           W    W  A    A  R    R  N N  N  II  N N  N  G       !!!           |
|           W WW W  AAAAAA  RRRRR   N  N N  II  N  N N  G  GGG   !            |
|           WW  WW  A    A  R   R   N   NN  II  N   NN  G    G                |
|           W    W  A    A  R    R  N    N  II  N    N   GGGG   !!!           |
|                                                                             |
|      For optimal performance we recommend that you set                      |
|        NPAR = 4 - approx SQRT( number of cores)                             |
|      (number of cores/NPAR must be integer)                                 |
|      This setting will greatly improve the performance of VASP for DFT.     |
|      The default NPAR=number of cores might be grossly inefficient          |
|      on modern multi-core architectures or massively parallel machines.     |
|      Do your own testing.                                                   |
|      Unfortunately you need to use the default for hybrid, GW and RPA       |
|      calculations.                                                          |
|                                                                             |
 ----------------------------------------------------------------------------- 


 ----------------------------------------------------------------------------- 
|                                                                             |
|           W    W    AA    RRRRR   N    N  II  N    N   GGGG   !!!           |
|           W    W   A  A   R    R  NN   N  II  NN   N  G    G  !!!           |
|           W    W  A    A  R    R  N N  N  II  N N  N  G       !!!           |
|           W WW W  AAAAAA  RRRRR   N  N N  II  N  N N  G  GGG   !            |
|           WW  WW  A    A  R   R   N   NN  II  N   NN  G    G                |
|           W    W  A    A  R    R  N    N  II  N    N   GGGG   !!!           |
|                                                                             |
|      You have enabled k-point parallelism (KPAR>1).                         |
|      This developmental code was originally  written by Paul Kent at ORNL,  |
|      and carefully double checked in Vienna.                                |
|      GW as well as linear response parallelism added by Martijn Marsman     |
|      and Georg Kresse.                                                      |
|      Carefully verify results versus KPAR=1.                                |
|      Report problems to Paul Kent and Vienna.                               |
|                                                                             |
 ----------------------------------------------------------------------------- 

 POTCAR:    PAW_PBE Cu_pv 06Sep2000               
   VRHFIN =Cu: d10 p1                                                           
   LEXCH  = PE                                                                  
   EATOM  =  4120.1201 eV,  302.8203 Ry                                         
                                                                                
   TITEL  = PAW_PBE Cu_pv 06Sep2000                                             
   LULTRA =        F    use ultrasoft PP ?                                      
   IUNSCR =        1    unscreen: 0-lin 1-nonlin 2-no                           
   RPACOR =    1.500    partial core radius                                     
   POMASS =   63.546; ZVAL   =   17.000    mass and valenz                      
   RCORE  =    2.000    outmost cutoff radius                                   
   RWIGS  =    2.000; RWIGS  =    1.058    wigner-seitz radius (au A)           
   ENMAX  =  368.648; ENMIN  =  276.486 eV                                      
   RCLOC  =    1.304    cutoff for local pot                                    
   LCOR   =        T    correct aug charges                                     
   LPAW   =        T    paw PP                                                  
   EAUG   =  758.233                                                            
   DEXC   =    0.000                                                            
   RMAX   =    2.046    core radius for proj-oper                               
   RAUG   =    1.300    factor for augmentation sphere                          
   RDEP   =    2.025    radius for radial grids                                 
   RDEPT  =    1.558    core radius for aug-charge                              
                                                                                
   Atomic configuration                                                         
    8 entries                                                                   
     n  l   j            E        occ.                                          
     1  0  0.50     -8850.2467   2.0000                                         
     2  0  0.50     -1062.3498   2.0000                                         
     2  1  1.50      -916.8226   6.0000                                         
     3  0  0.50      -114.6929   2.0000                                         
     3  1  1.50       -72.1325   6.0000                                         
     3  2  2.50        -5.0394  10.0000                                         
     4  0  0.50        -4.6097   1.0000                                         
     4  3  2.50        -1.3606   0.0000                                         
   Description                                                                  
     l       E           TYP  RCUT    TYP  RCUT                                 
     1    -72.1324777     23  1.700                                             
     1     -1.3605826     23  1.700                                             
     2     -5.0393776     23  2.000                                             
     2     -6.3999602     23  2.000                                             
     0     -4.6097062     23  1.800                                             
     0     14.1620818     23  1.800                                             
  local pseudopotential read in
  partial core-charges read in
  partial kinetic energy density read in
  atomic valenz-charges read in
  non local Contribution for L=           1  read in
    real space projection operators read in
  non local Contribution for L=           1  read in
    real space projection operators read in
  non local Contribution for L=           2  read in
    real space projection operators read in
  non local Contribution for L=           2  read in
    real space projection operators read in
  non local Contribution for L=           0  read in
    real space projection operators read in
  non local Contribution for L=           0  read in
    real space projection operators read in
    PAW grid and wavefunctions read in
 
   number of l-projection  operators is LMAX  =           6
   number of lm-projection operators is LMMAX =          18
 
 POTCAR:    PAW_PBE Ge 05Jan2001                  
   VRHFIN =Ge: s2p2                                                             
   LEXCH  = PE                                                                  
   EATOM  =   104.9960 eV,    7.7170 Ry                                         
                                                                                
   TITEL  = PAW_PBE Ge 05Jan2001                                                
   LULTRA =        F    use ultrasoft PP ?                                      
   IUNSCR =        1    unscreen: 0-lin 1-nonlin 2-no                           
   RPACOR =    2.170    partial core radius                                     
   POMASS =   72.610; ZVAL   =    4.000    mass and valenz                      
   RCORE  =    2.300    outmost cutoff radius                                   
   RWIGS  =    2.300; RWIGS  =    1.217    wigner-seitz radius (au A)           
   ENMAX  =  173.807; ENMIN  =  130.355 eV                                      
   ICORE  =        3    local potential                                         
   LCOR   =        T    correct aug charges                                     
   LPAW   =        T    paw PP                                                  
   EAUG   =  385.843                                                            
   DEXC   =    0.000                                                            
   RMAX   =    2.342    core radius for proj-oper                               
   RAUG   =    1.300    factor for augmentation sphere                          
   RDEP   =    2.318    radius for radial grids                                 
   RDEPT  =    2.103    core radius for aug-charge                              
                                                                                
   Atomic configuration                                                         
   10 entries                                                                   
     n  l   j            E        occ.                                          
     1  0  0.50    -10959.8463   2.0000                                         
     2  0  0.50     -1371.6056   2.0000                                         
     2  1  1.50     -1198.4791   6.0000                                         
     3  0  0.50      -168.4733   2.0000                                         
     3  1  1.50      -115.6019   6.0000                                         
     3  2  2.50       -29.3106  10.0000                                         
     4  0  0.50       -11.7309   2.0000                                         
     4  1  0.50        -3.8952   2.0000                                         
     4  2  1.50        -4.0817   0.0000                                         
     4  3  2.50        -4.0817   0.0000                                         
   Description                                                                  
     l       E           TYP  RCUT    TYP  RCUT                                 
     0    -11.7309493     23  2.300                                             
     0     -7.4578696     23  2.300                                             
     1     -3.8952261     23  2.300                                             
     1      6.1178114     23  2.300                                             
     2     -4.0817478     23  2.300                                             
     3     -1.3605826      7  2.300                                             
  local pseudopotential read in
  partial core-charges read in
  partial kinetic energy density read in
  atomic valenz-charges read in
  non local Contribution for L=           0  read in
    real space projection operators read in
  non local Contribution for L=           0  read in
    real space projection operators read in
  non local Contribution for L=           1  read in
    real space projection operators read in
  non local Contribution for L=           1  read in
    real space projection operators read in
  non local Contribution for L=           2  read in
    real space projection operators read in
    PAW grid and wavefunctions read in
 
   number of l-projection  operators is LMAX  =           5
   number of lm-projection operators is LMMAX =          13
 
 POTCAR:    PAW_PBE S 17Jan2003                   
   VRHFIN =S : s2p4                                                             
   LEXCH  = PE                                                                  
   EATOM  =   276.8230 eV,   20.3459 Ry                                         
                                                                                
   TITEL  = PAW_PBE S 17Jan2003                                                 
   LULTRA =        F    use ultrasoft PP ?                                      
   IUNSCR =        1    unscreen: 0-lin 1-nonlin 2-no                           
   RPACOR =    1.500    partial core radius                                     
   POMASS =   32.066; ZVAL   =    6.000    mass and valenz                      
   RCORE  =    1.900    outmost cutoff radius                                   
   RWIGS  =    2.200; RWIGS  =    1.164    wigner-seitz radius (au A)           
   ENMAX  =  280.000; ENMIN  =  194.016 eV                                      
   ICORE  =        2    local potential                                         
   LCOR   =        T    correct aug charges                                     
   LPAW   =        T    paw PP                                                  
   EAUG   =  335.092                                                            
   DEXC   =     .000                                                            
   RMAX   =    2.867    core radius for proj-oper                               
   RAUG   =    1.300    factor for augmentation sphere                          
   RDEP   =    1.954    radius for radial grids                                 
   QCUT   =   -4.360; QGAM   =    8.721    optimization parameters              
                                                                                
   Description                                                                  
     l     E      TYP  RCUT    TYP  RCUT                                        
     0   .000     23  1.900                                                     
     0   .000     23  1.900                                                     
     1   .000     23  1.900                                                     
     1   .000     23  1.900                                                     
     2   .000     23  1.900                                                     
  local pseudopotential read in
  partial core-charges read in
  atomic valenz-charges read in
  non local Contribution for L=           0  read in
    real space projection operators read in
  non local Contribution for L=           0  read in
    real space projection operators read in
  non local Contribution for L=           1  read in
    real space projection operators read in
  non local Contribution for L=           1  read in
    real space projection operators read in
    PAW grid and wavefunctions read in
 
   number of l-projection  operators is LMAX  =           4
   number of lm-projection operators is LMMAX =           8
 
  PAW_PBE Cu_pv 06Sep2000               :
 energy of atom  1       EATOM=-4120.1201
 kinetic energy error for atom=    0.0996 (will be added to EATOM!!)
  PAW_PBE Ge 05Jan2001                  :
 energy of atom  2       EATOM= -104.9960
 kinetic energy error for atom=    0.0003 (will be added to EATOM!!)
  PAW_PBE S 17Jan2003                   :
 energy of atom  3       EATOM= -276.8230
 kinetic energy error for atom=    0.0046 (will be added to EATOM!!)
 
 
 POSCAR: Cu Ge S                                 
  positions in direct lattice
  No initial velocities read in
 exchange correlation table for  LEXCH =        8
   RHO(1)=    0.500       N(1)  =     2000
   RHO(2)=  100.500       N(2)  =     4000
 


--------------------------------------------------------------------------------------------------------


 ion  position               nearest neighbor table
   1  0.618  0.121  0.120-   9 2.29  11 2.29  12 2.30   8 2.34
   2  0.121  0.618  0.620-  12 2.29   7 2.29   9 2.30  10 2.35
   3  0.963  0.790  0.119-  11 2.30  12 2.30   7 2.31   8 2.35
   4  0.790  0.963  0.619-   7 2.30   9 2.30  11 2.31  10 2.36
   5  0.440  0.267  0.599-   7 2.19   9 2.19  10 2.31   8 2.33
   6  0.267  0.440  0.099-  11 2.19  12 2.19   8 2.31  10 2.33
   7  0.079  0.912  0.497-   5 2.19   2 2.29   4 2.30   3 2.31
   8  0.573  0.412  0.980-   6 2.31   5 2.33   1 2.34   3 2.35
   9  0.737  0.250  0.495-   5 2.19   1 2.29   4 2.30   2 2.30
  10  0.412  0.571  0.480-   5 2.31   6 2.33   2 2.35   4 2.36
  11  0.912  0.079  0.997-   6 2.19   1 2.29   3 2.30   4 2.31
  12  0.250  0.737  0.995-   6 2.19   2 2.29   3 2.30   1 2.30
 
  Warning from LATTYP: Got some problem with cell dimensions!
  Tried to take original basis but could not verify dimensions!
  LATTYP: Found a base centered monoclinic cell.
 ALAT       =     6.4499010947
 B/A-ratio  =     1.7500516418
 C/A-ratio  =     1.9305142024
 COS(beta)  =    -0.4326083233
  
  Lattice vectors:
  
 A1 = (   3.2247960000,   5.6438300000,   0.0315720000)
 A2 = (   3.2247960000,  -5.6438300000,   0.0315720000)
 A3 = ( -10.7972380000,   0.0000000000,  -6.2018250000)


Analysis of symmetry for initial positions (statically):
=====================================================================
 Subroutine PRICEL returns:
 Original cell was already a primitive cell.
 

 Routine SETGRP: Setting up the symmetry group for a 
 base centered monoclinic supercell.


 Subroutine GETGRP returns: Found  1 space group operations
 (whereof  1 operations were pure point group operations)
 out of a pool of  4 trial point group operations.


The static configuration has the point symmetry C_1 .


Analysis of symmetry for dynamics (positions and initial velocities):
=====================================================================
 Subroutine PRICEL returns:
 Original cell was already a primitive cell.
 

 Routine SETGRP: Setting up the symmetry group for a 
 base centered monoclinic supercell.


 Subroutine GETGRP returns: Found  1 space group operations
 (whereof  1 operations were pure point group operations)
 out of a pool of  4 trial point group operations.


The dynamic configuration has the point symmetry C_1 .


 irot  :   1
 --------------------------------------------------------------------
 isymop:   1   0   0
           0   1   0
           0   0   1

 gtrans:     0.0000000     0.0000000     0.0000000

 ptrans:     0.0000000     0.0000000     0.0000000
 rotmap:
 (   1->   1)  (   2->   2)  (   3->   3)  (   4->   4)  (   5->   5) 
 (   6->   6)  (   7->   7)  (   8->   8)  (   9->   9)  (  10->  10) 
 (  11->  11)  (  12->  12) 
 
 
 KPOINTS: pymatgen 4.7.6+ generated KPOINTS with g

Automatic generation of k-mesh.
Space group operators:
 irot       det(A)        alpha          n_x          n_y          n_z        tau_x        tau_y        tau_z
    1     1.000000     0.000000     1.000000     0.000000     0.000000     0.000000     0.000000     0.000000
 
 Subroutine IBZKPT returns following result:
 ===========================================
 
 Found     42 irreducible k-points:
 
 Following reciprocal coordinates:
            Coordinates               Weight
  0.000000  0.000000  0.000000      1.000000
  0.250000  0.000000  0.000000      2.000000
  0.500000  0.000000  0.000000      1.000000
  0.000000  0.250000  0.000000      2.000000
  0.250000  0.250000  0.000000      2.000000
  0.500000  0.250000 -0.000000      2.000000
 -0.250000  0.250000  0.000000      2.000000
  0.000000  0.500000  0.000000      1.000000
  0.250000  0.500000 -0.000000      2.000000
  0.500000  0.500000  0.000000      1.000000
 -0.000000 -0.000000  0.200000      2.000000
  0.250000  0.000000  0.200000      2.000000
  0.500000  0.000000  0.200000      2.000000
 -0.250000 -0.000000  0.200000      2.000000
  0.000000  0.250000  0.200000      2.000000
  0.250000  0.250000  0.200000      2.000000
  0.500000  0.250000  0.200000      2.000000
 -0.250000  0.250000  0.200000      2.000000
  0.000000  0.500000  0.200000      2.000000
  0.250000  0.500000  0.200000      2.000000
  0.500000  0.500000  0.200000      2.000000
 -0.250000  0.500000  0.200000      2.000000
 -0.000000 -0.250000  0.200000      2.000000
  0.250000 -0.250000  0.200000      2.000000
  0.500000 -0.250000  0.200000      2.000000
 -0.250000 -0.250000  0.200000      2.000000
 -0.000000 -0.000000  0.400000      2.000000
  0.250000  0.000000  0.400000      2.000000
  0.500000  0.000000  0.400000      2.000000
 -0.250000  0.000000  0.400000      2.000000
  0.000000  0.250000  0.400000      2.000000
  0.250000  0.250000  0.400000      2.000000
  0.500000  0.250000  0.400000      2.000000
 -0.250000  0.250000  0.400000      2.000000
  0.000000  0.500000  0.400000      2.000000
  0.250000  0.500000  0.400000      2.000000
  0.500000  0.500000  0.400000      2.000000
 -0.250000  0.500000  0.400000      2.000000
  0.000000 -0.250000  0.400000      2.000000
  0.250000 -0.250000  0.400000      2.000000
  0.500000 -0.250000  0.400000      2.000000
 -0.250000 -0.250000  0.400000      2.000000
 
 Following cartesian coordinates:
            Coordinates               Weight
  0.000000  0.000000  0.000000      1.000000
  0.038631 -0.022148  0.013365      2.000000
  0.077263 -0.044296  0.026730      1.000000
  0.038631  0.022148  0.013365      2.000000
  0.077263  0.000000  0.026730      2.000000
  0.115894 -0.022148  0.040096      2.000000
  0.000000  0.044296  0.000000      2.000000
  0.077263  0.044296  0.026730      1.000000
  0.115894  0.022148  0.040096      2.000000
  0.154525  0.000000  0.053461      1.000000
 -0.000321  0.000000  0.032808      2.000000
  0.038310 -0.022148  0.046173      2.000000
  0.076941 -0.044296  0.059538      2.000000
 -0.038952  0.022148  0.019443      2.000000
  0.038310  0.022148  0.046173      2.000000
  0.076941  0.000000  0.059538      2.000000
  0.115573 -0.022148  0.072903      2.000000
 -0.000321  0.044296  0.032808      2.000000
  0.076941  0.044296  0.059538      2.000000
  0.115573  0.022148  0.072903      2.000000
  0.154204  0.000000  0.086269      2.000000
  0.038310  0.066444  0.046173      2.000000
 -0.038952 -0.022148  0.019443      2.000000
 -0.000321 -0.044296  0.032808      2.000000
  0.038310 -0.066444  0.046173      2.000000
 -0.077584  0.000000  0.006077      2.000000
 -0.000642  0.000000  0.065616      2.000000
  0.037989 -0.022148  0.078981      2.000000
  0.076620 -0.044296  0.092346      2.000000
 -0.039274  0.022148  0.052250      2.000000
  0.037989  0.022148  0.078981      2.000000
  0.076620  0.000000  0.092346      2.000000
  0.115251 -0.022148  0.105711      2.000000
 -0.000642  0.044296  0.065616      2.000000
  0.076620  0.044296  0.092346      2.000000
  0.115251  0.022148  0.105711      2.000000
  0.153883  0.000000  0.119076      2.000000
  0.037989  0.066444  0.078981      2.000000
 -0.039274 -0.022148  0.052250      2.000000
 -0.000642 -0.044296  0.065616      2.000000
  0.037989 -0.066444  0.078981      2.000000
 -0.077905  0.000000  0.038885      2.000000
 
 
 Subroutine IBZKPT_HF returns following result:
 ==============================================
 
 Found     80 k-points in 1st BZ
 the following     80 k-points will be used (e.g. in the exchange kernel)
 Following reciprocal coordinates:   # in IRBZ
  0.000000  0.000000  0.000000       1 t-inv F
  0.250000  0.000000  0.000000       2 t-inv F
  0.500000  0.000000  0.000000       3 t-inv F
  0.000000  0.250000  0.000000       4 t-inv F
  0.250000  0.250000  0.000000       5 t-inv F
  0.500000  0.250000 -0.000000       6 t-inv F
 -0.250000  0.250000  0.000000       7 t-inv F
  0.000000  0.500000  0.000000       8 t-inv F
  0.250000  0.500000 -0.000000       9 t-inv F
  0.500000  0.500000  0.000000      10 t-inv F
 -0.000000 -0.000000  0.200000      11 t-inv F
  0.250000  0.000000  0.200000      12 t-inv F
  0.500000  0.000000  0.200000      13 t-inv F
 -0.250000 -0.000000  0.200000      14 t-inv F
  0.000000  0.250000  0.200000      15 t-inv F
  0.250000  0.250000  0.200000      16 t-inv F
  0.500000  0.250000  0.200000      17 t-inv F
 -0.250000  0.250000  0.200000      18 t-inv F
  0.000000  0.500000  0.200000      19 t-inv F
  0.250000  0.500000  0.200000      20 t-inv F
  0.500000  0.500000  0.200000      21 t-inv F
 -0.250000  0.500000  0.200000      22 t-inv F
 -0.000000 -0.250000  0.200000      23 t-inv F
  0.250000 -0.250000  0.200000      24 t-inv F
  0.500000 -0.250000  0.200000      25 t-inv F
 -0.250000 -0.250000  0.200000      26 t-inv F
 -0.000000 -0.000000  0.400000      27 t-inv F
  0.250000  0.000000  0.400000      28 t-inv F
  0.500000  0.000000  0.400000      29 t-inv F
 -0.250000  0.000000  0.400000      30 t-inv F
  0.000000  0.250000  0.400000      31 t-inv F
  0.250000  0.250000  0.400000      32 t-inv F
  0.500000  0.250000  0.400000      33 t-inv F
 -0.250000  0.250000  0.400000      34 t-inv F
  0.000000  0.500000  0.400000      35 t-inv F
  0.250000  0.500000  0.400000      36 t-inv F
  0.500000  0.500000  0.400000      37 t-inv F
 -0.250000  0.500000  0.400000      38 t-inv F
  0.000000 -0.250000  0.400000      39 t-inv F
  0.250000 -0.250000  0.400000      40 t-inv F
  0.500000 -0.250000  0.400000      41 t-inv F
 -0.250000 -0.250000  0.400000      42 t-inv F
 -0.250000 -0.000000 -0.000000       2 t-inv T
 -0.000000 -0.250000 -0.000000       4 t-inv T
 -0.250000 -0.250000  0.000000       5 t-inv T
 -0.500000 -0.250000  0.000000       6 t-inv T
  0.250000 -0.250000  0.000000       7 t-inv T
 -0.250000 -0.500000  0.000000       9 t-inv T
  0.000000  0.000000 -0.200000      11 t-inv T
 -0.250000 -0.000000 -0.200000      12 t-inv T
 -0.500000 -0.000000 -0.200000      13 t-inv T
  0.250000  0.000000 -0.200000      14 t-inv T
 -0.000000 -0.250000 -0.200000      15 t-inv T
 -0.250000 -0.250000 -0.200000      16 t-inv T
 -0.500000 -0.250000 -0.200000      17 t-inv T
  0.250000 -0.250000 -0.200000      18 t-inv T
 -0.000000 -0.500000 -0.200000      19 t-inv T
 -0.250000 -0.500000 -0.200000      20 t-inv T
 -0.500000 -0.500000 -0.200000      21 t-inv T
  0.250000 -0.500000 -0.200000      22 t-inv T
  0.000000  0.250000 -0.200000      23 t-inv T
 -0.250000  0.250000 -0.200000      24 t-inv T
 -0.500000  0.250000 -0.200000      25 t-inv T
  0.250000  0.250000 -0.200000      26 t-inv T
  0.000000  0.000000 -0.400000      27 t-inv T
 -0.250000 -0.000000 -0.400000      28 t-inv T
 -0.500000 -0.000000 -0.400000      29 t-inv T
  0.250000 -0.000000 -0.400000      30 t-inv T
 -0.000000 -0.250000 -0.400000      31 t-inv T
 -0.250000 -0.250000 -0.400000      32 t-inv T
 -0.500000 -0.250000 -0.400000      33 t-inv T
  0.250000 -0.250000 -0.400000      34 t-inv T
 -0.000000 -0.500000 -0.400000      35 t-inv T
 -0.250000 -0.500000 -0.400000      36 t-inv T
 -0.500000 -0.500000 -0.400000      37 t-inv T
  0.250000 -0.500000 -0.400000      38 t-inv T
 -0.000000  0.250000 -0.400000      39 t-inv T
 -0.250000  0.250000 -0.400000      40 t-inv T
 -0.500000  0.250000 -0.400000      41 t-inv T
  0.250000  0.250000 -0.400000      42 t-inv T


--------------------------------------------------------------------------------------------------------




 Dimension of arrays:
   k-points           NKPTS =     42   k-points in BZ     NKDIM =     80   number of bands    NBANDS=     80
   number of dos      NEDOS =    301   number of ions     NIONS =     12
   non local maximal  LDIM  =      6   non local SUM 2l+1 LMDIM =     18
   total plane-waves  NPLWV =  32768
   max r-space proj   IRMAX =      1   max aug-charges    IRDMAX=   8224
   dimension x,y,z NGX =    32 NGY =   32 NGZ =   32
   dimension x,y,z NGXF=    64 NGYF=   64 NGZF=   64
   support grid    NGXF=    64 NGYF=   64 NGZF=   64
   ions per type =               4   2   6
 NGX,Y,Z   is equivalent  to a cutoff of   8.18,  8.18,  8.27 a.u.
 NGXF,Y,Z  is equivalent  to a cutoff of  16.37, 16.37, 16.55 a.u.


 I would recommend the setting:
   dimension x,y,z NGX =    32 NGY =   32 NGZ =   31
 SYSTEM =  CGS                                     
 POSCAR =  Cu Ge S                                 

 Startparameter for this run:
   NWRITE =      2    write-flag & timer
   PREC   = normal    normal or accurate (medium, high low for compatibility)
   ISTART =      1    job   : 0-new  1-cont  2-samecut
   ICHARG =      0    charge: 1-file 2-atom 10-const
   ISPIN  =      1    spin polarized calculation?
   LNONCOLLINEAR =      F non collinear calculations
   LSORBIT =      F    spin-orbit coupling
   INIWAV =      1    electr: 0-lowe 1-rand  2-diag
   LASPH  =      F    aspherical Exc in radial PAW
   METAGGA=      F    non-selfconsistent MetaGGA calc.

 Electronic Relaxation 1
   ENCUT  =  400.0 eV  29.40 Ry    5.42 a.u.  10.60 10.60 10.48*2*pi/ulx,y,z
   ENINI  =  400.0     initial cutoff
   ENAUG  =  758.2 eV  augmentation charge cutoff
   NELM   =     60;   NELMIN=  2; NELMDL=  0     # of ELM steps 
   EDIFF  = 0.1E-04   stopping-criterion for ELM
   LREAL  =      F    real-space projection
   NLSPLINE    = F    spline interpolate recip. space projectors
   LCOMPAT=      F    compatible to vasp.4.4
   GGA_COMPAT  = T    GGA compatible to vasp.4.4-vasp.4.6
   LMAXPAW     = -100 max onsite density
   LMAXMIX     =    2 max onsite mixed and CHGCAR
   VOSKOWN=      0    Vosko Wilk Nusair interpolation
   ROPT   =    0.00000   0.00000   0.00000
 Ionic relaxation
   EDIFFG = 0.1E-03   stopping-criterion for IOM
   NSW    =      0    number of steps for IOM
   NBLOCK =      1;   KBLOCK =      1    inner block; outer block 
   IBRION =     -1    ionic relax: 0-MD 1-quasi-New 2-CG
   NFREE  =      0    steps in history (QN), initial steepest desc. (CG)
   ISIF   =      0    stress and relaxation
   IWAVPR =     10    prediction:  0-non 1-charg 2-wave 3-comb
   ISYM   =      3    0-nonsym 1-usesym 2-fastsym
   LCORR  =      T    Harris-Foulkes like correction to forces

   POTIM  = 0.5000    time-step for ionic-motion
   TEIN   =    0.0    initial temperature
   TEBEG  =    0.0;   TEEND  =   0.0 temperature during run
   SMASS  =  -3.00    Nose mass-parameter (am)
   estimated Nose-frequenzy (Omega)   =  0.10E-29 period in steps =****** mass=  -0.966E-27a.u.
   SCALEE = 1.0000    scale energy and forces
   NPACO  =    256;   APACO  = 16.0  distance and # of slots for P.C.
   PSTRESS=    0.0 pullay stress

  Mass of Ions in am
   POMASS =  63.55 72.61 32.07
  Ionic Valenz
   ZVAL   =  17.00  4.00  6.00
  Atomic Wigner-Seitz radii
   RWIGS  =  -1.00 -1.00 -1.00
  virtual crystal weights 
   VCA    =   1.00  1.00  1.00
   NELECT =     112.0000    total number of electrons
   NUPDOWN=      -1.0000    fix difference up-down

 DOS related values:
   EMIN   =  10.00;   EMAX   =-10.00  energy-range for DOS
   EFERMI =   0.00
   ISMEAR =     1;   SIGMA  =   0.10  broadening in eV -4-tet -1-fermi 0-gaus

 Electronic relaxation 2 (details)
   IALGO  =     53    algorithm
   LDIAG  =      T    sub-space diagonalisation (order eigenvalues)
   LSUBROT=      T    optimize rotation matrix (better conditioning)
   TURBO    =      0    0=normal 1=particle mesh
   IRESTART =      0    0=no restart 2=restart with 2 vectors
   NREBOOT  =      0    no. of reboots
   NMIN     =      0    reboot dimension
   EREF     =   0.00    reference energy to select bands
   IMIX   =      4    mixing-type and parameters
     AMIX     =   0.40;   BMIX     =  1.00
     AMIX_MAG =   1.60;   BMIX_MAG =  1.00
     AMIN     =   0.10
     WC   =   100.;   INIMIX=   1;  MIXPRE=   1;  MAXMIX= -45

 Intra band minimization:
   WEIMIN = 0.0000     energy-eigenvalue tresh-hold
   EBREAK =  0.31E-07  absolut break condition
   DEPER  =   0.30     relativ break condition  

   TIME   =   0.40     timestep for ELM

  volume/ion in A,a.u.               =      18.49       124.79
  Fermi-wavevector in a.u.,A,eV,Ry     =   1.303450  2.463163 23.116052  1.698982
  Thomas-Fermi vector in A             =   2.434451
 
 Write flags
   LWAVE  =      T    write WAVECAR
   LCHARG =      T    write CHGCAR
   LVTOT  =      F    write LOCPOT, total local potential
   LVHAR  =      F    write LOCPOT, Hartree potential only
   LELF   =      F    write electronic localiz. function (ELF)
   LORBIT =      0    0 simple, 1 ext, 2 COOP (PROOUT)


 Dipole corrections
   LMONO  =      F    monopole corrections only (constant potential shift)
   LDIPOL =      F    correct potential (dipole corrections)
   IDIPOL =      0    1-x, 2-y, 3-z, 4-all directions 
   EPSILON=  1.0000000 bulk dielectric constant

 Exchange correlation treatment:
   GGA     =    PE    GGA type
   LEXCH   =     8    internal setting for exchange type
   VOSKOWN=      0    Vosko Wilk Nusair interpolation
   EXXOEP  =     0    0=HF, 1=EXX-LHF (local Hartree Fock) 2=EXX OEP
   LHFCALC =     T    Hartree Fock is set to
   LSYMGRAD=     F    symmetrize gradient (conserves proper symmetry)
   PRECFOCK=fast      Normal, Fast or Accurate (Low or Medium for compatibility)
   LRHFCALC=     F    long range Hartree Fock
   LRSCOR  =     F    long range correlation only (use DFT for short range part)
   LTHOMAS =     F    Thomas Fermi screening in HF
   LMODELHF=     F    short range full HF, long range fraction AEXX
   ENCUT4O =  -1.0   cutoff for four orbital integrals eV
   LMAXFOCK=     4    L truncation for augmentation on plane wave grid
   LMAXFOCKAE=  -1    L truncation for all-electron charge restoration on plane wave grid
   NMAXFOCKAE=   1    number of basis functions for all-electron charge restoration
   LFOCKAEDFT=     F  apply the AE augmentation even for DFT
   NKREDX  =     1    reduce k-point grid by
   NKREDY  =     1    reduce k-point grid by
   NKREDZ  =     1    reduce k-point grid by
   SHIFTRED=     F    shift reduced grid of Gamma
   HFKIDENT=     F    idential grid for each k-point
   ODDONLY =     F    use only odd q-grid points
   EVENONLY=     F    use only even q-grid points
   HFALPHA =   -1.0000 decay constant for conv. correction
   MCALPHA =    0.0000 extent of test-charge in conv. correction in multipole expansion
   AEXX    =    0.2500 exact exchange contribution
   HFSCREEN=    0.2000 screening length (either q_TF or 0.3 A-1)
   HFSCREENC=   0.2000 screening length for correlation (either q_TF or 0.3 A-1)
   HFRCUT  =    0.0000 spherical cutoff for potential kernel
   ALDAX   =    0.7500 LDA exchange part
   AGGAX   =    0.7500 GGA exchange part
   ALDAC   =    1.0000 LDA correlation
   AGGAC   =    1.0000 GGA correlation
   NBANDSGWLOW=     1    first orbital included in HF term
 Linear response parameters
   LEPSILON=     F    determine dielectric tensor
   LRPA    =     F    only Hartree local field effects (RPA)
   LNABLA  =     F    use nabla operator in PAW spheres
   LVEL    =     F    velocity operator in full k-point grid
   LINTERFAST=   F  fast interpolation
   KINTER  =     0    interpolate to denser k-point grid
   CSHIFT  =0.1000    complex shift for real part using Kramers Kronig
   OMEGAMAX=  -1.0    maximum frequency
   DEG_THRESHOLD= 0.2000000E-02 threshold for treating states as degnerate
   RTIME   =    0.100 relaxation time in fs

 Orbital magnetization related:
   ORBITALMAG=     F  switch on orbital magnetization
   LCHIMAG   =     F  perturbation theory with respect to B field
   DQ        =  0.001000  dq finite difference perturbation B field



--------------------------------------------------------------------------------------------------------


 Static calculation
 charge density and potential will be updated during run
 non-spin polarized calculation
 Conjugate gradient for all bands, subspace preconditioning
 perform sub-space diagonalisation
    before iterative eigenvector-optimisation
 modified Broyden-mixing scheme, WC =      100.0
 initial mixing is a Kerker type mixing with AMIX =  0.4000 and BMIX =      1.0000
 Hartree-type preconditioning will be used
 using additional bands           24
 reciprocal scheme for non local part
 use partial core corrections
 no Harris-corrections to forces 
 use gradient corrections 
 use of overlap-Matrix (Vanderbilt PP)
 Methfessel and Paxton  Order N= 1 SIGMA  =   0.10


--------------------------------------------------------------------------------------------------------


  energy-cutoff  :      400.00
  volume of cell :      221.90
      direct lattice vectors                 reciprocal lattice vectors
     3.224796000 -5.643830000  0.031572000     0.154525165 -0.088592321  0.053460880
     3.224796000  5.643830000  0.031572000     0.154525165  0.088592321  0.053460880
    -2.101946000  0.000000000  6.075537000    -0.001606004  0.000000000  0.164038877

  length of vectors
     6.500240234  6.500240234  6.428866683     0.185969598  0.185969598  0.164046738


 
 old parameters found on file WAVECAR:
  energy-cutoff  :      400.00
  volume of cell :      222.35
      direct lattice vectors                 reciprocal lattice vectors
     3.227235519 -5.642745207  0.030241751     0.154430495 -0.088609353  0.053450002
     3.227235519  5.642745207  0.030241751     0.154430495  0.088609353  0.053450002
    -2.106135241  0.000000000  6.085154262    -0.001534965  0.000000000  0.163803104

  length of vectors

 
 k-points in units of 2pi/SCALE and weight: pymatgen 4.7.6+ generated KPOINTS with g
   0.00000000  0.00000000  0.00000000       0.013
   0.03863129 -0.02214808  0.01336522       0.025
   0.07726258 -0.04429616  0.02673044       0.013
   0.03863129  0.02214808  0.01336522       0.025
   0.07726258  0.00000000  0.02673044       0.025
   0.11589387 -0.02214808  0.04009566       0.025
   0.00000000  0.04429616  0.00000000       0.025
   0.07726258  0.04429616  0.02673044       0.013
   0.11589387  0.02214808  0.04009566       0.025
   0.15452516  0.00000000  0.05346088       0.013
  -0.00032120  0.00000000  0.03280778       0.025
   0.03831009 -0.02214808  0.04617300       0.025
   0.07694138 -0.04429616  0.05953822       0.025
  -0.03895249  0.02214808  0.01944256       0.025
   0.03831009  0.02214808  0.04617300       0.025
   0.07694138  0.00000000  0.05953822       0.025
   0.11557267 -0.02214808  0.07290344       0.025
  -0.00032120  0.04429616  0.03280778       0.025
   0.07694138  0.04429616  0.05953822       0.025
   0.11557267  0.02214808  0.07290344       0.025
   0.15420396  0.00000000  0.08626865       0.025
   0.03831009  0.06644424  0.04617300       0.025
  -0.03895249 -0.02214808  0.01944256       0.025
  -0.00032120 -0.04429616  0.03280778       0.025
   0.03831009 -0.06644424  0.04617300       0.025
  -0.07758378  0.00000000  0.00607734       0.025
  -0.00064240  0.00000000  0.06561555       0.025
   0.03798889 -0.02214808  0.07898077       0.025
   0.07662018 -0.04429616  0.09234599       0.025
  -0.03927369  0.02214808  0.05225033       0.025
   0.03798889  0.02214808  0.07898077       0.025
   0.07662018  0.00000000  0.09234599       0.025
   0.11525147 -0.02214808  0.10571121       0.025
  -0.00064240  0.04429616  0.06561555       0.025
   0.07662018  0.04429616  0.09234599       0.025
   0.11525147  0.02214808  0.10571121       0.025
   0.15388276  0.00000000  0.11907643       0.025
   0.03798889  0.06644424  0.07898077       0.025
  -0.03927369 -0.02214808  0.05225033       0.025
  -0.00064240 -0.04429616  0.06561555       0.025
   0.03798889 -0.06644424  0.07898077       0.025
  -0.07790498  0.00000000  0.03888511       0.025
 
 k-points in reciprocal lattice and weights: pymatgen 4.7.6+ generated KPOINTS with g
   0.00000000  0.00000000  0.00000000       0.013
   0.25000000  0.00000000  0.00000000       0.025
   0.50000000  0.00000000  0.00000000       0.013
   0.00000000  0.25000000  0.00000000       0.025
   0.25000000  0.25000000  0.00000000       0.025
   0.50000000  0.25000000 -0.00000000       0.025
  -0.25000000  0.25000000  0.00000000       0.025
   0.00000000  0.50000000  0.00000000       0.013
   0.25000000  0.50000000 -0.00000000       0.025
   0.50000000  0.50000000  0.00000000       0.013
  -0.00000000 -0.00000000  0.20000000       0.025
   0.25000000  0.00000000  0.20000000       0.025
   0.50000000  0.00000000  0.20000000       0.025
  -0.25000000 -0.00000000  0.20000000       0.025
   0.00000000  0.25000000  0.20000000       0.025
   0.25000000  0.25000000  0.20000000       0.025
   0.50000000  0.25000000  0.20000000       0.025
  -0.25000000  0.25000000  0.20000000       0.025
   0.00000000  0.50000000  0.20000000       0.025
   0.25000000  0.50000000  0.20000000       0.025
   0.50000000  0.50000000  0.20000000       0.025
  -0.25000000  0.50000000  0.20000000       0.025
  -0.00000000 -0.25000000  0.20000000       0.025
   0.25000000 -0.25000000  0.20000000       0.025
   0.50000000 -0.25000000  0.20000000       0.025
  -0.25000000 -0.25000000  0.20000000       0.025
  -0.00000000 -0.00000000  0.40000000       0.025
   0.25000000  0.00000000  0.40000000       0.025
   0.50000000  0.00000000  0.40000000       0.025
  -0.25000000  0.00000000  0.40000000       0.025
   0.00000000  0.25000000  0.40000000       0.025
   0.25000000  0.25000000  0.40000000       0.025
   0.50000000  0.25000000  0.40000000       0.025
  -0.25000000  0.25000000  0.40000000       0.025
   0.00000000  0.50000000  0.40000000       0.025
   0.25000000  0.50000000  0.40000000       0.025
   0.50000000  0.50000000  0.40000000       0.025
  -0.25000000  0.50000000  0.40000000       0.025
   0.00000000 -0.25000000  0.40000000       0.025
   0.25000000 -0.25000000  0.40000000       0.025
   0.50000000 -0.25000000  0.40000000       0.025
  -0.25000000 -0.25000000  0.40000000       0.025
 
 position of ions in fractional coordinates (direct lattice) 
   0.61844300  0.12117100  0.11953300
   0.12117100  0.61844300  0.61953300
   0.96295700  0.79032200  0.11881300
   0.79032200  0.96295700  0.61881300
   0.43973200  0.26728100  0.59904700
   0.26728100  0.43973200  0.09904700
   0.07949800  0.91167500  0.49736300
   0.57294140  0.41236400  0.98018400
   0.73711100  0.25006200  0.49504900
   0.41236400  0.57140300  0.48018400
   0.91167500  0.07949800  0.99736300
   0.25006200  0.73711100  0.99504900
 
 position of ions in cartesian coordinates  (Angst):
   2.13385236 -2.80651863  0.74957826
   1.08287936  2.80651863  3.78734676
   5.40422860 -0.97432259  0.77720730
   4.35325560  0.97432259  3.81497580
   1.02080825 -0.97328413  3.66185403
   2.07178125  0.97328413  0.62408553
   2.15090056  4.69666552  3.05304062
   1.11711509 -0.90627157  5.98625222
   2.14286528 -2.74882176  3.03885554
   2.16312705  0.89758908  2.94843515
   1.09992756 -4.69666552  6.09080912
   1.09189228  2.74882176  6.07662404
 


--------------------------------------------------------------------------------------------------------


 k-point  1 :   0.0000 0.0000 0.0000  plane waves:    4051
 k-point  2 :   0.2500 0.0000 0.0000  plane waves:    4032
 k-point  3 :   0.5000 0.0000 0.0000  plane waves:    4030
 k-point  4 :   0.0000 0.2500 0.0000  plane waves:    4032
 k-point  5 :   0.2500 0.2500 0.0000  plane waves:    4038
 k-point  6 :   0.5000 0.2500-0.0000  plane waves:    4037
 k-point  7 :  -0.2500 0.2500 0.0000  plane waves:    4042
 k-point  8 :   0.0000 0.5000 0.0000  plane waves:    4030
 k-point  9 :   0.2500 0.5000-0.0000  plane waves:    4037
 k-point 10 :   0.5000 0.5000 0.0000  plane waves:    4026
 k-point 11 :  -0.0000-0.0000 0.2000  plane waves:    4046
 k-point 12 :   0.2500 0.0000 0.2000  plane waves:    4034
 k-point 13 :   0.5000 0.0000 0.2000  plane waves:    4025
 k-point 14 :  -0.2500-0.0000 0.2000  plane waves:    4044
 k-point 15 :   0.0000 0.2500 0.2000  plane waves:    4034
 k-point 16 :   0.2500 0.2500 0.2000  plane waves:    4017
 k-point 17 :   0.5000 0.2500 0.2000  plane waves:    4039
 k-point 18 :  -0.2500 0.2500 0.2000  plane waves:    4042
 k-point 19 :   0.0000 0.5000 0.2000  plane waves:    4025
 k-point 20 :   0.2500 0.5000 0.2000  plane waves:    4039
 k-point 21 :   0.5000 0.5000 0.2000  plane waves:    4030
 k-point 22 :  -0.2500 0.5000 0.2000  plane waves:    4030
 k-point 23 :  -0.0000-0.2500 0.2000  plane waves:    4044
 k-point 24 :   0.2500-0.2500 0.2000  plane waves:    4042
 k-point 25 :   0.5000-0.2500 0.2000  plane waves:    4030
 k-point 26 :  -0.2500-0.2500 0.2000  plane waves:    4020
 k-point 27 :  -0.0000-0.0000 0.4000  plane waves:    4027
 k-point 28 :   0.2500 0.0000 0.4000  plane waves:    4034
 k-point 29 :   0.5000 0.0000 0.4000  plane waves:    4013
 k-point 30 :  -0.2500 0.0000 0.4000  plane waves:    4042
 k-point 31 :   0.0000 0.2500 0.4000  plane waves:    4034
 k-point 32 :   0.2500 0.2500 0.4000  plane waves:    4009
 k-point 33 :   0.5000 0.2500 0.4000  plane waves:    4026
 k-point 34 :  -0.2500 0.2500 0.4000  plane waves:    4027
 k-point 35 :   0.0000 0.5000 0.4000  plane waves:    4013
 k-point 36 :   0.2500 0.5000 0.4000  plane waves:    4026
 k-point 37 :   0.5000 0.5000 0.4000  plane waves:    4037
 k-point 38 :  -0.2500 0.5000 0.4000  plane waves:    4022
 k-point 39 :   0.0000-0.2500 0.4000  plane waves:    4042
 k-point 40 :   0.2500-0.2500 0.4000  plane waves:    4027
 k-point 41 :   0.5000-0.2500 0.4000  plane waves:    4022
 k-point 42 :  -0.2500-0.2500 0.4000  plane waves:    4015

 maximum and minimum number of plane-waves per node :      4051     4009

 maximum number of plane-waves:      4051
 maximum index in each direction: 
   IXMAX=   10   IYMAX=   10   IZMAX=   10
   IXMIN=  -11   IYMIN=  -11   IZMIN=  -10

 WARNING: aliasing errors must be expected set NGX to  44 to avoid them
 WARNING: aliasing errors must be expected set NGY to  44 to avoid them
 WARNING: aliasing errors must be expected set NGZ to  42 to avoid them
 aliasing errors are usually negligible using standard VASP settings
 and one can safely disregard these warnings

 serial   3D FFT for wavefunctions
 parallel 3D FFT for charge:
    minimum data exchange during FFTs selected (reduces bandwidth)


 FFT grid for exact exchange (Hartree Fock) 
  NGX = 24; NGY = 24; NGZ = 24

 
 Radii for the augmentation spheres in the non-local exchange
 for species   1 augmentation radius   1.120 (default was   0.830)
       energy cutoff for augmentation   1600.0
 for species   2 augmentation radius   1.570 (default was   1.163)
       energy cutoff for augmentation   1600.0
 for species   3 augmentation radius   1.034 (default was   0.970)
       energy cutoff for augmentation   1600.0

 total amount of memory used by VASP on root node   151697. kBytes
========================================================================

   base      :      30000. kBytes
   nonl-proj :      74517. kBytes
   fftplans  :        702. kBytes
   grid      :       2400. kBytes
   one-center:        186. kBytes
   HF        :        194. kBytes
   nonlr-proj:       1122. kBytes
   wavefun   :      42576. kBytes
 
 Broyden mixing: mesh for mixing (old mesh)
   NGX = 21   NGY = 21   NGZ = 21
  (NGX  = 64   NGY  = 64   NGZ  = 64)
  gives a total of   9261 points

 charge density for first step will be calculated from the start-wavefunctions


--------------------------------------------------------------------------------------------------------


 Maximum index for augmentation-charges          485 (set IRDMAX)


--------------------------------------------------------------------------------------------------------


 initial charge from wavefunction
 First call to EWALD:  gamma=   0.293
 Maximum number of real-space cells 3x 3x 3
 Maximum number of reciprocal cells 3x 3x 3

 FEWALD executed in parallel
    FEWALD:  cpu time    0.00: real time    0.00


----------------------------------------- Iteration    1(   1)  ---------------------------------------


    POTLOK:  cpu time    0.05: real time    0.05
    SETDIJ:  cpu time    2.00: real time    2.01
 
    SUBROT:  cpu time    0.72: real time    0.72
    SUBROT:  cpu time    0.35: real time    0.35
    SUBROT:  cpu time    0.34: real time    0.34
    --------------------------------------------
    SUBRT+:  cpu time    1.40: real time    1.41

 Broyden mixing:
  rms(total) = 0.27855E-01    rms(broyden)= 0.27838E-01
  rms(prec ) = 0.42747E-01
  weight for this iteration     100.00

 eigenvalues of (default mixing * dielectric matrix)
  average eigenvalue GAMMA=   1.7471
  1.0444  2.4498
 
    TRIAL :  cpu time  244.68: real time  244.72
    CORREC:  cpu time    0.00: real time    0.00
    CHARGE:  cpu time    0.06: real time    0.06
    --------------------------------------------
      LOOP:  cpu time  246.80: real time  246.85

 eigenvalue-minimisations  :     0
 total energy-change (2. order) : 0.7553619E+02  (-0.2132358E+03)
 number of electron     112.0001479 magnetization 
 augmentation part       38.9112534 magnetization 

 Free energy of the ion-electron system (eV)
  ---------------------------------------------------
  alpha Z        PSCENC =       339.31929130
  Ewald energy   TEWEN  =     -9063.22586492
  -1/2 Hartree   DENC   =     -8067.44797031
  -exchange  EXHF       =       327.44835610
  -V(xc)+E(xc)   XCENC  =       369.90354423
  PAW double counting   =     16899.24334446   -17392.05542649
  entropy T*S    EENTRO =        -0.00139561
  eigenvalues    EBANDS =     -1658.63276765
  atomic energy  EATOM  =     18320.98302006
  ---------------------------------------------------
  free energy    TOTEN  =        75.53619006 eV

  energy without entropy =       75.53758567  energy(sigma->0) =       75.53665527


--------------------------------------------------------------------------------------------------------




----------------------------------------- Iteration    1(   2)  ---------------------------------------


    POTLOK:  cpu time    0.05: real time    0.05
    SETDIJ:  cpu time    2.02: real time    2.02
 
    SUBROT:  cpu time    0.71: real time    0.71
    SUBROT:  cpu time    0.37: real time    0.37
    SUBROT:  cpu time    0.36: real time    0.36
    SUBROT:  cpu time    0.36: real time    0.36
    --------------------------------------------
    SUBRT+:  cpu time    1.79: real time    1.80

 Broyden mixing:
  rms(total) = 0.27963E-01    rms(broyden)= 0.27954E-01
  rms(prec ) = 0.51001E-01
  weight for this iteration     100.00

 eigenvalues of (default mixing * dielectric matrix)
  average eigenvalue GAMMA=   1.5657
  2.5499  1.2853  0.8619
 
    TRIAL :  cpu time  252.40: real time  252.37
    CORREC:  cpu time    0.00: real time    0.00
    CHARGE:  cpu time    0.06: real time    0.06
    --------------------------------------------
      LOOP:  cpu time  254.53: real time  254.51

 eigenvalue-minimisations  :     0
 total energy-change (2. order) :-0.8390936E+02  (-0.1469065E+03)
 number of electron     112.0001384 magnetization 
 augmentation part       35.4491653 magnetization 

 Free energy of the ion-electron system (eV)
  ---------------------------------------------------
  alpha Z        PSCENC =       339.31929130
  Ewald energy   TEWEN  =     -9063.22586492
  -1/2 Hartree   DENC   =     -8371.73260663
  -exchange  EXHF       =       338.95347045
  -V(xc)+E(xc)   XCENC  =       377.32084959
  PAW double counting   =     17401.86853149   -17941.01338023
  entropy T*S    EENTRO =        -0.00094264
  eigenvalues    EBANDS =     -1410.84508088
  atomic energy  EATOM  =     18320.98302006
  ---------------------------------------------------
  free energy    TOTEN  =        -8.37316538 eV

  energy without entropy =       -8.37222274  energy(sigma->0) =       -8.37285117


--------------------------------------------------------------------------------------------------------




----------------------------------------- Iteration    1(   3)  ---------------------------------------


    POTLOK:  cpu time    0.11: real time    0.11
    SETDIJ:  cpu time    2.04: real time    2.04
 
    SUBROT:  cpu time    0.72: real time    0.72
    SUBROT:  cpu time    0.34: real time    0.34
    SUBROT:  cpu time    0.35: real time    0.35
    SUBROT:  cpu time    0.34: real time    0.34
    --------------------------------------------
    SUBRT+:  cpu time    1.75: real time    1.75

 Broyden mixing:
  rms(total) = 0.28110E-01    rms(broyden)= 0.28099E-01
  rms(prec ) = 0.52373E-01
  weight for this iteration     100.00

 eigenvalues of (default mixing * dielectric matrix)
  average eigenvalue GAMMA=   1.7751
  1.0115  2.4989  1.8149
 
    TRIAL :  cpu time  251.67: real time  251.46
    CORREC:  cpu time    0.00: real time    0.00
    CHARGE:  cpu time    0.06: real time    0.06
    --------------------------------------------
      LOOP:  cpu time  253.88: real time  253.67

 eigenvalue-minimisations  :     0
 total energy-change (2. order) :-0.6738599E+01  (-0.2040911E+03)
 number of electron     112.0001510 magnetization 
 augmentation part       39.6863775 magnetization 

 Free energy of the ion-electron system (eV)
  ---------------------------------------------------
  alpha Z        PSCENC =       339.31929130
  Ewald energy   TEWEN  =     -9063.22586492
  -1/2 Hartree   DENC   =     -7478.34751775
  -exchange  EXHF       =       324.95754058
  -V(xc)+E(xc)   XCENC  =       357.37088085
  PAW double counting   =     15149.19700370   -15578.62851489
  entropy T*S    EENTRO =        -0.00016469
  eigenvalues    EBANDS =     -2386.73666024
  atomic energy  EATOM  =     18320.98302006
  ---------------------------------------------------
  free energy    TOTEN  =       -15.11176394 eV

  energy without entropy =      -15.11159925  energy(sigma->0) =      -15.11170904


--------------------------------------------------------------------------------------------------------




----------------------------------------- Iteration    1(   4)  ---------------------------------------


    POTLOK:  cpu time    0.07: real time    0.07
    SETDIJ:  cpu time    2.00: real time    2.00
 
    SUBROT:  cpu time    0.71: real time    0.71
    SUBROT:  cpu time    0.35: real time    0.35
    SUBROT:  cpu time    0.35: real time    0.36
    SUBROT:  cpu time    0.34: real time    0.35
    SUBROT:  cpu time    0.36: real time    0.37
    --------------------------------------------
    SUBRT+:  cpu time    2.12: real time    2.14

 Broyden mixing:
  rms(total) = 0.11911E+00    rms(broyden)= 0.11892E+00
  rms(prec ) = 0.20967E+00
  weight for this iteration     100.00

 eigenvalues of (default mixing * dielectric matrix)
  average eigenvalue GAMMA=   1.2107
  2.5490  1.2686  0.6426  0.3827
 
    TRIAL :  cpu time  253.38: real time  253.39
    CORREC:  cpu time    0.00: real time    0.00
    CHARGE:  cpu time    0.07: real time    0.07
    --------------------------------------------
      LOOP:  cpu time  255.53: real time  255.54

 eigenvalue-minimisations  :     0
 total energy-change (2. order) :-0.7472748E+01  (-0.1075031E+03)
 number of electron     112.0001430 magnetization 
 augmentation part       37.2399537 magnetization 

 Free energy of the ion-electron system (eV)
  ---------------------------------------------------
  alpha Z        PSCENC =       339.31929130
  Ewald energy   TEWEN  =     -9063.22586492
  -1/2 Hartree   DENC   =     -8545.38034535
  -exchange  EXHF       =       342.99170102
  -V(xc)+E(xc)   XCENC  =       381.66508576
  PAW double counting   =     17636.48783838   -18217.38382580
  entropy T*S    EENTRO =         0.00037369
  eigenvalues    EBANDS =     -1218.04124785
  atomic energy  EATOM  =     18320.98302006
  ---------------------------------------------------
  free energy    TOTEN  =       -22.58451210 eV

  energy without entropy =      -22.58488579  energy(sigma->0) =      -22.58463666


--------------------------------------------------------------------------------------------------------




----------------------------------------- Iteration    1(   5)  ---------------------------------------


    POTLOK:  cpu time    0.05: real time    0.05
    SETDIJ:  cpu time    2.02: real time    2.02
 
    SUBROT:  cpu time    0.72: real time    0.72
    SUBROT:  cpu time    0.34: real time    0.34
    SUBROT:  cpu time    0.35: real time    0.35
    SUBROT:  cpu time    0.35: real time    0.35
    --------------------------------------------
    SUBRT+:  cpu time    1.75: real time    1.75

 Broyden mixing:
  rms(total) = 0.46016E-01    rms(broyden)= 0.46006E-01
  rms(prec ) = 0.93408E-01
  weight for this iteration     100.00

 eigenvalues of (default mixing * dielectric matrix)
  average eigenvalue GAMMA=   1.6850
  2.4589  0.9354  1.6606
 
    TRIAL :  cpu time  252.74: real time  252.83
    CORREC:  cpu time    0.00: real time    0.00
    CHARGE:  cpu time    0.05: real time    0.06
    --------------------------------------------
      LOOP:  cpu time  254.87: real time  254.96

 eigenvalue-minimisations  :     0
 total energy-change (2. order) :-0.3822412E+02  (-0.1507208E+02)
 number of electron     112.0001429 magnetization 
 augmentation part       37.2431432 magnetization 

 Free energy of the ion-electron system (eV)
  ---------------------------------------------------
  alpha Z        PSCENC =       339.31929130
  Ewald energy   TEWEN  =     -9063.22586492
  -1/2 Hartree   DENC   =     -8008.65765628
  -exchange  EXHF       =       336.35757693
  -V(xc)+E(xc)   XCENC  =       368.37628567
  PAW double counting   =     15869.31031823   -16338.73349126
  entropy T*S    EENTRO =         0.00064210
  eigenvalues    EBANDS =     -1884.53848083
  atomic energy  EATOM  =     18320.98302006
  ---------------------------------------------------
  free energy    TOTEN  =       -60.80862740 eV

  energy without entropy =      -60.80926950  energy(sigma->0) =      -60.80884143


--------------------------------------------------------------------------------------------------------




----------------------------------------- Iteration    1(   6)  ---------------------------------------


    POTLOK:  cpu time    0.11: real time    0.11
    SETDIJ:  cpu time    2.02: real time    2.02
 
    SUBROT:  cpu time    0.72: real time    0.72
    SUBROT:  cpu time    0.36: real time    0.36
    SUBROT:  cpu time    0.35: real time    0.35
    SUBROT:  cpu time    0.35: real time    0.35
    --------------------------------------------
    SUBRT+:  cpu time    1.79: real time    1.80

 Broyden mixing:
  rms(total) = 0.27573E-02    rms(broyden)= 0.27566E-02
  rms(prec ) = 0.45620E-02
  weight for this iteration     100.00

 eigenvalues of (default mixing * dielectric matrix)
  average eigenvalue GAMMA=   1.8146
  1.0089  1.9079  2.5270
 
    TRIAL :  cpu time  254.32: real time  254.12
    CORREC:  cpu time    0.00: real time    0.00
    CHARGE:  cpu time    0.06: real time    0.05
    --------------------------------------------
      LOOP:  cpu time  256.50: real time  256.31

 eigenvalue-minimisations  :     0
 total energy-change (2. order) :-0.5111612E+01  (-0.8206727E+01)
 number of electron     112.0001460 magnetization 
 augmentation part       38.2281082 magnetization 

 Free energy of the ion-electron system (eV)
  ---------------------------------------------------
  alpha Z        PSCENC =       339.31929130
  Ewald energy   TEWEN  =     -9063.22586492
  -1/2 Hartree   DENC   =     -8001.89242446
  -exchange  EXHF       =       337.12078262
  -V(xc)+E(xc)   XCENC  =       368.76631602
  PAW double counting   =     15770.51231422   -16239.58137642
  entropy T*S    EENTRO =         0.00065316
  eigenvalues    EBANDS =     -1897.92293943
  atomic energy  EATOM  =     18320.98302006
  ---------------------------------------------------
  free energy    TOTEN  =       -65.92023890 eV

  energy without entropy =      -65.92089206  energy(sigma->0) =      -65.92045662


--------------------------------------------------------------------------------------------------------




----------------------------------------- Iteration    1(   7)  ---------------------------------------


    POTLOK:  cpu time    0.09: real time    0.09
    SETDIJ:  cpu time    2.04: real time    2.04
 
    SUBROT:  cpu time    0.72: real time    0.72
    SUBROT:  cpu time    0.35: real time    0.35
    SUBROT:  cpu time    0.35: real time    0.35
    SUBROT:  cpu time    0.35: real time    0.35
    --------------------------------------------
    SUBRT+:  cpu time    1.76: real time    1.77

 Broyden mixing:
  rms(total) = 0.13300E-01    rms(broyden)= 0.13296E-01
  rms(prec ) = 0.23593E-01
  weight for this iteration     100.00

 eigenvalues of (default mixing * dielectric matrix)
  average eigenvalue GAMMA=   1.6044
  2.5022  0.8883  1.4227
 
    TRIAL :  cpu time  260.46: real time  260.26
    CORREC:  cpu time    0.00: real time    0.00
    CHARGE:  cpu time    0.05: real time    0.05
    --------------------------------------------
      LOOP:  cpu time  262.64: real time  262.44

 eigenvalue-minimisations  :     0
 total energy-change (2. order) :-0.1544884E+01  (-0.4152035E+01)
 number of electron     112.0001443 magnetization 
 augmentation part       37.7037968 magnetization 

 Free energy of the ion-electron system (eV)
  ---------------------------------------------------
  alpha Z        PSCENC =       339.31929130
  Ewald energy   TEWEN  =     -9063.22586492
  -1/2 Hartree   DENC   =     -8244.89156375
  -exchange  EXHF       =       341.60971787
  -V(xc)+E(xc)   XCENC  =       374.56014344
  PAW double counting   =     16208.00630462   -16711.48112791
  entropy T*S    EENTRO =         0.00041585
  eigenvalues    EBANDS =     -1632.34569651
  atomic energy  EATOM  =     18320.98302006
  ---------------------------------------------------
  free energy    TOTEN  =       -67.46512264 eV

  energy without entropy =      -67.46553849  energy(sigma->0) =      -67.46526126


--------------------------------------------------------------------------------------------------------




----------------------------------------- Iteration    1(   8)  ---------------------------------------


    POTLOK:  cpu time    0.11: real time    0.11
    SETDIJ:  cpu time    2.05: real time    2.05
 
    SUBROT:  cpu time    0.70: real time    0.70
    SUBROT:  cpu time    0.36: real time    0.36
    SUBROT:  cpu time    0.35: real time    0.35
    SUBROT:  cpu time    0.36: real time    0.36
    --------------------------------------------
    SUBRT+:  cpu time    1.77: real time    1.77

 Broyden mixing:
  rms(total) = 0.84706E-02    rms(broyden)= 0.84682E-02
  rms(prec ) = 0.14184E-01
  weight for this iteration     100.00

 eigenvalues of (default mixing * dielectric matrix)
  average eigenvalue GAMMA=   1.6724
  2.4566  0.9461  1.6145
 
    TRIAL :  cpu time  259.97: real time  259.82
    CORREC:  cpu time    0.00: real time    0.00
    CHARGE:  cpu time    0.08: real time    0.08
    --------------------------------------------
      LOOP:  cpu time  262.21: real time  262.07

 eigenvalue-minimisations  :     0
 total energy-change (2. order) :-0.1618110E+01  (-0.7730192E+00)
 number of electron     112.0001443 magnetization 
 augmentation part       37.7232646 magnetization 

 Free energy of the ion-electron system (eV)
  ---------------------------------------------------
  alpha Z        PSCENC =       339.31929130
  Ewald energy   TEWEN  =     -9063.22586492
  -1/2 Hartree   DENC   =     -8117.79973444
  -exchange  EXHF       =       339.50382038
  -V(xc)+E(xc)   XCENC  =       371.37080291
  PAW double counting   =     15915.50222190   -16396.86556215
  entropy T*S    EENTRO =         0.00070279
  eigenvalues    EBANDS =     -1777.87164336
  atomic energy  EATOM  =     18320.98302006
  ---------------------------------------------------
  free energy    TOTEN  =       -69.08323246 eV

  energy without entropy =      -69.08393525  energy(sigma->0) =      -69.08346673


--------------------------------------------------------------------------------------------------------




----------------------------------------- Iteration    1(   9)  ---------------------------------------


    POTLOK:  cpu time    0.11: real time    0.11
    SETDIJ:  cpu time    2.05: real time    2.05
 
    SUBROT:  cpu time    0.75: real time    0.75
    SUBROT:  cpu time    0.36: real time    0.36
    SUBROT:  cpu time    0.36: real time    0.36
    SUBROT:  cpu time    0.37: real time    0.37
    --------------------------------------------
    SUBRT+:  cpu time    1.84: real time    1.85

 Broyden mixing:
  rms(total) = 0.51594E-03    rms(broyden)= 0.51533E-03
  rms(prec ) = 0.82430E-03
  weight for this iteration     100.00

 eigenvalues of (default mixing * dielectric matrix)
  average eigenvalue GAMMA=   1.6881
  2.5227  1.0000  1.5417
 
    TRIAL :  cpu time  261.03: real time  260.82
    CORREC:  cpu time    0.00: real time    0.00
    CHARGE:  cpu time    0.06: real time    0.06
    --------------------------------------------
      LOOP:  cpu time  263.26: real time  263.05

 eigenvalue-minimisations  :     0
 total energy-change (2. order) :-0.3111507E+00  (-0.3876700E+00)
 number of electron     112.0001449 magnetization 
 augmentation part       37.9050161 magnetization 

 Free energy of the ion-electron system (eV)
  ---------------------------------------------------
  alpha Z        PSCENC =       339.31929130
  Ewald energy   TEWEN  =     -9063.22586492
  -1/2 Hartree   DENC   =     -8125.60666087
  -exchange  EXHF       =       339.58164173
  -V(xc)+E(xc)   XCENC  =       371.43768445
  PAW double counting   =     15912.07945116   -16393.34724562
  entropy T*S    EENTRO =         0.00083548
  eigenvalues    EBANDS =     -1770.61640329
  atomic energy  EATOM  =     18320.98302006
  ---------------------------------------------------
  free energy    TOTEN  =       -69.39438320 eV

  energy without entropy =      -69.39521869  energy(sigma->0) =      -69.39466170


--------------------------------------------------------------------------------------------------------




----------------------------------------- Iteration    1(  10)  ---------------------------------------


    POTLOK:  cpu time    0.05: real time    0.05
    SETDIJ:  cpu time    2.03: real time    2.03
 
    SUBROT:  cpu time    0.73: real time    0.73
    SUBROT:  cpu time    0.37: real time    0.37
    SUBROT:  cpu time    0.37: real time    0.37
    SUBROT:  cpu time    0.38: real time    0.38
    --------------------------------------------
    SUBRT+:  cpu time    1.86: real time    1.87

 Broyden mixing:
  rms(total) = 0.23119E-02    rms(broyden)= 0.23114E-02
  rms(prec ) = 0.38813E-02
  weight for this iteration     100.00

 eigenvalues of (default mixing * dielectric matrix)
  average eigenvalue GAMMA=   1.6837
  2.4752  0.9877  1.5882
 
    TRIAL :  cpu time  256.74: real time  256.53
    CORREC:  cpu time    0.00: real time    0.00
    CHARGE:  cpu time    0.07: real time    0.07
    --------------------------------------------
      LOOP:  cpu time  258.90: real time  258.69

 eigenvalue-minimisations  :     0
 total energy-change (2. order) :-0.1040595E+00  (-0.1528958E+00)
 number of electron     112.0001446 magnetization 
 augmentation part       37.8175389 magnetization 

 Free energy of the ion-electron system (eV)
  ---------------------------------------------------
  alpha Z        PSCENC =       339.31929130
  Ewald energy   TEWEN  =     -9063.22586492
  -1/2 Hartree   DENC   =     -8173.11560952
  -exchange  EXHF       =       340.38831248
  -V(xc)+E(xc)   XCENC  =       372.53817937
  PAW double counting   =     15994.11148971   -16482.12436311
  entropy T*S    EENTRO =         0.00068206
  eigenvalues    EBANDS =     -1718.37373355
  atomic energy  EATOM  =     18320.98302006
  ---------------------------------------------------
  free energy    TOTEN  =       -69.49844269 eV

  energy without entropy =      -69.49912475  energy(sigma->0) =      -69.49867004


--------------------------------------------------------------------------------------------------------




----------------------------------------- Iteration    1(  11)  ---------------------------------------


    POTLOK:  cpu time    0.05: real time    0.05
    SETDIJ:  cpu time    2.04: real time    2.03
 
    SUBROT:  cpu time    0.76: real time    0.76
    SUBROT:  cpu time    0.38: real time    0.38
    SUBROT:  cpu time    0.38: real time    0.38
    SUBROT:  cpu time    0.38: real time    0.38
    --------------------------------------------
    SUBRT+:  cpu time    1.91: real time    1.92

 Broyden mixing:
  rms(total) = 0.78543E-03    rms(broyden)= 0.78518E-03
  rms(prec ) = 0.15714E-02
  weight for this iteration     100.00

 eigenvalues of (default mixing * dielectric matrix)
  average eigenvalue GAMMA=   1.6699
  2.4946  0.9835  1.5316
 
    TRIAL :  cpu time  255.33: real time  255.14
    CORREC:  cpu time    0.00: real time    0.00
    CHARGE:  cpu time    0.09: real time    0.09
    --------------------------------------------
      LOOP:  cpu time  257.51: real time  257.32

 eigenvalue-minimisations  :     0
 total energy-change (2. order) :-0.6986508E-01  (-0.3690845E-01)
 number of electron     112.0001445 magnetization 
 augmentation part       37.7847494 magnetization 

 Free energy of the ion-electron system (eV)
  ---------------------------------------------------
  alpha Z        PSCENC =       339.31929130
  Ewald energy   TEWEN  =     -9063.22586492
  -1/2 Hartree   DENC   =     -8151.66265001
  -exchange  EXHF       =       340.05902554
  -V(xc)+E(xc)   XCENC  =       372.06320848
  PAW double counting   =     15941.84546512   -16426.80446624
  entropy T*S    EENTRO =         0.00057662
  eigenvalues    EBANDS =     -1742.14601915
  atomic energy  EATOM  =     18320.98302006
  ---------------------------------------------------
  free energy    TOTEN  =       -69.56830776 eV

  energy without entropy =      -69.56888438  energy(sigma->0) =      -69.56849997


--------------------------------------------------------------------------------------------------------




----------------------------------------- Iteration    1(  12)  ---------------------------------------


    POTLOK:  cpu time    0.12: real time    0.12
    SETDIJ:  cpu time    2.01: real time    2.01
 
    SUBROT:  cpu time    0.77: real time    0.77
    SUBROT:  cpu time    0.38: real time    0.38
    SUBROT:  cpu time    0.37: real time    0.37
    SUBROT:  cpu time    0.38: real time    0.38
    --------------------------------------------
    SUBRT+:  cpu time    1.90: real time    1.91

 Broyden mixing:
  rms(total) = 0.21032E-03    rms(broyden)= 0.21023E-03
  rms(prec ) = 0.45814E-03
  weight for this iteration     100.00

 eigenvalues of (default mixing * dielectric matrix)
  average eigenvalue GAMMA=   1.6452
  2.5062  0.9984  1.4308
 
    TRIAL :  cpu time  256.07: real time  255.85
    CORREC:  cpu time    0.00: real time    0.00
    CHARGE:  cpu time    0.09: real time    0.09
    --------------------------------------------
      LOOP:  cpu time  258.29: real time  258.08

 eigenvalue-minimisations  :     0
 total energy-change (2. order) :-0.1233624E-01  (-0.2293542E-01)
 number of electron     112.0001447 magnetization 
 augmentation part       37.8251930 magnetization 

 Free energy of the ion-electron system (eV)
  ---------------------------------------------------
  alpha Z        PSCENC =       339.31929130
  Ewald energy   TEWEN  =     -9063.22586492
  -1/2 Hartree   DENC   =     -8143.29123280
  -exchange  EXHF       =       339.94310158
  -V(xc)+E(xc)   XCENC  =       371.88832523
  PAW double counting   =     15919.93088150   -16403.80410528
  entropy T*S    EENTRO =         0.00052718
  eigenvalues    EBANDS =     -1751.32463730
  atomic energy  EATOM  =     18320.98302006
  ---------------------------------------------------
  free energy    TOTEN  =       -69.58064401 eV

  energy without entropy =      -69.58117119  energy(sigma->0) =      -69.58081973


--------------------------------------------------------------------------------------------------------




----------------------------------------- Iteration    1(  13)  ---------------------------------------


    POTLOK:  cpu time    0.08: real time    0.08
    SETDIJ:  cpu time    2.03: real time    2.03
 
    SUBROT:  cpu time    0.77: real time    0.77
    SUBROT:  cpu time    0.38: real time    0.38
    SUBROT:  cpu time    0.38: real time    0.38
    SUBROT:  cpu time    0.38: real time    0.38
    --------------------------------------------
    SUBRT+:  cpu time    1.91: real time    1.94

 Broyden mixing:
  rms(total) = 0.55611E-03    rms(broyden)= 0.55600E-03
  rms(prec ) = 0.94615E-03
  weight for this iteration     100.00

 eigenvalues of (default mixing * dielectric matrix)
  average eigenvalue GAMMA=   1.6939
  2.4802  0.9954  1.6060
 
    TRIAL :  cpu time  256.93: real time  256.73
    CORREC:  cpu time    0.00: real time    0.00
    CHARGE:  cpu time    0.09: real time    0.09
    --------------------------------------------
      LOOP:  cpu time  259.13: real time  258.93

 eigenvalue-minimisations  :     0
 total energy-change (2. order) :-0.9696506E-02  (-0.5130422E-02)
 number of electron     112.0001447 magnetization 
 augmentation part       37.8290785 magnetization 

 Free energy of the ion-electron system (eV)
  ---------------------------------------------------
  alpha Z        PSCENC =       339.31929130
  Ewald energy   TEWEN  =     -9063.22586492
  -1/2 Hartree   DENC   =     -8153.21855002
  -exchange  EXHF       =       340.11597239
  -V(xc)+E(xc)   XCENC  =       372.12293784
  PAW double counting   =     15936.12435821   -16421.49529211
  entropy T*S    EENTRO =         0.00051472
  eigenvalues    EBANDS =     -1740.31674044
  atomic energy  EATOM  =     18320.98302006
  ---------------------------------------------------
  free energy    TOTEN  =       -69.59034051 eV

  energy without entropy =      -69.59085523  energy(sigma->0) =      -69.59051209


--------------------------------------------------------------------------------------------------------




----------------------------------------- Iteration    1(  14)  ---------------------------------------


    POTLOK:  cpu time    0.11: real time    0.11
    SETDIJ:  cpu time    2.04: real time    2.04
 
    SUBROT:  cpu time    0.78: real time    0.78
    SUBROT:  cpu time    0.38: real time    0.38
    SUBROT:  cpu time    0.39: real time    0.39
    SUBROT:  cpu time    0.38: real time    0.38
    --------------------------------------------
    SUBRT+:  cpu time    1.93: real time    1.94

 Broyden mixing:
  rms(total) = 0.68965E-04    rms(broyden)= 0.68951E-04
  rms(prec ) = 0.14143E-03
  weight for this iteration     100.00

 eigenvalues of (default mixing * dielectric matrix)
  average eigenvalue GAMMA=   1.6668
  2.5159  0.9898  1.4946
 
    TRIAL :  cpu time  259.64: real time  259.42
    CORREC:  cpu time    0.00: real time    0.00
    CHARGE:  cpu time    0.10: real time    0.10
    --------------------------------------------
      LOOP:  cpu time  261.89: real time  261.68

 eigenvalue-minimisations  :     0
 total energy-change (2. order) :-0.2462018E-02  (-0.3795056E-02)
 number of electron     112.0001446 magnetization 
 augmentation part       37.8114766 magnetization 

 Free energy of the ion-electron system (eV)
  ---------------------------------------------------
  alpha Z        PSCENC =       339.31929130
  Ewald energy   TEWEN  =     -9063.22586492
  -1/2 Hartree   DENC   =     -8153.74596538
  -exchange  EXHF       =       340.11393036
  -V(xc)+E(xc)   XCENC  =       372.13220949
  PAW double counting   =     15934.02735944   -16419.56170971
  entropy T*S    EENTRO =         0.00053061
  eigenvalues    EBANDS =     -1739.63558790
  atomic energy  EATOM  =     18320.98302006
  ---------------------------------------------------
  free energy    TOTEN  =       -69.59280253 eV

  energy without entropy =      -69.59333314  energy(sigma->0) =      -69.59297940


--------------------------------------------------------------------------------------------------------




----------------------------------------- Iteration    1(  15)  ---------------------------------------


    POTLOK:  cpu time    0.08: real time    0.08
    SETDIJ:  cpu time    2.04: real time    2.04
 
    SUBROT:  cpu time    0.78: real time    0.78
    SUBROT:  cpu time    0.39: real time    0.39
    SUBROT:  cpu time    0.39: real time    0.39
    SUBROT:  cpu time    0.39: real time    0.39
    --------------------------------------------
    SUBRT+:  cpu time    1.94: real time    1.96

 Broyden mixing:
  rms(total) = 0.19357E-03    rms(broyden)= 0.19351E-03
  rms(prec ) = 0.33076E-03
  weight for this iteration     100.00

 eigenvalues of (default mixing * dielectric matrix)
  average eigenvalue GAMMA=   1.6855
  2.4719  0.9885  1.5962
 
    TRIAL :  cpu time  261.01: real time  260.83
    CORREC:  cpu time    0.00: real time    0.00
    CHARGE:  cpu time    0.10: real time    0.10
    --------------------------------------------
      LOOP:  cpu time  263.23: real time  263.06

 eigenvalue-minimisations  :     0
 total energy-change (2. order) :-0.1511834E-02  (-0.1041784E-02)
 number of electron     112.0001446 magnetization 
 augmentation part       37.8158131 magnetization 

 Free energy of the ion-electron system (eV)
  ---------------------------------------------------
  alpha Z        PSCENC =       339.31929130
  Ewald energy   TEWEN  =     -9063.22586492
  -1/2 Hartree   DENC   =     -8149.01881878
  -exchange  EXHF       =       340.02455231
  -V(xc)+E(xc)   XCENC  =       372.02065372
  PAW double counting   =     15921.92914583   -16406.85119390
  entropy T*S    EENTRO =         0.00054276
  eigenvalues    EBANDS =     -1744.77563059
  atomic energy  EATOM  =     18320.98302006
  ---------------------------------------------------
  free energy    TOTEN  =       -69.59431437 eV

  energy without entropy =      -69.59485712  energy(sigma->0) =      -69.59449528


--------------------------------------------------------------------------------------------------------




----------------------------------------- Iteration    1(  16)  ---------------------------------------


    POTLOK:  cpu time    0.09: real time    0.10
    SETDIJ:  cpu time    2.02: real time    2.02
 
    SUBROT:  cpu time    0.78: real time    0.79
    SUBROT:  cpu time    0.38: real time    0.38
    SUBROT:  cpu time    0.38: real time    0.38
    SUBROT:  cpu time    0.38: real time    0.38
    --------------------------------------------
    SUBRT+:  cpu time    1.93: real time    1.95

 Broyden mixing:
  rms(total) = 0.85210E-04    rms(broyden)= 0.85192E-04
  rms(prec ) = 0.14186E-03
  weight for this iteration     100.00

 eigenvalues of (default mixing * dielectric matrix)
  average eigenvalue GAMMA=   1.6857
  2.4862  0.9887  1.5822
 
    TRIAL :  cpu time  259.22: real time  259.42
    CORREC:  cpu time    0.00: real time    0.00
    CHARGE:  cpu time    0.10: real time    0.10
    --------------------------------------------
      LOOP:  cpu time  261.44: real time  261.64

 eigenvalue-minimisations  :     0
 total energy-change (2. order) :-0.5738746E-03  (-0.4110702E-03)
 number of electron     112.0001446 magnetization 
 augmentation part       37.8206363 magnetization 

 Free energy of the ion-electron system (eV)
  ---------------------------------------------------
  alpha Z        PSCENC =       339.31929130
  Ewald energy   TEWEN  =     -9063.22586492
  -1/2 Hartree   DENC   =     -8150.14038942
  -exchange  EXHF       =       340.04319709
  -V(xc)+E(xc)   XCENC  =       372.04794237
  PAW double counting   =     15922.77814403   -16407.88957627
  entropy T*S    EENTRO =         0.00054394
  eigenvalues    EBANDS =     -1743.51119524
  atomic energy  EATOM  =     18320.98302006
  ---------------------------------------------------
  free energy    TOTEN  =       -69.59488824 eV

[...]
     22      -2.2877      2.00000
     23      -1.9510      2.00000
     24      -1.6178      2.00000
     25      -1.2146      2.00000
     26      -1.0036      2.00000
     27      -0.9790      2.00000
     28      -0.7105      2.00000
     29      -0.5562      2.00000
     30      -0.3927      2.00000
     31      -0.2866      2.00000
     32      -0.1994      2.00000
     33      -0.1843      2.00000
     34      -0.1410      2.00000
     35      -0.0210      2.00000
     36       0.0176      2.00000
     37       1.2941      2.00000
     38       1.3053      2.00000
     39       1.3659      2.00000
     40       1.4087      2.00000
     41       1.4489      2.00000
     42       1.4639      2.00000
     43       1.5049      2.00000
     44       1.5475      2.00000
     45       1.7636      2.00000
     46       1.8940      2.00000
     47       1.9814      2.00000
     48       2.1505      2.00000
     49       2.3702      2.00000
     50       2.5765      2.00000
     51       2.7034      2.00000
     52       2.9090      2.00000
     53       3.0110      2.00000
     54       3.2199      2.00000
     55       3.3991      2.00000
     56       3.6574      2.00000
     57       6.3619     -0.00000
     58       6.5239     -0.00000
     59       7.7179      0.00000
     60       7.8883      0.00000
     61       8.2956      0.00000
     62       8.5710      0.00000
     63       9.3253      0.00000
     64       9.8433      0.00000
     65      10.0221      0.00000
     66      10.3527      0.00000
     67      10.5853      0.00000
     68      10.7918      0.00000
     69      10.9794      0.00000
     70      11.2597      0.00000
     71      11.3070      0.00000
     72      11.7049      0.00000
     73      12.2510      0.00000
     74      12.4647      0.00000
     75      13.0985      0.00000
     76      13.4614      0.00000
     77      13.8008      0.00000
     78      14.6704      0.00000
     79      15.0005      0.00000
     80      15.7292      0.00000

 k-point  40 :       0.2500   -0.2500    0.4000
  band No.  band energies     occupation 
      1     -68.6502      2.00000
      2     -68.6454      2.00000
      3     -68.6411      2.00000
      4     -68.6330      2.00000
      5     -68.6173      2.00000
      6     -68.6134      2.00000
      7     -68.6011      2.00000
      8     -68.5960      2.00000
      9     -68.5842      2.00000
     10     -68.5770      2.00000
     11     -68.5675      2.00000
     12     -68.5600      2.00000
     13     -12.2118      2.00000
     14     -11.8144      2.00000
     15     -10.8201      2.00000
     16     -10.6715      2.00000
     17     -10.3504      2.00000
     18     -10.2773      2.00000
     19      -5.4430      2.00000
     20      -5.1132      2.00000
     21      -2.4276      2.00000
     22      -2.1530      2.00000
     23      -2.0175      2.00000
     24      -1.5225      2.00000
     25      -1.3512      2.00000
     26      -1.1679      2.00000
     27      -0.9364      2.00000
     28      -0.8144      2.00000
     29      -0.5847      2.00000
     30      -0.5389      2.00000
     31      -0.2840      2.00000
     32      -0.2414      2.00000
     33      -0.1380      2.00000
     34      -0.0907      2.00000
     35      -0.0252      2.00000
     36       0.0316      2.00000
     37       1.3101      2.00000
     38       1.3436      2.00000
     39       1.3623      2.00000
     40       1.3940      2.00000
     41       1.4490      2.00000
     42       1.4793      2.00000
     43       1.4967      2.00000
     44       1.5638      2.00000
     45       1.8004      2.00000
     46       1.8431      2.00000
     47       1.9600      2.00000
     48       2.1067      2.00000
     49       2.2944      2.00000
     50       2.5301      2.00000
     51       2.6401      2.00000
     52       2.7689      2.00000
     53       2.9271      2.00000
     54       3.1602      2.00000
     55       3.3026      2.00000
     56       3.5744      2.00000
     57       6.5583     -0.00000
     58       6.7107     -0.00000
     59       7.9614      0.00000
     60       8.0022      0.00000
     61       8.7280      0.00000
     62       9.0892      0.00000
     63       9.4564      0.00000
     64       9.8240      0.00000
     65      10.3009      0.00000
     66      10.3646      0.00000
     67      10.7852      0.00000
     68      10.8500      0.00000
     69      11.1139      0.00000
     70      11.2732      0.00000
     71      11.3725      0.00000
     72      11.6214      0.00000
     73      12.0461      0.00000
     74      12.2919      0.00000
     75      12.6510      0.00000
     76      13.1228      0.00000
     77      13.2845      0.00000
     78      14.2361      0.00000
     79      15.6302      0.00000
     80      15.8442      0.00000

 k-point  41 :       0.5000   -0.2500    0.4000
  band No.  band energies     occupation 
      1     -68.6501      2.00000
      2     -68.6453      2.00000
      3     -68.6410      2.00000
      4     -68.6328      2.00000
      5     -68.6173      2.00000
      6     -68.6134      2.00000
      7     -68.6010      2.00000
      8     -68.5959      2.00000
      9     -68.5843      2.00000
     10     -68.5770      2.00000
     11     -68.5675      2.00000
     12     -68.5599      2.00000
     13     -12.0715      2.00000
     14     -11.7693      2.00000
     15     -10.8497      2.00000
     16     -10.7567      2.00000
     17     -10.5330      2.00000
     18     -10.3167      2.00000
     19      -5.4154      2.00000
     20      -4.9386      2.00000
     21      -2.3997      2.00000
     22      -2.1269      2.00000
     23      -1.8635      2.00000
     24      -1.7205      2.00000
     25      -1.4481      2.00000
     26      -1.1155      2.00000
     27      -0.8854      2.00000
     28      -0.6495      2.00000
     29      -0.6026      2.00000
     30      -0.4486      2.00000
     31      -0.2662      2.00000
     32      -0.1906      2.00000
     33      -0.1222      2.00000
     34      -0.0547      2.00000
     35      -0.0225      2.00000
     36       0.0226      2.00000
     37       1.2584      2.00000
     38       1.3145      2.00000
     39       1.4071      2.00000
     40       1.4358      2.00000
     41       1.4807      2.00000
     42       1.4895      2.00000
     43       1.5131      2.00000
     44       1.5725      2.00000
     45       1.7600      2.00000
     46       1.8379      2.00000
     47       2.1165      2.00000
     48       2.1836      2.00000
     49       2.3646      2.00000
     50       2.4616      2.00000
     51       2.4915      2.00000
     52       2.6926      2.00000
     53       2.8215      2.00000
     54       3.0872      2.00000
     55       3.2914      2.00000
     56       3.5254      2.00000
     57       6.5000     -0.00000
     58       6.5697     -0.00000
     59       7.4471      0.00000
     60       7.7239      0.00000
     61       8.5877      0.00000
     62       8.7394      0.00000
     63       9.2975      0.00000
     64       9.5344      0.00000
     65       9.9549      0.00000
     66      10.1854      0.00000
     67      10.6787      0.00000
     68      11.1147      0.00000
     69      11.2476      0.00000
     70      11.5694      0.00000
     71      11.7052      0.00000
     72      11.8949      0.00000
     73      12.3067      0.00000
     74      12.6616      0.00000
     75      13.0152      0.00000
     76      13.2254      0.00000
     77      13.6628      0.00000
     78      14.0663      0.00000
     79      14.3892      0.00000
     80      16.5097      0.00000

 k-point  42 :      -0.2500   -0.2500    0.4000
  band No.  band energies     occupation 
      1     -68.6502      2.00000
      2     -68.6455      2.00000
      3     -68.6409      2.00000
      4     -68.6327      2.00000
      5     -68.6172      2.00000
      6     -68.6135      2.00000
      7     -68.6010      2.00000
      8     -68.5959      2.00000
      9     -68.5843      2.00000
     10     -68.5770      2.00000
     11     -68.5676      2.00000
     12     -68.5601      2.00000
     13     -12.1717      2.00000
     14     -11.6988      2.00000
     15     -10.7181      2.00000
     16     -10.6920      2.00000
     17     -10.5870      2.00000
     18     -10.3925      2.00000
     19      -5.4412      2.00000
     20      -5.0723      2.00000
     21      -2.5069      2.00000
     22      -2.3808      2.00000
     23      -1.9608      2.00000
     24      -1.3679      2.00000
     25      -1.3315      2.00000
     26      -1.0495      2.00000
     27      -0.8347      2.00000
     28      -0.7656      2.00000
     29      -0.4237      2.00000
     30      -0.3392      2.00000
     31      -0.2733      2.00000
     32      -0.2123      2.00000
     33      -0.1433      2.00000
     34      -0.1423      2.00000
     35      -0.0144      2.00000
     36       0.0271      2.00000
     37       1.1697      2.00000
     38       1.3683      2.00000
     39       1.3944      2.00000
     40       1.4504      2.00000
     41       1.4526      2.00000
     42       1.4970      2.00000
     43       1.5149      2.00000
     44       1.5482      2.00000
     45       1.7421      2.00000
     46       1.8198      2.00000
     47       1.9731      2.00000
     48       2.2247      2.00000
     49       2.3994      2.00000
     50       2.6124      2.00000
     51       2.6557      2.00000
     52       2.9142      2.00000
     53       3.0667      2.00000
     54       3.1163      2.00000
     55       3.2861      2.00000
     56       3.5804      2.00000
     57       6.2779     -0.00000
     58       6.3819     -0.00000
     59       7.3479      0.00000
     60       7.5244      0.00000
     61       8.3057      0.00000
     62       8.3283      0.00000
     63       9.1049      0.00000
     64       9.3647      0.00000
     65       9.7156      0.00000
     66       9.9469      0.00000
     67      10.5250      0.00000
     68      10.9900      0.00000
     69      11.4271      0.00000
     70      11.5683      0.00000
     71      12.0150      0.00000
     72      12.2846      0.00000
     73      12.4323      0.00000
     74      12.4770      0.00000
     75      13.0350      0.00000
     76      13.1543      0.00000
     77      14.1439      0.00000
     78      14.4381      0.00000
     79      15.1689      0.00000
     80      15.8736      0.00000


--------------------------------------------------------------------------------------------------------


 soft charge-density along one line, spin component           1
         0         1         2         3         4         5         6         7         8         9
 total charge-density along one line
 
 pseudopotential strength for first ion, spin component:           1
-65.427   0.002   0.006   7.364   0.000  -0.002   0.002   0.007
  0.002 -65.396  -0.005   0.000   7.354   0.001  -0.001  -0.023
  0.006  -0.005 -65.387  -0.002   0.001   7.351  -0.036  -0.001
  7.364   0.000  -0.002   6.110   0.000   0.000   0.002  -0.003
  0.000   7.354   0.001   0.000   6.113  -0.000   0.000   0.007
 -0.002   0.001   7.351   0.000  -0.000   6.113   0.008   0.000
  0.002  -0.001  -0.036   0.002   0.000   0.008  -2.983  -0.003
  0.007  -0.023  -0.001  -0.003   0.007   0.000  -0.003  -2.988
  0.022   0.042   0.009  -0.005  -0.008  -0.002  -0.003   0.008
 -0.001  -0.017   0.007   0.000   0.004  -0.003   0.004   0.007
  0.025   0.000  -0.034  -0.007  -0.000   0.007  -0.000   0.007
  0.002  -0.001  -0.035   0.002   0.000   0.008  -3.629  -0.003
  0.007  -0.023  -0.001  -0.003   0.007   0.000  -0.003  -3.634
  0.021   0.042   0.009  -0.005  -0.008  -0.002  -0.003   0.008
 -0.001  -0.016   0.007   0.000   0.004  -0.003   0.004   0.007
  0.024   0.000  -0.033  -0.007  -0.000   0.006  -0.000   0.007
  0.007  -0.005   0.004  -0.001   0.001  -0.001  -0.001   0.000
  0.015  -0.010   0.009  -0.002   0.001  -0.002  -0.003   0.001
 total augmentation occupancy for first ion, spin component:           1
  2.000  -0.000   0.000  -0.003  -0.000   0.000   0.007  -0.005   0.001  -0.001  -0.004  -0.007   0.005  -0.001   0.001   0.004
 -0.000   2.000  -0.000  -0.000  -0.003   0.000  -0.001   0.005   0.004   0.001  -0.000   0.001  -0.005  -0.005  -0.001   0.000
  0.000  -0.000   2.000   0.000   0.000  -0.003  -0.000  -0.000  -0.001  -0.005  -0.004   0.001   0.000   0.001   0.005   0.005
 -0.003  -0.000   0.000   0.095   0.006  -0.004  -0.336   0.234  -0.074   0.013   0.017   0.283  -0.198   0.058  -0.008  -0.011
 -0.000  -0.003   0.000   0.006   0.103   0.001   0.021  -0.049  -0.445   0.014   0.011  -0.014   0.038   0.377  -0.010  -0.009
  0.000   0.000  -0.003  -0.004   0.001   0.099   0.096  -0.001  -0.013   0.237   0.354  -0.075   0.000   0.010  -0.203  -0.297
  0.007  -0.001  -0.000  -0.336   0.021   0.096   4.020  -0.802   0.097   0.210   0.145  -1.748   0.752  -0.088  -0.176  -0.140
 -0.005   0.005  -0.000   0.234  -0.049  -0.001  -0.802   3.520   0.292   0.163   0.297   0.752  -1.278  -0.215  -0.119  -0.206
  0.001   0.004  -0.001  -0.074  -0.445  -0.013   0.097   0.292   4.694  -0.038  -0.118  -0.088  -0.216  -2.403   0.032   0.087
 -0.001   0.001  -0.005   0.013   0.014   0.237   0.210   0.163  -0.038   3.641   0.799  -0.176  -0.119   0.032  -1.359  -0.760
 -0.004  -0.000  -0.004   0.017   0.011   0.354   0.145   0.297  -0.118   0.799   3.992  -0.140  -0.206   0.087  -0.760  -1.740
 -0.007   0.001   0.001   0.283  -0.014  -0.075  -1.748   0.752  -0.088  -0.176  -0.140   1.454  -0.704   0.079   0.148   0.134
  0.005  -0.005   0.000  -0.198   0.038   0.000   0.752  -1.278  -0.216  -0.119  -0.206  -0.704   1.013   0.154   0.084   0.133
 -0.001  -0.005   0.001   0.058   0.377   0.010  -0.088  -0.215  -2.403   0.032   0.087   0.079   0.154   2.086  -0.027  -0.063
  0.001  -0.001   0.005  -0.008  -0.010  -0.203  -0.176  -0.119   0.032  -1.359  -0.760   0.148   0.084  -0.027   1.063   0.722
  0.004   0.000   0.005  -0.011  -0.009  -0.297  -0.140  -0.206   0.087  -0.760  -1.740   0.134   0.133  -0.063   0.722   1.460
 -0.024   0.016  -0.013  -0.019   0.011  -0.006   0.071  -0.095  -0.022  -0.002   0.025  -0.056   0.083   0.034   0.003   0.005
  0.011  -0.008   0.006   0.001  -0.000  -0.000  -0.007   0.003  -0.005   0.004  -0.019   0.004  -0.005  -0.002  -0.001   0.003


------------------------ aborting loop because EDIFF is reached ----------------------------------------


    FORLOC:  cpu time    0.01: real time    0.00
    FORHF :  cpu time  495.52: real time  495.43
    FORNL :  cpu time    0.39: real time    0.39
    FORCOR:  cpu time    2.08: real time    2.07

 VOLUME and BASIS-vectors are now :
 -----------------------------------------------------------------------------
  energy-cutoff  :      400.00
  volume of cell :      221.90
      direct lattice vectors                 reciprocal lattice vectors
     3.224796000 -5.643830000  0.031572000     0.154525165 -0.088592321  0.053460880
     3.224796000  5.643830000  0.031572000     0.154525165  0.088592321  0.053460880
    -2.101946000  0.000000000  6.075537000    -0.001606004  0.000000000  0.164038877

  length of vectors
     6.500240234  6.500240234  6.428866683     0.185969598  0.185969598  0.164046738


 FORCES acting on ions:
    Electron-Ion                     Ewald-Force                    Non-Local-Force
 -----------------------------------------------------------------------------------------------
   -.132E+02 -.965E+02 0.110E+02   0.120E+02 0.942E+02 -.937E+01   0.100E+01 0.204E+01 -.141E+01
   -.146E+02 0.975E+02 0.114E+02   0.134E+02 -.951E+02 -.977E+01   0.103E+01 -.211E+01 -.140E+01
   0.242E+02 -.176E+02 0.384E+01   -.210E+02 0.175E+02 -.259E+01   -.278E+01 0.142E+00 -.109E+01
   0.254E+02 0.171E+02 0.446E+01   -.221E+02 -.169E+02 -.319E+01   -.284E+01 -.170E+00 -.111E+01
   -.109E+02 -.317E+02 -.111E+02   0.102E+02 0.304E+02 0.100E+02   0.680E+00 0.135E+01 0.112E+01
   -.113E+02 0.320E+02 -.109E+02   0.106E+02 -.307E+02 0.980E+01   0.715E+00 -.140E+01 0.111E+01
   -.135E+03 -.998E+01 -.492E+02   0.132E+03 0.100E+02 0.484E+02   0.279E+01 -.273E-01 0.735E+00
   0.709E+02 -.127E+03 0.971E+02   -.692E+02 0.124E+03 -.950E+02   -.160E+01 0.237E+01 -.187E+01
   0.666E+02 -.133E+03 -.497E+02   -.651E+02 0.130E+03 0.487E+02   -.135E+01 0.217E+01 0.860E+00
   0.703E+02 0.126E+03 0.962E+02   -.686E+02 -.123E+03 -.942E+02   -.156E+01 -.230E+01 -.187E+01
   -.135E+03 0.101E+02 -.492E+02   0.132E+03 -.101E+02 0.483E+02   0.279E+01 0.809E-02 0.729E+00
   0.665E+02 0.133E+03 -.498E+02   -.650E+02 -.130E+03 0.488E+02   -.134E+01 -.220E+01 0.873E+00
 -----------------------------------------------------------------------------------------------
   0.271E+01 0.124E+00 0.377E+01   0.000E+00 0.000E+00 -.639E-13   -.246E+01 -.114E+00 -.332E+01
 
 
 POSITION                                       TOTAL-FORCE (eV/Angst)
 -----------------------------------------------------------------------------------
      2.13385     -2.80652      0.74958        -0.006060     -0.005313      0.001845
      1.08288      2.80652      3.78735        -0.003322      0.001631     -0.000023
      5.40423     -0.97432      0.77721         0.006745      0.000828      0.002227
      4.35326      0.97432      3.81498         0.002335      0.000372      0.000487
      1.02081     -0.97328      3.66185         0.008569     -0.003320      0.012847
      2.07178      0.97328      0.62409         0.032869     -0.061022     -0.010439
      2.15090      4.69667      3.05304         0.002904      0.001642      0.000126
      1.11712     -0.90627      5.98625        -0.057328      0.086965      0.005798
      2.14287     -2.74882      3.03886        -0.001146     -0.001232     -0.007943
      2.16313      0.89759      2.94844        -0.000046      0.007525      0.001185
      1.09993     -4.69667      6.09081         0.007767     -0.013597     -0.003734
      1.09189      2.74882      6.07662         0.006713     -0.014478     -0.002376
 -----------------------------------------------------------------------------------
    total drift:                               -0.058876     -0.001268     -0.054095


--------------------------------------------------------------------------------------------------------



  FREE ENERGIE OF THE ION-ELECTRON SYSTEM (eV)
  ---------------------------------------------------
  free  energy   TOTEN  =       -69.59523617 eV

  energy  without entropy=      -69.59577418  energy(sigma->0) =      -69.59541551
 


--------------------------------------------------------------------------------------------------------


    POTLOK:  cpu time    2.11: real time    2.11


--------------------------------------------------------------------------------------------------------


 writing wavefunctions
     LOOP+:  cpu time 5913.00: real time 5911.43
    4ORBIT:  cpu time    0.00: real time    0.00

 total amount of memory used by VASP on root node   155705. kBytes
========================================================================

   base      :      30000. kBytes
   nonl-proj :      74517. kBytes
   fftplans  :        702. kBytes
   grid      :       2400. kBytes
   one-center:        186. kBytes
   HF        :        194. kBytes
   nonlr-proj:       5130. kBytes
   wavefun   :      42576. kBytes
 
  
  
 General timing and accounting informations for this job:
 ========================================================
  
                  Total CPU time used (sec):     5949.753
                            User time (sec):     5946.770
                          System time (sec):        2.984
                         Elapsed time (sec):     5949.143
  
                   Maximum memory used (kb):      297004.
                   Average memory used (kb):           0.
  
                          Minor page faults:        78491
                          Major page faults:            1
                 Voluntary context switches:         3805
