   12   12    1    1
  0.1849176E+02  0.6500240E-09  0.6500240E-09  0.6428867E-09  0.5000000E-15
  1.000000000000000E-004
  CAR 
 CGS                                     
  112   42   80
 
  0.0000000E+00  0.0000000E+00  0.0000000E+00  0.1250000E-01
   1      -68.646233
   2      -68.642952
   3      -68.634004
   4      -68.632671
   5      -68.614341
   6      -68.614119
   7      -68.596869
   8      -68.593805
   9      -68.578149
  10      -68.576899
  11      -68.561414
  12      -68.560051
  13      -12.720430
  14      -11.130278
  15      -10.915264
  16      -10.602902
  17      -10.254109
  18      -10.235458
  19       -5.984900
  20       -4.982862
  21       -2.761522
  22       -2.207907
  23       -2.071171
  24       -1.922991
  25       -1.577062
  26       -0.983774
  27       -0.947983
  28       -0.683816
  29       -0.405211
  30       -0.274296
  31       -0.262619
  32       -0.231744
  33       -0.191508
  34       -0.152114
  35       -0.039716
  36        0.028917
  37        1.349376
  38        1.363535
  39        1.413684
  40        1.457307
  41        1.471780
  42        1.473965
  43        1.520388
  44        1.533199
  45        1.573986
  46        1.711564
  47        1.894868
  48        1.929966
  49        2.058001
  50        2.650020
  51        2.729779
  52        3.088476
  53        3.214114
  54        4.004770
  55        4.038551
  56        4.173294
  57        5.537889
  58        6.360660
  59        7.630439
  60        7.985954
  61        8.616803
  62        8.792892
  63        9.572121
  64        9.739492
  65        9.815795
  66       10.417272
  67       10.580953
  68       10.692124
  69       10.715961
  70       11.284198
  71       11.711278
  72       12.388939
  73       12.451934
  74       12.729991
  75       13.320060
  76       13.382297
  77       13.832568
  78       13.884869
  79       14.148232
  80       14.183823
 
  0.2500000E+00  0.7372575E-17  0.1387779E-16  0.2500000E-01
   1      -68.646187
   2      -68.642926
   3      -68.633963
   4      -68.632647
   5      -68.614218
   6      -68.614037
   7      -68.596897
   8      -68.593798
   9      -68.578093
  10      -68.576833
  11      -68.561377
  12      -68.560018
  13      -12.595413
  14      -11.128511
  15      -10.980253
  16      -10.676210
  17      -10.368780
  18      -10.278634
  19       -5.933266
  20       -4.772532
  21       -2.646340
  22       -2.252819
  23       -2.084962
  24       -1.687689
  25       -1.347984
  26       -0.999002
  27       -0.766387
  28       -0.621152
  29       -0.553468
  30       -0.434522
  31       -0.363635
  32       -0.241117
  33       -0.194785
  34       -0.164793
  35       -0.049859
  36        0.036235
  37        1.279639
  38        1.335786
  39        1.354670
  40        1.392311
  41        1.426298
  42        1.472137
  43        1.497856
  44        1.531086
  45        1.725059
  46        1.859297
  47        2.057459
  48        2.094601
  49        2.232867
  50        2.413538
  51        2.555220
  52        2.825324
  53        2.944811
  54        3.244372
  55        3.662036
  56        4.039850
  57        6.171023
  58        6.907000
  59        8.136883
  60        8.268860
  61        8.594195
  62        9.013791
  63        9.243613
  64        9.532512
  65        9.864576
  66       10.375887
  67       10.631474
  68       10.813648
  69       10.939017
  70       11.188835
  71       11.656157
  72       11.770265
  73       12.116678
  74       12.443961
  75       12.616469
  76       13.008927
  77       13.508104
  78       13.874867
  79       14.212649
  80       14.710947
 
  0.5000000E+00  0.1474515E-16  0.2775558E-16  0.1250000E-01
   1      -68.646072
   2      -68.642754
   3      -68.633906
   4      -68.632546
   5      -68.614206
   6      -68.613984
   7      -68.596810
   8      -68.593733
   9      -68.578087
  10      -68.576772
  11      -68.561208
  12      -68.559903
  13      -12.435975
  14      -11.249916
  15      -10.954679
  16      -10.764385
  17      -10.429172
  18      -10.359693
  19       -5.871010
  20       -4.547678
  21       -2.493432
  22       -2.246632
  23       -1.942027
  24       -1.463410
  25       -1.227449
  26       -1.102803
  27       -0.900071
  28       -0.863850
  29       -0.595001
  30       -0.536196
  31       -0.276610
  32       -0.206908
  33       -0.199867
  34       -0.144130
  35       -0.033445
  36        0.077883
  37        1.254111
  38        1.326759
  39        1.347658
  40        1.397328
  41        1.470706
  42        1.478613
  43        1.500409
  44        1.554369
  45        1.751818
  46        1.791166
  47        1.967999
  48        2.146744
  49        2.320146
  50        2.361952
  51        2.553987
  52        2.672482
  53        2.938667
  54        3.081318
  55        3.250429
  56        3.859515
  57        6.386411
  58        7.096813
  59        7.980355
  60        8.202731
  61        8.522101
  62        8.821633
  63        9.327521
  64        9.886787
  65       10.010629
  66       10.518953
  67       10.691725
  68       10.794804
  69       11.142176
  70       11.410664
  71       11.610139
  72       11.773191
  73       11.942005
  74       12.501193
  75       12.779859
  76       13.000866
  77       13.395908
  78       13.541649
  79       13.937779
  80       14.267262
 
  0.7372575E-17  0.2500000E+00  0.1387779E-16  0.2500000E-01
   1      -68.646210
   2      -68.642905
   3      -68.633978
   4      -68.632632
   5      -68.614212
   6      -68.614041
   7      -68.596870
   8      -68.593826
   9      -68.578078
  10      -68.576848
  11      -68.561378
  12      -68.560017
  13      -12.595369
  14      -11.129214
  15      -10.980606
  16      -10.673885
  17      -10.370205
  18      -10.278525
  19       -5.933437
  20       -4.772407
  21       -2.646532
  22       -2.249576
  23       -2.088166
  24       -1.688799
  25       -1.344163
  26       -0.998473
  27       -0.768318
  28       -0.625185
  29       -0.551555
  30       -0.439070
  31       -0.359980
  32       -0.240151
  33       -0.195487
  34       -0.168078
  35       -0.047929
  36        0.039774
  37        1.279253
  38        1.336083
  39        1.354504
  40        1.391990
  41        1.426728
  42        1.472163
  43        1.498313
  44        1.530032
  45        1.724900
  46        1.860572
  47        2.056473
  48        2.095335
  49        2.231763
  50        2.414547
  51        2.554261
  52        2.824281
  53        2.946748
  54        3.242815
  55        3.662671
  56        4.040813
  57        6.169857
  58        6.907673
  59        8.137548
  60        8.268192
  61        8.592773
  62        9.015174
  63        9.242016
  64        9.531644
  65        9.864921
  66       10.375718
  67       10.634230
  68       10.815462
  69       10.938600
  70       11.189070
  71       11.655599
  72       11.770186
  73       12.117272
  74       12.441372
  75       12.616937
  76       13.008305
  77       13.521072
  78       13.899262
  79       14.272982
  80       14.827221
 
  0.2500000E+00  0.2500000E+00  0.0000000E+00  0.2500000E-01
   1      -68.646210
   2      -68.642928
   3      -68.633874
   4      -68.632522
   5      -68.614355
   6      -68.614168
   7      -68.596774
   8      -68.593698
   9      -68.578210
  10      -68.576964
  11      -68.561398
  12      -68.560033
  13      -12.439748
  14      -11.192482
  15      -10.941375
  16      -10.876301
  17      -10.391180
  18      -10.353724
  19       -5.876245
  20       -4.520921
  21       -2.418118
  22       -2.244960
  23       -1.790492
  24       -1.680451
  25       -1.357364
  26       -1.297985
  27       -1.078865
  28       -0.681946
  29       -0.528757
  30       -0.297940
  31       -0.281556
  32       -0.224861
  33       -0.186562
  34       -0.129309
  35       -0.090403
  36        0.079106
  37        1.292945
  38        1.311103
  39        1.415365
  40        1.426438
  41        1.463637
  42        1.482353
  43        1.495378
  44        1.569959
  45        1.671267
  46        1.881698
  47        1.940346
  48        2.134705
  49        2.279573
  50        2.319679
  51        2.559965
  52        2.651562
  53        2.904070
  54        2.944252
  55        3.698580
  56        3.831745
  57        6.171695
  58        6.990717
  59        8.003609
  60        8.327366
  61        8.435338
  62        8.572800
  63        9.146799
  64        9.248526
  65       10.361128
  66       10.495301
  67       10.921083
  68       11.186207
  69       11.329138
  70       11.557353
  71       11.812005
  72       11.962379
  73       12.315153
  74       12.501941
  75       12.713003
  76       12.915308
  77       13.338403
  78       13.445843
  79       14.253173
  80       14.365272
 
  0.5000000E+00  0.2500000E+00 -0.2775558E-16  0.2500000E-01
   1      -68.645958
   2      -68.642729
   3      -68.633937
   4      -68.632609
   5      -68.614120
   6      -68.613958
   7      -68.596819
   8      -68.593760
   9      -68.577989
  10      -68.576779
  11      -68.561229
  12      -68.559910
  13      -12.439975
  14      -11.355680
  15      -10.935983
  16      -10.736434
  17      -10.393332
  18      -10.271355
  19       -5.947796
  20       -4.641868
  21       -2.392064
  22       -2.225047
  23       -2.058051
  24       -1.639789
  25       -1.364758
  26       -1.278711
  27       -1.020778
  28       -0.511362
  29       -0.483767
  30       -0.329372
  31       -0.283580
  32       -0.211436
  33       -0.151301
  34       -0.137485
  35       -0.012947
  36        0.109978
  37        1.245960
  38        1.314999
  39        1.382319
  40        1.437509
  41        1.461321
  42        1.492022
  43        1.497469
  44        1.550139
  45        1.749593
  46        1.828040
  47        1.921631
  48        2.133483
  49        2.221481
  50        2.384672
  51        2.560507
  52        2.793472
  53        2.978101
  54        3.313561
  55        3.604270
  56        3.746980
  57        6.088658
  58        6.939491
  59        7.612249
  60        8.068783
  61        8.409886
  62        8.617720
  63        8.983717
  64        9.152320
  65       10.087142
  66       10.335576
  67       10.732491
  68       11.107627
  69       11.459701
  70       11.595769
  71       11.796881
  72       12.082591
  73       12.479047
  74       12.919343
  75       13.036189
  76       13.821335
  77       14.192279
  78       14.655840
  79       15.426360
  80       15.638776
 
 -0.2500000E+00  0.2500000E+00  0.0000000E+00  0.2500000E-01
   1      -68.646200
   2      -68.642916
   3      -68.633945
   4      -68.632610
   5      -68.614152
   6      -68.613971
   7      -68.596868
   8      -68.593795
   9      -68.578038
  10      -68.576785
  11      -68.561379
  12      -68.560019
  13      -12.598217
  14      -11.253244
  15      -10.989269
  16      -10.567738
  17      -10.371078
  18      -10.180585
  19       -6.010122
  20       -4.894128
  21       -2.647970
  22       -2.312909
  23       -1.972363
  24       -1.647062
  25       -1.493219
  26       -1.186451
  27       -0.788733
  28       -0.581680
  29       -0.441999
  30       -0.333997
  31       -0.294754
  32       -0.235226
  33       -0.172808
  34       -0.132952
  35       -0.012098
  36        0.070439
  37        1.259327
  38        1.320999
  39        1.364043
  40        1.423713
  41        1.430942
  42        1.475799
  43        1.503567
  44        1.542793
  45        1.724261
  46        1.812383
  47        1.996664
  48        2.072673
  49        2.417045
  50        2.463382
  51        2.529290
  52        2.869943
  53        3.141818
  54        3.228537
  55        3.784827
  56        4.071127
  57        5.979685
  58        6.690223
  59        7.534004
  60        8.222867
  61        8.616676
  62        8.913735
  63        9.307806
  64        9.432586
  65        9.804348
  66       10.270488
  67       10.543283
  68       10.827818
  69       10.971461
  70       11.380250
  71       11.469985
  72       11.733171
  73       12.100132
  74       12.664520
  75       12.940974
  76       13.107804
  77       13.350685
  78       13.521078
  79       14.478118
  80       14.755573
 
  0.1474515E-16  0.5000000E+00  0.2775558E-16  0.1250000E-01
   1      -68.646036
   2      -68.642787
   3      -68.633911
   4      -68.632542
   5      -68.614155
   6      -68.614032
   7      -68.596803
   8      -68.593739
   9      -68.578028
  10      -68.576832
  11      -68.561265
  12      -68.559851
  13      -12.435836
  14      -11.251617
  15      -10.954894
  16      -10.760073
  17      -10.433410
  18      -10.357991
  19       -5.871346
  20       -4.547435
  21       -2.494375
  22       -2.242018
  23       -1.945849
  24       -1.462386
  25       -1.226692
  26       -1.098120
  27       -0.903007
  28       -0.863061
  29       -0.602714
  30       -0.541923
  31       -0.274047
  32       -0.204820
  33       -0.198104
  34       -0.148907
  35       -0.028064
  36        0.081449
  37        1.254685
  38        1.329019
  39        1.345257
  40        1.395396
  41        1.470932
  42        1.480143
  43        1.499643
  44        1.552808
  45        1.751677
  46        1.791477
  47        1.969431
  48        2.146683
  49        2.320703
  50        2.364622
  51        2.554872
  52        2.670437
  53        2.936956
  54        3.076935
  55        3.250634
  56        3.863193
  57        6.384410
  58        7.098034
  59        7.980777
  60        8.206682
  61        8.516587
  62        8.820433
  63        9.328192
  64        9.888367
  65       10.011692
  66       10.518206
  67       10.691496
  68       10.793117
  69       11.141645
  70       11.410997
  71       11.608582
  72       11.773815
  73       11.944604
  74       12.506804
  75       12.820111
  76       13.028411
  77       13.523360
  78       13.663148
  79       14.552498
  80       15.254227
 
  0.2500000E+00  0.5000000E+00 -0.2775558E-16  0.2500000E-01
   1      -68.645978
   2      -68.642720
   3      -68.633890
   4      -68.632617
   5      -68.614089
   6      -68.614005
   7      -68.596828
   8      -68.593769
   9      -68.577957
  10      -68.576808
  11      -68.561261
  12      -68.559876
  13      -12.439904
  14      -11.356196
  15      -10.936024
  16      -10.735596
  17      -10.392531
  18      -10.272514
  19       -5.947943
  20       -4.641765
  21       -2.392573
  22       -2.224144
  23       -2.057698
  24       -1.640089
  25       -1.359027
  26       -1.283764
  27       -1.022351
  28       -0.514369
  29       -0.480797
  30       -0.327551
  31       -0.284079
  32       -0.214120
  33       -0.152896
  34       -0.139047
  35       -0.010508
  36        0.113196
  37        1.246312
  38        1.314304
  39        1.383639
  40        1.436527
  41        1.461846
  42        1.492084
  43        1.496940
  44        1.549367
  45        1.749169
  46        1.828307
  47        1.922172
  48        2.132812
  49        2.220818
  50        2.386248
  51        2.562651
  52        2.789486
  53        2.978546
  54        3.312318
  55        3.604354
  56        3.749718
  57        6.087530
  58        6.940045
  59        7.611804
  60        8.068427
  61        8.411449
  62        8.615290
  63        8.983525
  64        9.152892
  65       10.088936
  66       10.334258
  67       10.734032
  68       11.107541
  69       11.456113
  70       11.576406
  71       11.784868
  72       12.032457
  73       12.521820
  74       12.683352
  75       12.912780
  76       13.210845
  77       14.233101
  78       14.774242
  79       15.249290
  80       15.902391
 
  0.5000000E+00  0.5000000E+00  0.0000000E+00  0.1250000E-01
   1      -68.645813
   2      -68.642540
   3      -68.633744
   4      -68.632416
   5      -68.613950
   6      -68.613922
   7      -68.596611
   8      -68.593582
   9      -68.577919
  10      -68.576664
  11      -68.561043
  12      -68.559691
  13      -12.431629
  14      -11.503394
  15      -10.911189
  16      -10.615327
  17      -10.402174
  18      -10.199655
  19       -6.026293
  20       -4.810026
  21       -2.311645
  22       -2.263431
  23       -2.096439
  24       -1.700687
  25       -1.247329
  26       -1.109309
  27       -0.840135
  28       -0.782072
  29       -0.722711
  30       -0.244027
  31       -0.201634
  32       -0.184878
  33       -0.149274
  34       -0.040325
  35       -0.005436
  36        0.184182
  37        1.266689
  38        1.317050
  39        1.375008
  40        1.414041
  41        1.433544
  42        1.490965
  43        1.509200
  44        1.549031
  45        1.786976
  46        1.845969
  47        1.997023
  48        2.151615
  49        2.254061
  50        2.336325
  51        2.557765
  52        2.765897
  53        2.773781
  54        3.370675
  55        3.763359
  56        4.008504
  57        5.855129
  58        6.766111
  59        7.084287
  60        8.412011
  61        8.561047
  62        8.770291
  63        9.141822
  64        9.240389
  65        9.959275
  66       10.283742
  67       10.724468
  68       10.825343
  69       10.877906
  70       11.275298
  71       11.756132
  72       11.909279
  73       11.975251
  74       12.367568
  75       12.538535
  76       13.464076
  77       14.278713
  78       14.682138
  79       16.748112
  80       16.751835
 
 -0.2168404E-18 -0.2168404E-18  0.2000000E+00  0.2500000E-01
   1      -68.646236
   2      -68.642951
   3      -68.633972
   4      -68.632640
   5      -68.614262
   6      -68.614050
   7      -68.596892
   8      -68.593819
   9      -68.578122
  10      -68.576872
  11      -68.561416
  12      -68.560053
  13      -12.617216
  14      -11.424964
  15      -10.777846
  16      -10.607992
  17      -10.253037
  18      -10.237291
  19       -5.831163
  20       -5.046359
  21       -2.601200
  22       -2.371134
  23       -1.961942
  24       -1.775807
  25       -1.444790
  26       -1.124563
  27       -1.062624
  28       -0.773734
  29       -0.470951
  30       -0.294046
  31       -0.238929
  32       -0.231047
  33       -0.191036
  34       -0.146725
  35       -0.017942
  36        0.023209
  37        1.332688
  38        1.382433
  39        1.415672
  40        1.439512
  41        1.465196
  42        1.466740
  43        1.514855
  44        1.546255
  45        1.632108
  46        1.758754
  47        1.788209
  48        1.953558
  49        2.087790
  50        2.660456
  51        2.718493
  52        3.192936
  53        3.249492
  54        3.521061
  55        3.893105
  56        3.976356
  57        6.046153
  58        6.419068
  59        7.824004
  60        7.908384
  61        8.365596
  62        8.819376
  63        9.776974
  64        9.793920
  65       10.062505
  66       10.586678
  67       10.642336
  68       10.814801
  69       10.853793
  70       11.494523
  71       11.557860
  72       12.026595
  73       12.578960
  74       12.774617
  75       12.911438
  76       13.205195
  77       13.534942
  78       13.824004
  79       14.197588
  80       14.707946
 
  0.2500000E+00  0.1517883E-17  0.2000000E+00  0.2500000E-01
   1      -68.646171
   2      -68.642891
   3      -68.633958
   4      -68.632626
   5      -68.614277
   6      -68.614114
   7      -68.596847
   8      -68.593781
   9      -68.578125
  10      -68.576890
  11      -68.561357
  12      -68.559985
  13      -12.458131
  14      -11.466119
  15      -10.863532
  16      -10.689767
  17      -10.374595
  18      -10.246914
  19       -5.766597
  20       -4.803777
  21       -2.444976
  22       -2.232907
  23       -1.848150
  24       -1.712093
  25       -1.436910
  26       -1.188395
  27       -0.888368
  28       -0.745504
  29       -0.608456
  30       -0.522273
  31       -0.309700
  32       -0.242183
  33       -0.172121
  34       -0.123001
  35       -0.056022
  36        0.059932
  37        1.302351
  38        1.336837
  39        1.369110
  40        1.430877
  41        1.446439
  42        1.478841
  43        1.521509
  44        1.547017
  45        1.643237
  46        1.872330
  47        1.978013
  48        2.048936
  49        2.196245
  50        2.475764
  51        2.594135
  52        2.839804
  53        2.963613
  54        3.131468
  55        3.566265
  56        3.723742
  57        6.441963
  58        6.957999
  59        8.171717
  60        8.246080
  61        8.834794
  62        9.128746
  63        9.465615
  64        9.796446
  65       10.084724
  66       10.297454
  67       10.740903
  68       11.077596
  69       11.290734
  70       11.425055
  71       11.632900
  72       11.722925
  73       12.086278
  74       12.266165
  75       12.543825
  76       12.658039
  77       12.953141
  78       13.060289
  79       13.638947
  80       14.690520
 
  0.5000000E+00  0.9107298E-17  0.2000000E+00  0.2500000E-01
   1      -68.645990
   2      -68.642721
   3      -68.633857
   4      -68.632567
   5      -68.614129
   6      -68.613990
   7      -68.596747
   8      -68.593704
   9      -68.578007
  10      -68.576809
  11      -68.561264
  12      -68.559935
  13      -12.355703
  14      -11.412828
  15      -10.952568
  16      -10.685097
  17      -10.480188
  18      -10.334925
  19       -5.751966
  20       -4.721656
  21       -2.521655
  22       -2.185545
  23       -1.950869
  24       -1.535588
  25       -1.299980
  26       -1.100880
  27       -0.871379
  28       -0.751204
  29       -0.547703
  30       -0.443696
  31       -0.292964
  32       -0.179298
  33       -0.145051
  34       -0.105193
  35       -0.048575
  36        0.020342
  37        1.271306
  38        1.298635
  39        1.351828
  40        1.429171
  41        1.452988
  42        1.479689
  43        1.501267
  44        1.589037
  45        1.718777
  46        1.930356
  47        2.076663
  48        2.145318
  49        2.266802
  50        2.402920
  51        2.568322
  52        2.597014
  53        2.901262
  54        3.011991
  55        3.359722
  56        3.898764
  57        6.365805
  58        6.896606
  59        7.575134
  60        8.083706
  61        8.549510
  62        8.798305
  63        9.278655
  64        9.628942
  65        9.930466
  66       10.274664
  67       10.659815
  68       10.928648
  69       10.973432
  70       11.279720
  71       11.520951
  72       11.786300
  73       12.246853
  74       12.544326
  75       13.094431
  76       13.514778
  77       14.293073
  78       14.549190
  79       15.129988
  80       16.264400
 
 -0.2500000E+00 -0.4098284E-16  0.2000000E+00  0.2500000E-01
   1      -68.646232
   2      -68.642942
   3      -68.633947
   4      -68.632617
   5      -68.614266
   6      -68.614062
   7      -68.596879
   8      -68.593802
   9      -68.578142
  10      -68.576887
  11      -68.561403
  12      -68.560052
  13      -12.540814
  14      -11.337026
  15      -10.872499
  16      -10.606221
  17      -10.401869
  18      -10.282835
  19       -5.824880
  20       -4.974128
  21       -2.665587
  22       -2.452524
  23       -2.039097
  24       -1.575482
  25       -1.172314
  26       -0.982795
  27       -0.792115
  28       -0.659631
  29       -0.513047
  30       -0.389142
  31       -0.266015
  32       -0.252950
  33       -0.192939
  34       -0.143201
  35       -0.048529
  36        0.010379
  37        1.290177
  38        1.312412
  39        1.388587
  40        1.408943
  41        1.433901
  42        1.455643
  43        1.491915
  44        1.564164
  45        1.686540
  46        1.916340
  47        1.986249
  48        2.144882
  49        2.335955
  50        2.565439
  51        2.617177
  52        2.828934
  53        2.970297
  54        3.248630
  55        3.684823
  56        3.944456
  57        6.178958
  58        6.639386
  59        7.766389
  60        7.972951
  61        8.216351
  62        8.563105
  63        9.379444
  64        9.577272
  65        9.906624
  66       10.250023
  67       10.542910
  68       10.787590
  69       10.839853
  70       11.067180
  71       11.566098
  72       12.021083
  73       12.530520
  74       12.750267
  75       12.953839
  76       13.309801
  77       13.413773
  78       13.742583
  79       13.849765
  80       14.725670
 
  0.1517883E-17  0.2500000E+00  0.2000000E+00  0.2500000E-01
   1      -68.646173
   2      -68.642888
   3      -68.633958
   4      -68.632626
   5      -68.614286
   6      -68.614106
   7      -68.596854
   8      -68.593773
   9      -68.578135
  10      -68.576880
  11      -68.561345
  12      -68.559997
  13      -12.458009
  14      -11.466719
  15      -10.864668
  16      -10.686786
  17      -10.375469
  18      -10.247392
  19       -5.766977
  20       -4.803479
  21       -2.445127
  22       -2.231931
  23       -1.850375
  24       -1.712554
  25       -1.431509
  26       -1.187119
  27       -0.890235
  28       -0.752028
  29       -0.607122
  30       -0.519256
  31       -0.312292
  32       -0.246348
  33       -0.172284
  34       -0.120809
  35       -0.054571
  36        0.062897
  37        1.302283
  38        1.335458
  39        1.370460
  40        1.432485
  41        1.445713
  42        1.479253
  43        1.520591
  44        1.546481
  45        1.642236
  46        1.872684
  47        1.980245
  48        2.048446
  49        2.195369
  50        2.476365
  51        2.593177
  52        2.838150
  53        2.964049
  54        3.130408
  55        3.568641
  56        3.724155
  57        6.440869
  58        6.958914
  59        8.171344
  60        8.245982
  61        8.833710
  62        9.129103
  63        9.465950
  64        9.795584
  65       10.083050
  66       10.299603
  67       10.742928
  68       11.077345
  69       11.289356
  70       11.423889
  71       11.633833
  72       11.723848
  73       12.085733
  74       12.266495
  75       12.541633
  76       12.657165
  77       12.956322
  78       13.060332
  79       13.655394
  80       14.694948
 
  0.2500000E+00  0.2500000E+00  0.2000000E+00  0.2500000E-01
   1      -68.646081
   2      -68.642799
   3      -68.633817
   4      -68.632465
   5      -68.614127
   6      -68.613949
   7      -68.596726
   8      -68.593653
   9      -68.578009
  10      -68.576745
  11      -68.561270
  12      -68.559894
  13      -12.326083
  14      -11.475105
  15      -10.861949
  16      -10.858321
  17      -10.406038
  18      -10.290031
  19       -5.748091
  20       -4.691091
  21       -2.241267
  22       -2.137481
  23       -1.927084
  24       -1.849580
  25       -1.455597
  26       -1.396098
  27       -1.038247
  28       -0.520676
  29       -0.459209
  30       -0.347316
  31       -0.254129
  32       -0.217932
  33       -0.162773
  34       -0.113130
  35       -0.087570
  36        0.079828
  37        1.261667
  38        1.347202
  39        1.398140
  40        1.435458
  41        1.452910
  42        1.509808
  43        1.534888
  44        1.543768
  45        1.752768
  46        1.819729
  47        2.041131
  48        2.132872
  49        2.283800
  50        2.310492
  51        2.520654
  52        2.767789
  53        2.902032
  54        3.263354
  55        3.496108
  56        3.801078
  57        6.183010
  58        6.841730
  59        7.826716
  60        8.046775
  61        8.189597
  62        8.728096
  63        9.153889
  64        9.305316
  65       10.221255
  66       10.441649
  67       10.590767
  68       11.005248
  69       11.240061
  70       11.488143
  71       11.814319
  72       12.171080
  73       12.205912
  74       12.574872
  75       12.690445
  76       13.113025
  77       13.415795
  78       13.879435
  79       14.006026
  80       14.526148
 
  0.5000000E+00  0.2500000E+00  0.2000000E+00  0.2500000E-01
   1      -68.645930
   2      -68.642682
   3      -68.633873
   4      -68.632635
   5      -68.614087
   6      -68.614036
   7      -68.596789
   8      -68.593727
   9      -68.577969
  10      -68.576838
  11      -68.561195
  12      -68.559904
  13      -12.372674
  14      -11.474150
  15      -10.936481
  16      -10.651467
  17      -10.423813
  18      -10.303982
  19       -5.800825
  20       -4.835892
  21       -2.525759
  22       -2.245516
  23       -1.871146
  24       -1.642210
  25       -1.506745
  26       -1.306988
  27       -0.899588
  28       -0.529845
  29       -0.379729
  30       -0.349090
  31       -0.223332
  32       -0.181141
  33       -0.157706
  34       -0.078014
  35       -0.029372
  36        0.078963
  37        1.190248
  38        1.363558
  39        1.396999
  40        1.443243
  41        1.463308
  42        1.506680
  43        1.518662
  44        1.584691
  45        1.739652
  46        1.817126
  47        2.037105
  48        2.234799
  49        2.268423
  50        2.363769
  51        2.485230
  52        2.673462
  53        3.053149
  54        3.411765
  55        3.729683
  56        3.865391
  57        5.931765
  58        6.613834
  59        7.353588
  60        7.943864
  61        8.067298
  62        8.724006
  63        8.907368
  64        9.137651
  65        9.845193
  66       10.326865
  67       10.553940
  68       10.925803
  69       11.224701
  70       11.414015
  71       11.748742
  72       12.000935
  73       12.497409
  74       12.830664
  75       13.207768
  76       14.180992
  77       14.715727
  78       15.145640
  79       15.917710
  80       16.565945
 
 -0.2500000E+00  0.2500000E+00  0.2000000E+00  0.2500000E-01
   1      -68.646136
   2      -68.642893
   3      -68.634000
   4      -68.632672
   5      -68.614198