 vasp.5.3.3 18Dez12 (build Nov 13 2015 09:58:40) complex                        
  
 executed on             LinuxIFC date 2017.10.18  13:03:59
 running on   48 total cores
 distrk:  each k-point on   16 cores,    3 groups
 distr:  one band on NCORES_PER_BAND=   1 cores,   16 groups


--------------------------------------------------------------------------------------------------------


 INCAR:
 POTCAR:    PAW_PBE Cu_pv 06Sep2000               
 POTCAR:    PAW_PBE Ge 05Jan2001                  
 POTCAR:    PAW_PBE S 17Jan2003                   

 ----------------------------------------------------------------------------- 
|                                                                             |
|           W    W    AA    RRRRR   N    N  II  N    N   GGGG   !!!           |
|           W    W   A  A   R    R  NN   N  II  NN   N  G    G  !!!           |
|           W    W  A    A  R    R  N N  N  II  N N  N  G       !!!           |
|           W WW W  AAAAAA  RRRRR   N  N N  II  N  N N  G  GGG   !            |
|           WW  WW  A    A  R   R   N   NN  II  N   NN  G    G                |
|           W    W  A    A  R    R  N    N  II  N    N   GGGG   !!!           |
|                                                                             |
|      For optimal performance we recommend that you set                      |
|        NPAR = 4 - approx SQRT( number of cores)                             |
|      (number of cores/NPAR must be integer)                                 |
|      This setting will greatly improve the performance of VASP for DFT.     |
|      The default NPAR=number of cores might be grossly inefficient          |
|      on modern multi-core architectures or massively parallel machines.     |
|      Do your own testing.                                                   |
|      Unfortunately you need to use the default for hybrid, GW and RPA       |
|      calculations.                                                          |
|                                                                             |
 ----------------------------------------------------------------------------- 


 ----------------------------------------------------------------------------- 
|                                                                             |
|           W    W    AA    RRRRR   N    N  II  N    N   GGGG   !!!           |
|           W    W   A  A   R    R  NN   N  II  NN   N  G    G  !!!           |
|           W    W  A    A  R    R  N N  N  II  N N  N  G       !!!           |
|           W WW W  AAAAAA  RRRRR   N  N N  II  N  N N  G  GGG   !            |
|           WW  WW  A    A  R   R   N   NN  II  N   NN  G    G                |
|           W    W  A    A  R    R  N    N  II  N    N   GGGG   !!!           |
|                                                                             |
|      You have enabled k-point parallelism (KPAR>1).                         |
|      This developmental code was originally  written by Paul Kent at ORNL,  |
|      and carefully double checked in Vienna.                                |
|      GW as well as linear response parallelism added by Martijn Marsman     |
|      and Georg Kresse.                                                      |
|      Carefully verify results versus KPAR=1.                                |
|      Report problems to Paul Kent and Vienna.                               |
|                                                                             |
 ----------------------------------------------------------------------------- 

 POTCAR:    PAW_PBE Cu_pv 06Sep2000               
   VRHFIN =Cu: d10 p1                                                           
   LEXCH  = PE                                                                  
   EATOM  =  4120.1201 eV,  302.8203 Ry                                         
                                                                                
   TITEL  = PAW_PBE Cu_pv 06Sep2000                                             
   LULTRA =        F    use ultrasoft PP ?                                      
   IUNSCR =        1    unscreen: 0-lin 1-nonlin 2-no                           
   RPACOR =    1.500    partial core radius                                     
   POMASS =   63.546; ZVAL   =   17.000    mass and valenz                      
   RCORE  =    2.000    outmost cutoff radius                                   
   RWIGS  =    2.000; RWIGS  =    1.058    wigner-seitz radius (au A)           
   ENMAX  =  368.648; ENMIN  =  276.486 eV                                      
   RCLOC  =    1.304    cutoff for local pot                                    
   LCOR   =        T    correct aug charges                                     
   LPAW   =        T    paw PP                                                  
   EAUG   =  758.233                                                            
   DEXC   =    0.000                                                            
   RMAX   =    2.046    core radius for proj-oper                               
   RAUG   =    1.300    factor for augmentation sphere                          
   RDEP   =    2.025    radius for radial grids                                 
   RDEPT  =    1.558    core radius for aug-charge                              
                                                                                
   Atomic configuration                                                         
    8 entries                                                                   
     n  l   j            E        occ.                                          
     1  0  0.50     -8850.2467   2.0000                                         
     2  0  0.50     -1062.3498   2.0000                                         
     2  1  1.50      -916.8226   6.0000                                         
     3  0  0.50      -114.6929   2.0000                                         
     3  1  1.50       -72.1325   6.0000                                         
     3  2  2.50        -5.0394  10.0000                                         
     4  0  0.50        -4.6097   1.0000                                         
     4  3  2.50        -1.3606   0.0000                                         
   Description                                                                  
     l       E           TYP  RCUT    TYP  RCUT                                 
     1    -72.1324777     23  1.700                                             
     1     -1.3605826     23  1.700                                             
     2     -5.0393776     23  2.000                                             
     2     -6.3999602     23  2.000                                             
     0     -4.6097062     23  1.800                                             
     0     14.1620818     23  1.800                                             
  local pseudopotential read in
  partial core-charges read in
  partial kinetic energy density read in
  atomic valenz-charges read in
  non local Contribution for L=           1  read in
    real space projection operators read in
  non local Contribution for L=           1  read in
    real space projection operators read in
  non local Contribution for L=           2  read in
    real space projection operators read in
  non local Contribution for L=           2  read in
    real space projection operators read in
  non local Contribution for L=           0  read in
    real space projection operators read in
  non local Contribution for L=           0  read in
    real space projection operators read in
    PAW grid and wavefunctions read in
 
   number of l-projection  operators is LMAX  =           6
   number of lm-projection operators is LMMAX =          18
 
 POTCAR:    PAW_PBE Ge 05Jan2001                  
   VRHFIN =Ge: s2p2                                                             
   LEXCH  = PE                                                                  
   EATOM  =   104.9960 eV,    7.7170 Ry                                         
                                                                                
   TITEL  = PAW_PBE Ge 05Jan2001                                                
   LULTRA =        F    use ultrasoft PP ?                                      
   IUNSCR =        1    unscreen: 0-lin 1-nonlin 2-no                           
   RPACOR =    2.170    partial core radius                                     
   POMASS =   72.610; ZVAL   =    4.000    mass and valenz                      
   RCORE  =    2.300    outmost cutoff radius                                   
   RWIGS  =    2.300; RWIGS  =    1.217    wigner-seitz radius (au A)           
   ENMAX  =  173.807; ENMIN  =  130.355 eV                                      
   ICORE  =        3    local potential                                         
   LCOR   =        T    correct aug charges                                     
   LPAW   =        T    paw PP                                                  
   EAUG   =  385.843                                                            
   DEXC   =    0.000                                                            
   RMAX   =    2.342    core radius for proj-oper                               
   RAUG   =    1.300    factor for augmentation sphere                          
   RDEP   =    2.318    radius for radial grids                                 
   RDEPT  =    2.103    core radius for aug-charge                              
                                                                                
   Atomic configuration                                                         
   10 entries                                                                   
     n  l   j            E        occ.                                          
     1  0  0.50    -10959.8463   2.0000                                         
     2  0  0.50     -1371.6056   2.0000                                         
     2  1  1.50     -1198.4791   6.0000                                         
     3  0  0.50      -168.4733   2.0000                                         
     3  1  1.50      -115.6019   6.0000                                         
     3  2  2.50       -29.3106  10.0000                                         
     4  0  0.50       -11.7309   2.0000                                         
     4  1  0.50        -3.8952   2.0000                                         
     4  2  1.50        -4.0817   0.0000                                         
     4  3  2.50        -4.0817   0.0000                                         
   Description                                                                  
     l       E           TYP  RCUT    TYP  RCUT                                 
     0    -11.7309493     23  2.300                                             
     0     -7.4578696     23  2.300                                             
     1     -3.8952261     23  2.300                                             
     1      6.1178114     23  2.300                                             
     2     -4.0817478     23  2.300                                             
     3     -1.3605826      7  2.300                                             
  local pseudopotential read in
  partial core-charges read in
  partial kinetic energy density read in
  atomic valenz-charges read in
  non local Contribution for L=           0  read in
    real space projection operators read in
  non local Contribution for L=           0  read in
    real space projection operators read in
  non local Contribution for L=           1  read in
    real space projection operators read in
  non local Contribution for L=           1  read in
    real space projection operators read in
  non local Contribution for L=           2  read in
    real space projection operators read in
    PAW grid and wavefunctions read in
 
   number of l-projection  operators is LMAX  =           5
   number of lm-projection operators is LMMAX =          13
 
 POTCAR:    PAW_PBE S 17Jan2003                   
   VRHFIN =S : s2p4                                                             
   LEXCH  = PE                                                                  
   EATOM  =   276.8230 eV,   20.3459 Ry                                         
                                                                                
   TITEL  = PAW_PBE S 17Jan2003                                                 
   LULTRA =        F    use ultrasoft PP ?                                      
   IUNSCR =        1    unscreen: 0-lin 1-nonlin 2-no                           
   RPACOR =    1.500    partial core radius                                     
   POMASS =   32.066; ZVAL   =    6.000    mass and valenz                      
   RCORE  =    1.900    outmost cutoff radius                                   
   RWIGS  =    2.200; RWIGS  =    1.164    wigner-seitz radius (au A)           
   ENMAX  =  280.000; ENMIN  =  194.016 eV                                      
   ICORE  =        2    local potential                                         
   LCOR   =        T    correct aug charges                                     
   LPAW   =        T    paw PP                                                  
   EAUG   =  335.092                                                            
   DEXC   =     .000                                                            
   RMAX   =    2.867    core radius for proj-oper                               
   RAUG   =    1.300    factor for augmentation sphere                          
   RDEP   =    1.954    radius for radial grids                                 
   QCUT   =   -4.360; QGAM   =    8.721    optimization parameters              
                                                                                
   Description                                                                  
     l     E      TYP  RCUT    TYP  RCUT                                        
     0   .000     23  1.900                                                     
     0   .000     23  1.900                                                     
     1   .000     23  1.900                                                     
     1   .000     23  1.900                                                     
     2   .000     23  1.900                                                     
  local pseudopotential read in
  partial core-charges read in
  atomic valenz-charges read in
  non local Contribution for L=           0  read in
    real space projection operators read in
  non local Contribution for L=           0  read in
    real space projection operators read in
  non local Contribution for L=           1  read in
    real space projection operators read in
  non local Contribution for L=           1  read in
    real space projection operators read in
    PAW grid and wavefunctions read in
 
   number of l-projection  operators is LMAX  =           4
   number of lm-projection operators is LMMAX =           8
 
  PAW_PBE Cu_pv 06Sep2000               :
 energy of atom  1       EATOM=-4120.1201
 kinetic energy error for atom=    0.0996 (will be added to EATOM!!)
  PAW_PBE Ge 05Jan2001                  :
 energy of atom  2       EATOM= -104.9960
 kinetic energy error for atom=    0.0003 (will be added to EATOM!!)
  PAW_PBE S 17Jan2003                   :
 energy of atom  3       EATOM= -276.8230
 kinetic energy error for atom=    0.0046 (will be added to EATOM!!)
 
 
 POSCAR: Cu Ge S                                 
  positions in direct lattice
  No initial velocities read in
 exchange correlation table for  LEXCH =        8
   RHO(1)=    0.500       N(1)  =     2000
   RHO(2)=  100.500       N(2)  =     4000
 


--------------------------------------------------------------------------------------------------------


 ion  position               nearest neighbor table
   1  0.618  0.121  0.121-   9 2.28  11 2.30  12 2.30   8 2.35
   2  0.121  0.618  0.620-  12 2.29   7 2.29   9 2.30  10 2.35
   3  0.963  0.790  0.119-  11 2.30  12 2.30   7 2.31   8 2.36
   4  0.790  0.963  0.619-   7 2.30   9 2.30  11 2.31  10 2.36
   5  0.440  0.267  0.599-   7 2.19   9 2.19  10 2.31   8 2.33
   6  0.267  0.440  0.099-  11 2.19  12 2.19   8 2.31  10 2.33
   7  0.079  0.912  0.497-   5 2.19   2 2.29   4 2.30   3 2.31
   8  0.571  0.412  0.980-   6 2.31   5 2.33   1 2.35   3 2.36
   9  0.737  0.250  0.495-   5 2.19   1 2.28   4 2.30   2 2.30
  10  0.412  0.571  0.480-   5 2.31   6 2.33   2 2.35   4 2.36
  11  0.912  0.079  0.997-   6 2.19   3 2.30   1 2.30   4 2.31
  12  0.250  0.737  0.995-   6 2.19   2 2.29   3 2.30   1 2.30
 
  Warning from LATTYP: Got some problem with cell dimensions!
  Tried to take original basis but could not verify dimensions!
  LATTYP: Found a base centered monoclinic cell.
 ALAT       =     6.4499010947
 B/A-ratio  =     1.7500516418
 C/A-ratio  =     1.9305142024
 COS(beta)  =    -0.4326083233
  
  Lattice vectors:
  
 A1 = (   3.2247960000,   5.6438300000,   0.0315720000)
 A2 = (   3.2247960000,  -5.6438300000,   0.0315720000)
 A3 = ( -10.7972380000,   0.0000000000,  -6.2018250000)


Analysis of symmetry for initial positions (statically):
=====================================================================
 Subroutine PRICEL returns:
 Original cell was already a primitive cell.
 

 Routine SETGRP: Setting up the symmetry group for a 
 base centered monoclinic supercell.


 Subroutine GETGRP returns: Found  1 space group operations
 (whereof  1 operations were pure point group operations)
 out of a pool of  4 trial point group operations.


The static configuration has the point symmetry C_1 .


Analysis of symmetry for dynamics (positions and initial velocities):
=====================================================================
 Subroutine PRICEL returns:
 Original cell was already a primitive cell.
 

 Routine SETGRP: Setting up the symmetry group for a 
 base centered monoclinic supercell.


 Subroutine GETGRP returns: Found  1 space group operations
 (whereof  1 operations were pure point group operations)
 out of a pool of  4 trial point group operations.


The dynamic configuration has the point symmetry C_1 .


 irot  :   1
 --------------------------------------------------------------------
 isymop:   1   0   0
           0   1   0
           0   0   1

 gtrans:     0.0000000     0.0000000     0.0000000

 ptrans:     0.0000000     0.0000000     0.0000000
 rotmap:
 (   1->   1)  (   2->   2)  (   3->   3)  (   4->   4)  (   5->   5) 
 (   6->   6)  (   7->   7)  (   8->   8)  (   9->   9)  (  10->  10) 
 (  11->  11)  (  12->  12) 
 
 
 KPOINTS: pymatgen 4.7.6+ generated KPOINTS with g

Automatic generation of k-mesh.
Space group operators:
 irot       det(A)        alpha          n_x          n_y          n_z        tau_x        tau_y        tau_z
    1     1.000000     0.000000     1.000000     0.000000     0.000000     0.000000     0.000000     0.000000
 
 Subroutine IBZKPT returns following result:
 ===========================================
 
 Found     42 irreducible k-points:
 
 Following reciprocal coordinates:
            Coordinates               Weight
  0.000000  0.000000  0.000000      1.000000
  0.250000  0.000000  0.000000      2.000000
  0.500000  0.000000  0.000000      1.000000
  0.000000  0.250000  0.000000      2.000000
  0.250000  0.250000  0.000000      2.000000
  0.500000  0.250000 -0.000000      2.000000
 -0.250000  0.250000  0.000000      2.000000
  0.000000  0.500000  0.000000      1.000000
  0.250000  0.500000 -0.000000      2.000000
  0.500000  0.500000  0.000000      1.000000
 -0.000000 -0.000000  0.200000      2.000000
  0.250000  0.000000  0.200000      2.000000
  0.500000  0.000000  0.200000      2.000000
 -0.250000 -0.000000  0.200000      2.000000
  0.000000  0.250000  0.200000      2.000000
  0.250000  0.250000  0.200000      2.000000
  0.500000  0.250000  0.200000      2.000000
 -0.250000  0.250000  0.200000      2.000000
  0.000000  0.500000  0.200000      2.000000
  0.250000  0.500000  0.200000      2.000000
  0.500000  0.500000  0.200000      2.000000
 -0.250000  0.500000  0.200000      2.000000
 -0.000000 -0.250000  0.200000      2.000000
  0.250000 -0.250000  0.200000      2.000000
  0.500000 -0.250000  0.200000      2.000000
 -0.250000 -0.250000  0.200000      2.000000
 -0.000000 -0.000000  0.400000      2.000000
  0.250000  0.000000  0.400000      2.000000
  0.500000  0.000000  0.400000      2.000000
 -0.250000  0.000000  0.400000      2.000000
  0.000000  0.250000  0.400000      2.000000
  0.250000  0.250000  0.400000      2.000000
  0.500000  0.250000  0.400000      2.000000
 -0.250000  0.250000  0.400000      2.000000
  0.000000  0.500000  0.400000      2.000000
  0.250000  0.500000  0.400000      2.000000
  0.500000  0.500000  0.400000      2.000000
 -0.250000  0.500000  0.400000      2.000000
  0.000000 -0.250000  0.400000      2.000000
  0.250000 -0.250000  0.400000      2.000000
  0.500000 -0.250000  0.400000      2.000000
 -0.250000 -0.250000  0.400000      2.000000
 
 Following cartesian coordinates:
            Coordinates               Weight
  0.000000  0.000000  0.000000      1.000000
  0.038631 -0.022148  0.013365      2.000000
  0.077263 -0.044296  0.026730      1.000000
  0.038631  0.022148  0.013365      2.000000
  0.077263  0.000000  0.026730      2.000000
  0.115894 -0.022148  0.040096      2.000000
  0.000000  0.044296  0.000000      2.000000
  0.077263  0.044296  0.026730      1.000000
  0.115894  0.022148  0.040096      2.000000
  0.154525  0.000000  0.053461      1.000000
 -0.000321  0.000000  0.032808      2.000000
  0.038310 -0.022148  0.046173      2.000000
  0.076941 -0.044296  0.059538      2.000000
 -0.038952  0.022148  0.019443      2.000000
  0.038310  0.022148  0.046173      2.000000
  0.076941  0.000000  0.059538      2.000000
  0.115573 -0.022148  0.072903      2.000000
 -0.000321  0.044296  0.032808      2.000000
  0.076941  0.044296  0.059538      2.000000
  0.115573  0.022148  0.072903      2.000000
  0.154204  0.000000  0.086269      2.000000
  0.038310  0.066444  0.046173      2.000000
 -0.038952 -0.022148  0.019443      2.000000
 -0.000321 -0.044296  0.032808      2.000000
  0.038310 -0.066444  0.046173      2.000000
 -0.077584  0.000000  0.006077      2.000000
 -0.000642  0.000000  0.065616      2.000000
  0.037989 -0.022148  0.078981      2.000000
  0.076620 -0.044296  0.092346      2.000000
 -0.039274  0.022148  0.052250      2.000000
  0.037989  0.022148  0.078981      2.000000
  0.076620  0.000000  0.092346      2.000000
  0.115251 -0.022148  0.105711      2.000000
 -0.000642  0.044296  0.065616      2.000000
  0.076620  0.044296  0.092346      2.000000
  0.115251  0.022148  0.105711      2.000000
  0.153883  0.000000  0.119076      2.000000
  0.037989  0.066444  0.078981      2.000000
 -0.039274 -0.022148  0.052250      2.000000
 -0.000642 -0.044296  0.065616      2.000000
  0.037989 -0.066444  0.078981      2.000000
 -0.077905  0.000000  0.038885      2.000000
 
 
 Subroutine IBZKPT_HF returns following result:
 ==============================================
 
 Found     80 k-points in 1st BZ
 the following     80 k-points will be used (e.g. in the exchange kernel)
 Following reciprocal coordinates:   # in IRBZ
  0.000000  0.000000  0.000000       1 t-inv F
  0.250000  0.000000  0.000000       2 t-inv F
  0.500000  0.000000  0.000000       3 t-inv F
  0.000000  0.250000  0.000000       4 t-inv F
  0.250000  0.250000  0.000000       5 t-inv F
  0.500000  0.250000 -0.000000       6 t-inv F
 -0.250000  0.250000  0.000000       7 t-inv F
  0.000000  0.500000  0.000000       8 t-inv F
  0.250000  0.500000 -0.000000       9 t-inv F
  0.500000  0.500000  0.000000      10 t-inv F
 -0.000000 -0.000000  0.200000      11 t-inv F
  0.250000  0.000000  0.200000      12 t-inv F
  0.500000  0.000000  0.200000      13 t-inv F
 -0.250000 -0.000000  0.200000      14 t-inv F
  0.000000  0.250000  0.200000      15 t-inv F
  0.250000  0.250000  0.200000      16 t-inv F
  0.500000  0.250000  0.200000      17 t-inv F
 -0.250000  0.250000  0.200000      18 t-inv F
  0.000000  0.500000  0.200000      19 t-inv F
  0.250000  0.500000  0.200000      20 t-inv F
  0.500000  0.500000  0.200000      21 t-inv F
 -0.250000  0.500000  0.200000      22 t-inv F
 -0.000000 -0.250000  0.200000      23 t-inv F
  0.250000 -0.250000  0.200000      24 t-inv F
  0.500000 -0.250000  0.200000      25 t-inv F
 -0.250000 -0.250000  0.200000      26 t-inv F
 -0.000000 -0.000000  0.400000      27 t-inv F
  0.250000  0.000000  0.400000      28 t-inv F
  0.500000  0.000000  0.400000      29 t-inv F
 -0.250000  0.000000  0.400000      30 t-inv F
  0.000000  0.250000  0.400000      31 t-inv F
  0.250000  0.250000  0.400000      32 t-inv F
  0.500000  0.250000  0.400000      33 t-inv F
 -0.250000  0.250000  0.400000      34 t-inv F
  0.000000  0.500000  0.400000      35 t-inv F
  0.250000  0.500000  0.400000      36 t-inv F
  0.500000  0.500000  0.400000      37 t-inv F
 -0.250000  0.500000  0.400000      38 t-inv F
  0.000000 -0.250000  0.400000      39 t-inv F
  0.250000 -0.250000  0.400000      40 t-inv F
  0.500000 -0.250000  0.400000      41 t-inv F
 -0.250000 -0.250000  0.400000      42 t-inv F
 -0.250000 -0.000000 -0.000000       2 t-inv T
 -0.000000 -0.250000 -0.000000       4 t-inv T
 -0.250000 -0.250000  0.000000       5 t-inv T
 -0.500000 -0.250000  0.000000       6 t-inv T
  0.250000 -0.250000  0.000000       7 t-inv T
 -0.250000 -0.500000  0.000000       9 t-inv T
  0.000000  0.000000 -0.200000      11 t-inv T
 -0.250000 -0.000000 -0.200000      12 t-inv T
 -0.500000 -0.000000 -0.200000      13 t-inv T
  0.250000  0.000000 -0.200000      14 t-inv T
 -0.000000 -0.250000 -0.200000      15 t-inv T
 -0.250000 -0.250000 -0.200000      16 t-inv T
 -0.500000 -0.250000 -0.200000      17 t-inv T
  0.250000 -0.250000 -0.200000      18 t-inv T
 -0.000000 -0.500000 -0.200000      19 t-inv T
 -0.250000 -0.500000 -0.200000      20 t-inv T
 -0.500000 -0.500000 -0.200000      21 t-inv T
  0.250000 -0.500000 -0.200000      22 t-inv T
  0.000000  0.250000 -0.200000      23 t-inv T
 -0.250000  0.250000 -0.200000      24 t-inv T
 -0.500000  0.250000 -0.200000      25 t-inv T
  0.250000  0.250000 -0.200000      26 t-inv T
  0.000000  0.000000 -0.400000      27 t-inv T
 -0.250000 -0.000000 -0.400000      28 t-inv T
 -0.500000 -0.000000 -0.400000      29 t-inv T
  0.250000 -0.000000 -0.400000      30 t-inv T
 -0.000000 -0.250000 -0.400000      31 t-inv T
 -0.250000 -0.250000 -0.400000      32 t-inv T
 -0.500000 -0.250000 -0.400000      33 t-inv T
  0.250000 -0.250000 -0.400000      34 t-inv T
 -0.000000 -0.500000 -0.400000      35 t-inv T
 -0.250000 -0.500000 -0.400000      36 t-inv T
 -0.500000 -0.500000 -0.400000      37 t-inv T
  0.250000 -0.500000 -0.400000      38 t-inv T
 -0.000000  0.250000 -0.400000      39 t-inv T
 -0.250000  0.250000 -0.400000      40 t-inv T
 -0.500000  0.250000 -0.400000      41 t-inv T
  0.250000  0.250000 -0.400000      42 t-inv T


--------------------------------------------------------------------------------------------------------




 Dimension of arrays:
   k-points           NKPTS =     42   k-points in BZ     NKDIM =     80   number of bands    NBANDS=     80
   number of dos      NEDOS =    301   number of ions     NIONS =     12
   non local maximal  LDIM  =      6   non local SUM 2l+1 LMDIM =     18
   total plane-waves  NPLWV =  32768
   max r-space proj   IRMAX =      1   max aug-charges    IRDMAX=   8224
   dimension x,y,z NGX =    32 NGY =   32 NGZ =   32
   dimension x,y,z NGXF=    64 NGYF=   64 NGZF=   64
   support grid    NGXF=    64 NGYF=   64 NGZF=   64
   ions per type =               4   2   6
 NGX,Y,Z   is equivalent  to a cutoff of   8.18,  8.18,  8.27 a.u.
 NGXF,Y,Z  is equivalent  to a cutoff of  16.37, 16.37, 16.55 a.u.


 I would recommend the setting:
   dimension x,y,z NGX =    32 NGY =   32 NGZ =   31
 SYSTEM =  CGS                                     
 POSCAR =  Cu Ge S                                 

 Startparameter for this run:
   NWRITE =      2    write-flag & timer
   PREC   = normal    normal or accurate (medium, high low for compatibility)
   ISTART =      1    job   : 0-new  1-cont  2-samecut
   ICHARG =      0    charge: 1-file 2-atom 10-const
   ISPIN  =      1    spin polarized calculation?
   LNONCOLLINEAR =      F non collinear calculations
   LSORBIT =      F    spin-orbit coupling
   INIWAV =      1    electr: 0-lowe 1-rand  2-diag
   LASPH  =      F    aspherical Exc in radial PAW
   METAGGA=      F    non-selfconsistent MetaGGA calc.

 Electronic Relaxation 1
   ENCUT  =  400.0 eV  29.40 Ry    5.42 a.u.  10.60 10.60 10.48*2*pi/ulx,y,z
   ENINI  =  400.0     initial cutoff
   ENAUG  =  758.2 eV  augmentation charge cutoff
   NELM   =     60;   NELMIN=  2; NELMDL=  0     # of ELM steps 
   EDIFF  = 0.1E-04   stopping-criterion for ELM
   LREAL  =      F    real-space projection
   NLSPLINE    = F    spline interpolate recip. space projectors
   LCOMPAT=      F    compatible to vasp.4.4
   GGA_COMPAT  = T    GGA compatible to vasp.4.4-vasp.4.6
   LMAXPAW     = -100 max onsite density
   LMAXMIX     =    2 max onsite mixed and CHGCAR
   VOSKOWN=      0    Vosko Wilk Nusair interpolation
   ROPT   =    0.00000   0.00000   0.00000
 Ionic relaxation
   EDIFFG = 0.1E-03   stopping-criterion for IOM
   NSW    =      0    number of steps for IOM
   NBLOCK =      1;   KBLOCK =      1    inner block; outer block 
   IBRION =     -1    ionic relax: 0-MD 1-quasi-New 2-CG
   NFREE  =      0    steps in history (QN), initial steepest desc. (CG)
   ISIF   =      0    stress and relaxation
   IWAVPR =     10    prediction:  0-non 1-charg 2-wave 3-comb
   ISYM   =      3    0-nonsym 1-usesym 2-fastsym
   LCORR  =      T    Harris-Foulkes like correction to forces

   POTIM  = 0.5000    time-step for ionic-motion
   TEIN   =    0.0    initial temperature
   TEBEG  =    0.0;   TEEND  =   0.0 temperature during run
   SMASS  =  -3.00    Nose mass-parameter (am)
   estimated Nose-frequenzy (Omega)   =  0.10E-29 period in steps =****** mass=  -0.966E-27a.u.
   SCALEE = 1.0000    scale energy and forces
   NPACO  =    256;   APACO  = 16.0  distance and # of slots for P.C.
   PSTRESS=    0.0 pullay stress

  Mass of Ions in am
   POMASS =  63.55 72.61 32.07
  Ionic Valenz
   ZVAL   =  17.00  4.00  6.00
  Atomic Wigner-Seitz radii
   RWIGS  =  -1.00 -1.00 -1.00
  virtual crystal weights 
   VCA    =   1.00  1.00  1.00
   NELECT =     112.0000    total number of electrons
   NUPDOWN=      -1.0000    fix difference up-down

 DOS related values:
   EMIN   =  10.00;   EMAX   =-10.00  energy-range for DOS
   EFERMI =   0.00
   ISMEAR =     1;   SIGMA  =   0.10  broadening in eV -4-tet -1-fermi 0-gaus

 Electronic relaxation 2 (details)
   IALGO  =     53    algorithm
   LDIAG  =      T    sub-space diagonalisation (order eigenvalues)
   LSUBROT=      T    optimize rotation matrix (better conditioning)
   TURBO    =      0    0=normal 1=particle mesh
   IRESTART =      0    0=no restart 2=restart with 2 vectors
   NREBOOT  =      0    no. of reboots
   NMIN     =      0    reboot dimension
   EREF     =   0.00    reference energy to select bands
   IMIX   =      4    mixing-type and parameters
     AMIX     =   0.40;   BMIX     =  1.00
     AMIX_MAG =   1.60;   BMIX_MAG =  1.00
     AMIN     =   0.10
     WC   =   100.;   INIMIX=   1;  MIXPRE=   1;  MAXMIX= -45

 Intra band minimization:
   WEIMIN = 0.0000     energy-eigenvalue tresh-hold
   EBREAK =  0.31E-07  absolut break condition
   DEPER  =   0.30     relativ break condition  

   TIME   =   0.40     timestep for ELM

  volume/ion in A,a.u.               =      18.49       124.79
  Fermi-wavevector in a.u.,A,eV,Ry     =   1.303450  2.463163 23.116052  1.698982
  Thomas-Fermi vector in A             =   2.434451
 
 Write flags
   LWAVE  =      T    write WAVECAR
   LCHARG =      T    write CHGCAR
   LVTOT  =      F    write LOCPOT, total local potential
   LVHAR  =      F    write LOCPOT, Hartree potential only
   LELF   =      F    write electronic localiz. function (ELF)
   LORBIT =      0    0 simple, 1 ext, 2 COOP (PROOUT)


 Dipole corrections
   LMONO  =      F    monopole corrections only (constant potential shift)
   LDIPOL =      F    correct potential (dipole corrections)
   IDIPOL =      0    1-x, 2-y, 3-z, 4-all directions 
   EPSILON=  1.0000000 bulk dielectric constant

 Exchange correlation treatment:
   GGA     =    PE    GGA type
   LEXCH   =     8    internal setting for exchange type
   VOSKOWN=      0    Vosko Wilk Nusair interpolation
   EXXOEP  =     0    0=HF, 1=EXX-LHF (local Hartree Fock) 2=EXX OEP
   LHFCALC =     T    Hartree Fock is set to
   LSYMGRAD=     F    symmetrize gradient (conserves proper symmetry)
   PRECFOCK=fast      Normal, Fast or Accurate (Low or Medium for compatibility)
   LRHFCALC=     F    long range Hartree Fock
   LRSCOR  =     F    long range correlation only (use DFT for short range part)
   LTHOMAS =     F    Thomas Fermi screening in HF
   LMODELHF=     F    short range full HF, long range fraction AEXX
   ENCUT4O =  -1.0   cutoff for four orbital integrals eV
   LMAXFOCK=     4    L truncation for augmentation on plane wave grid
   LMAXFOCKAE=  -1    L truncation for all-electron charge restoration on plane wave grid
   NMAXFOCKAE=   1    number of basis functions for all-electron charge restoration
   LFOCKAEDFT=     F  apply the AE augmentation even for DFT
   NKREDX  =     1    reduce k-point grid by
   NKREDY  =     1    reduce k-point grid by
   NKREDZ  =     1    reduce k-point grid by
   SHIFTRED=     F    shift reduced grid of Gamma
   HFKIDENT=     F    idential grid for each k-point
   ODDONLY =     F    use only odd q-grid points
   EVENONLY=     F    use only even q-grid points
   HFALPHA =   -1.0000 decay constant for conv. correction
   MCALPHA =    0.0000 extent of test-charge in conv. correction in multipole expansion
   AEXX    =    0.2500 exact exchange contribution
   HFSCREEN=    0.2000 screening length (either q_TF or 0.3 A-1)
   HFSCREENC=   0.2000 screening length for correlation (either q_TF or 0.3 A-1)
   HFRCUT  =    0.0000 spherical cutoff for potential kernel
   ALDAX   =    0.7500 LDA exchange part
   AGGAX   =    0.7500 GGA exchange part
   ALDAC   =    1.0000 LDA correlation
   AGGAC   =    1.0000 GGA correlation
   NBANDSGWLOW=     1    first orbital included in HF term
 Linear response parameters
   LEPSILON=     F    determine dielectric tensor
   LRPA    =     F    only Hartree local field effects (RPA)
   LNABLA  =     F    use nabla operator in PAW spheres
   LVEL    =     F    velocity operator in full k-point grid
   LINTERFAST=   F  fast interpolation
   KINTER  =     0    interpolate to denser k-point grid
   CSHIFT  =0.1000    complex shift for real part using Kramers Kronig
   OMEGAMAX=  -1.0    maximum frequency
   DEG_THRESHOLD= 0.2000000E-02 threshold for treating states as degnerate
   RTIME   =    0.100 relaxation time in fs

 Orbital magnetization related:
   ORBITALMAG=     F  switch on orbital magnetization
   LCHIMAG   =     F  perturbation theory with respect to B field
   DQ        =  0.001000  dq finite difference perturbation B field



--------------------------------------------------------------------------------------------------------


 Static calculation
 charge density and potential will be updated during run
 non-spin polarized calculation
 Conjugate gradient for all bands, subspace preconditioning
 perform sub-space diagonalisation
    before iterative eigenvector-optimisation
 modified Broyden-mixing scheme, WC =      100.0
 initial mixing is a Kerker type mixing with AMIX =  0.4000 and BMIX =      1.0000
 Hartree-type preconditioning will be used
 using additional bands           24
 reciprocal scheme for non local part
 use partial core corrections
 no Harris-corrections to forces 
 use gradient corrections 
 use of overlap-Matrix (Vanderbilt PP)
 Methfessel and Paxton  Order N= 1 SIGMA  =   0.10


--------------------------------------------------------------------------------------------------------


  energy-cutoff  :      400.00
  volume of cell :      221.90
      direct lattice vectors                 reciprocal lattice vectors
     3.224796000 -5.643830000  0.031572000     0.154525165 -0.088592321  0.053460880
     3.224796000  5.643830000  0.031572000     0.154525165  0.088592321  0.053460880
    -2.101946000  0.000000000  6.075537000    -0.001606004  0.000000000  0.164038877

  length of vectors
     6.500240234  6.500240234  6.428866683     0.185969598  0.185969598  0.164046738


 
 old parameters found on file WAVECAR:
  energy-cutoff  :      400.00
  volume of cell :      222.35
      direct lattice vectors                 reciprocal lattice vectors
     3.227235519 -5.642745207  0.030241751     0.154430495 -0.088609353  0.053450002
     3.227235519  5.642745207  0.030241751     0.154430495  0.088609353  0.053450002
    -2.106135241  0.000000000  6.085154262    -0.001534965  0.000000000  0.163803104

  length of vectors

 
 k-points in units of 2pi/SCALE and weight: pymatgen 4.7.6+ generated KPOINTS with g
   0.00000000  0.00000000  0.00000000       0.013
   0.03863129 -0.02214808  0.01336522       0.025
   0.07726258 -0.04429616  0.02673044       0.013
   0.03863129  0.02214808  0.01336522       0.025
   0.07726258  0.00000000  0.02673044       0.025
   0.11589387 -0.02214808  0.04009566       0.025
   0.00000000  0.04429616  0.00000000       0.025
   0.07726258  0.04429616  0.02673044       0.013
   0.11589387  0.02214808  0.04009566       0.025
   0.15452516  0.00000000  0.05346088       0.013
  -0.00032120  0.00000000  0.03280778       0.025
   0.03831009 -0.02214808  0.04617300       0.025
   0.07694138 -0.04429616  0.05953822       0.025
  -0.03895249  0.02214808  0.01944256       0.025
   0.03831009  0.02214808  0.04617300       0.025
   0.07694138  0.00000000  0.05953822       0.025
   0.11557267 -0.02214808  0.07290344       0.025
  -0.00032120  0.04429616  0.03280778       0.025
   0.07694138  0.04429616  0.05953822       0.025
   0.11557267  0.02214808  0.07290344       0.025
   0.15420396  0.00000000  0.08626865       0.025
   0.03831009  0.06644424  0.04617300       0.025
  -0.03895249 -0.02214808  0.01944256       0.025
  -0.00032120 -0.04429616  0.03280778       0.025
   0.03831009 -0.06644424  0.04617300       0.025
  -0.07758378  0.00000000  0.00607734       0.025
  -0.00064240  0.00000000  0.06561555       0.025
   0.03798889 -0.02214808  0.07898077       0.025
   0.07662018 -0.04429616  0.09234599       0.025
  -0.03927369  0.02214808  0.05225033       0.025
   0.03798889  0.02214808  0.07898077       0.025
   0.07662018  0.00000000  0.09234599       0.025
   0.11525147 -0.02214808  0.10571121       0.025
  -0.00064240  0.04429616  0.06561555       0.025
   0.07662018  0.04429616  0.09234599       0.025
   0.11525147  0.02214808  0.10571121       0.025
   0.15388276  0.00000000  0.11907643       0.025
   0.03798889  0.06644424  0.07898077       0.025
  -0.03927369 -0.02214808  0.05225033       0.025
  -0.00064240 -0.04429616  0.06561555       0.025
   0.03798889 -0.06644424  0.07898077       0.025
  -0.07790498  0.00000000  0.03888511       0.025
 
 k-points in reciprocal lattice and weights: pymatgen 4.7.6+ generated KPOINTS with g
   0.00000000  0.00000000  0.00000000       0.013
   0.25000000  0.00000000  0.00000000       0.025
   0.50000000  0.00000000  0.00000000       0.013
   0.00000000  0.25000000  0.00000000       0.025
   0.25000000  0.25000000  0.00000000       0.025
   0.50000000  0.25000000 -0.00000000       0.025
  -0.25000000  0.25000000  0.00000000       0.025
   0.00000000  0.50000000  0.00000000       0.013
   0.25000000  0.50000000 -0.00000000       0.025
   0.50000000  0.50000000  0.00000000       0.013
  -0.00000000 -0.00000000  0.20000000       0.025
   0.25000000  0.00000000  0.20000000       0.025
   0.50000000  0.00000000  0.20000000       0.025
  -0.25000000 -0.00000000  0.20000000       0.025
   0.00000000  0.25000000  0.20000000       0.025
   0.25000000  0.25000000  0.20000000       0.025
   0.50000000  0.25000000  0.20000000       0.025
  -0.25000000  0.25000000  0.20000000       0.025
   0.00000000  0.50000000  0.20000000       0.025
   0.25000000  0.50000000  0.20000000       0.025
   0.50000000  0.50000000  0.20000000       0.025
  -0.25000000  0.50000000  0.20000000       0.025
  -0.00000000 -0.25000000  0.20000000       0.025
   0.25000000 -0.25000000  0.20000000       0.025
   0.50000000 -0.25000000  0.20000000       0.025
  -0.25000000 -0.25000000  0.20000000       0.025
  -0.00000000 -0.00000000  0.40000000       0.025
   0.25000000  0.00000000  0.40000000       0.025
   0.50000000  0.00000000  0.40000000       0.025
  -0.25000000  0.00000000  0.40000000       0.025
   0.00000000  0.25000000  0.40000000       0.025
   0.25000000  0.25000000  0.40000000       0.025
   0.50000000  0.25000000  0.40000000       0.025
  -0.25000000  0.25000000  0.40000000       0.025
   0.00000000  0.50000000  0.40000000       0.025
   0.25000000  0.50000000  0.40000000       0.025
   0.50000000  0.50000000  0.40000000       0.025
  -0.25000000  0.50000000  0.40000000       0.025
   0.00000000 -0.25000000  0.40000000       0.025
   0.25000000 -0.25000000  0.40000000       0.025
   0.50000000 -0.25000000  0.40000000       0.025
  -0.25000000 -0.25000000  0.40000000       0.025
 
 position of ions in fractional coordinates (direct lattice) 
   0.61844300  0.12117100  0.12108848
   0.12117100  0.61844300  0.61953300
   0.96295700  0.79032200  0.11881300
   0.79032200  0.96295700  0.61881300
   0.43973200  0.26728100  0.59904700
   0.26728100  0.43973200  0.09904700
   0.07949800  0.91167500  0.49736300
   0.57140300  0.41236400  0.98018400
   0.73711100  0.25006200  0.49504900
   0.41236400  0.57140300  0.48018400
   0.91167500  0.07949800  0.99736300
   0.25006200  0.73711100  0.99504900
 
 position of ions in cartesian coordinates  (Angst):
   2.13058281 -2.80651863  0.75902866
   1.08287936  2.80651863  3.78734676
   5.40422860 -0.97432259  0.77720730
   4.35325560  0.97432259  3.81497580
   1.02080825 -0.97328413  3.66185403
   2.07178125  0.97328413  0.62408553
   2.15090056  4.69666552  3.05304062
   1.11215405 -0.89758908  5.98620365
   2.14286528 -2.74882176  3.03885554
   2.16312705  0.89758908  2.94843515
   1.09992756 -4.69666552  6.09080912
   1.09189228  2.74882176  6.07662404
 


--------------------------------------------------------------------------------------------------------


 k-point  1 :   0.0000 0.0000 0.0000  plane waves:    4051
 k-point  2 :   0.2500 0.0000 0.0000  plane waves:    4032
 k-point  3 :   0.5000 0.0000 0.0000  plane waves:    4030
 k-point  4 :   0.0000 0.2500 0.0000  plane waves:    4032
 k-point  5 :   0.2500 0.2500 0.0000  plane waves:    4038
 k-point  6 :   0.5000 0.2500-0.0000  plane waves:    4037
 k-point  7 :  -0.2500 0.2500 0.0000  plane waves:    4042
 k-point  8 :   0.0000 0.5000 0.0000  plane waves:    4030
 k-point  9 :   0.2500 0.5000-0.0000  plane waves:    4037
 k-point 10 :   0.5000 0.5000 0.0000  plane waves:    4026
 k-point 11 :  -0.0000-0.0000 0.2000  plane waves:    4046
 k-point 12 :   0.2500 0.0000 0.2000  plane waves:    4034
 k-point 13 :   0.5000 0.0000 0.2000  plane waves:    4025
 k-point 14 :  -0.2500-0.0000 0.2000  plane waves:    4044
 k-point 15 :   0.0000 0.2500 0.2000  plane waves:    4034
 k-point 16 :   0.2500 0.2500 0.2000  plane waves:    4017
 k-point 17 :   0.5000 0.2500 0.2000  plane waves:    4039
 k-point 18 :  -0.2500 0.2500 0.2000  plane waves:    4042
 k-point 19 :   0.0000 0.5000 0.2000  plane waves:    4025
 k-point 20 :   0.2500 0.5000 0.2000  plane waves:    4039
 k-point 21 :   0.5000 0.5000 0.2000  plane waves:    4030
 k-point 22 :  -0.2500 0.5000 0.2000  plane waves:    4030
 k-point 23 :  -0.0000-0.2500 0.2000  plane waves:    4044
 k-point 24 :   0.2500-0.2500 0.2000  plane waves:    4042
 k-point 25 :   0.5000-0.2500 0.2000  plane waves:    4030
 k-point 26 :  -0.2500-0.2500 0.2000  plane waves:    4020
 k-point 27 :  -0.0000-0.0000 0.4000  plane waves:    4027
 k-point 28 :   0.2500 0.0000 0.4000  plane waves:    4034
 k-point 29 :   0.5000 0.0000 0.4000  plane waves:    4013
 k-point 30 :  -0.2500 0.0000 0.4000  plane waves:    4042
 k-point 31 :   0.0000 0.2500 0.4000  plane waves:    4034
 k-point 32 :   0.2500 0.2500 0.4000  plane waves:    4009
 k-point 33 :   0.5000 0.2500 0.4000  plane waves:    4026
 k-point 34 :  -0.2500 0.2500 0.4000  plane waves:    4027
 k-point 35 :   0.0000 0.5000 0.4000  plane waves:    4013
 k-point 36 :   0.2500 0.5000 0.4000  plane waves:    4026
 k-point 37 :   0.5000 0.5000 0.4000  plane waves:    4037
 k-point 38 :  -0.2500 0.5000 0.4000  plane waves:    4022
 k-point 39 :   0.0000-0.2500 0.4000  plane waves:    4042
 k-point 40 :   0.2500-0.2500 0.4000  plane waves:    4027
 k-point 41 :   0.5000-0.2500 0.4000  plane waves:    4022
 k-point 42 :  -0.2500-0.2500 0.4000  plane waves:    4015

 maximum and minimum number of plane-waves per node :      4051     4009

 maximum number of plane-waves:      4051
 maximum index in each direction: 
   IXMAX=   10   IYMAX=   10   IZMAX=   10
   IXMIN=  -11   IYMIN=  -11   IZMIN=  -10

 WARNING: aliasing errors must be expected set NGX to  44 to avoid them
 WARNING: aliasing errors must be expected set NGY to  44 to avoid them
 WARNING: aliasing errors must be expected set NGZ to  42 to avoid them
 aliasing errors are usually negligible using standard VASP settings
 and one can safely disregard these warnings

 serial   3D FFT for wavefunctions
 parallel 3D FFT for charge:
    minimum data exchange during FFTs selected (reduces bandwidth)


 FFT grid for exact exchange (Hartree Fock) 
  NGX = 24; NGY = 24; NGZ = 24

 
 Radii for the augmentation spheres in the non-local exchange
 for species   1 augmentation radius   1.120 (default was   0.830)
       energy cutoff for augmentation   1600.0
 for species   2 augmentation radius   1.570 (default was   1.163)
       energy cutoff for augmentation   1600.0
 for species   3 augmentation radius   1.034 (default was   0.970)
       energy cutoff for augmentation   1600.0

 total amount of memory used by VASP on root node   151697. kBytes
========================================================================

   base      :      30000. kBytes
   nonl-proj :      74517. kBytes
   fftplans  :        702. kBytes
   grid      :       2400. kBytes
   one-center:        186. kBytes
   HF        :        194. kBytes
   nonlr-proj:       1122. kBytes
   wavefun   :      42576. kBytes
 
 Broyden mixing: mesh for mixing (old mesh)
   NGX = 21   NGY = 21   NGZ = 21
  (NGX  = 64   NGY  = 64   NGZ  = 64)
  gives a total of   9261 points

 charge density for first step will be calculated from the start-wavefunctions


--------------------------------------------------------------------------------------------------------


 Maximum index for augmentation-charges          485 (set IRDMAX)


--------------------------------------------------------------------------------------------------------


 initial charge from wavefunction
 First call to EWALD:  gamma=   0.293
 Maximum number of real-space cells 3x 3x 3
 Maximum number of reciprocal cells 3x 3x 3

 FEWALD executed in parallel
    FEWALD:  cpu time    0.00: real time    0.00


----------------------------------------- Iteration    1(   1)  ---------------------------------------


    POTLOK:  cpu time    0.05: real time    0.05
    SETDIJ:  cpu time    1.89: real time    1.91
 
    SUBROT:  cpu time    0.76: real time    0.76
    SUBROT:  cpu time    0.35: real time    0.35
    SUBROT:  cpu time    0.35: real time    0.35
    --------------------------------------------
    SUBRT+:  cpu time    1.46: real time    1.47

 Broyden mixing:
  rms(total) = 0.27781E-01    rms(broyden)= 0.27765E-01
  rms(prec ) = 0.43900E-01
  weight for this iteration     100.00

 eigenvalues of (default mixing * dielectric matrix)
  average eigenvalue GAMMA=   1.7374
  1.0287  2.4461
 
    TRIAL :  cpu time  237.90: real time  238.63
    CORREC:  cpu time    0.00: real time    0.00
    CHARGE:  cpu time    0.06: real time    0.06
    --------------------------------------------
      LOOP:  cpu time  239.91: real time  240.66

 eigenvalue-minimisations  :     0
 total energy-change (2. order) : 0.7572541E+02  (-0.2136588E+03)
 number of electron     112.0001367 magnetization 
 augmentation part       38.9146726 magnetization 

 Free energy of the ion-electron system (eV)
  ---------------------------------------------------
  alpha Z        PSCENC =       339.31929130
  Ewald energy   TEWEN  =     -9064.48788273
  -1/2 Hartree   DENC   =     -8067.04986992
  -exchange  EXHF       =       327.43828092
  -V(xc)+E(xc)   XCENC  =       369.89270889
  PAW double counting   =     16956.93322273   -17449.67528412
  entropy T*S    EENTRO =        -0.00145768
  eigenvalues    EBANDS =     -1657.62874172
  atomic energy  EATOM  =     18320.98302006
  ---------------------------------------------------
  free energy    TOTEN  =        75.72540870 eV

  energy without entropy =       75.72686638  energy(sigma->0) =       75.72589459


--------------------------------------------------------------------------------------------------------




----------------------------------------- Iteration    1(   2)  ---------------------------------------


    POTLOK:  cpu time    0.05: real time    0.05
    SETDIJ:  cpu time    1.89: real time    1.88
 
    SUBROT:  cpu time    0.72: real time    0.72
    SUBROT:  cpu time    0.37: real time    0.37
    SUBROT:  cpu time    0.35: real time    0.35
    SUBROT:  cpu time    0.38: real time    0.38
    --------------------------------------------
    SUBRT+:  cpu time    1.82: real time    1.85

 Broyden mixing:
  rms(total) = 0.28573E-01    rms(broyden)= 0.28563E-01
  rms(prec ) = 0.51859E-01
  weight for this iteration     100.00

 eigenvalues of (default mixing * dielectric matrix)
  average eigenvalue GAMMA=   1.5280
  2.5341  1.2041  0.8457
 
    TRIAL :  cpu time  247.31: real time  247.17
    CORREC:  cpu time    0.01: real time    0.01
    CHARGE:  cpu time    0.06: real time    0.06
    --------------------------------------------
      LOOP:  cpu time  249.31: real time  249.18

 eigenvalue-minimisations  :     0
 total energy-change (2. order) :-0.8397085E+02  (-0.1471659E+03)
 number of electron     112.0001279 magnetization 
 augmentation part       35.4508775 magnetization 

 Free energy of the ion-electron system (eV)
  ---------------------------------------------------
  alpha Z        PSCENC =       339.31929130
  Ewald energy   TEWEN  =     -9064.48788273
  -1/2 Hartree   DENC   =     -8371.47336477
  -exchange  EXHF       =       338.97539158
  -V(xc)+E(xc)   XCENC  =       377.34331808
  PAW double counting   =     17433.30069408   -17972.58048877
  entropy T*S    EENTRO =        -0.00059741
  eigenvalues    EBANDS =     -1409.62396096
  atomic energy  EATOM  =     18320.98302006
  ---------------------------------------------------
  free energy    TOTEN  =        -8.24543980 eV

  energy without entropy =       -8.24484239  energy(sigma->0) =       -8.24524066


--------------------------------------------------------------------------------------------------------




----------------------------------------- Iteration    1(   3)  ---------------------------------------


    POTLOK:  cpu time    0.05: real time    0.05
    SETDIJ:  cpu time    1.91: real time    1.91
 
    SUBROT:  cpu time    0.72: real time    0.72
    SUBROT:  cpu time    0.34: real time    0.34
    SUBROT:  cpu time    0.33: real time    0.33
    SUBROT:  cpu time    0.35: real time    0.35
    --------------------------------------------
    SUBRT+:  cpu time    1.75: real time    1.76

 Broyden mixing:
  rms(total) = 0.28117E-01    rms(broyden)= 0.28106E-01
  rms(prec ) = 0.52419E-01
  weight for this iteration     100.00

 eigenvalues of (default mixing * dielectric matrix)
  average eigenvalue GAMMA=   1.7746
  1.0114  2.4990  1.8134
 
    TRIAL :  cpu time  241.62: real time  241.67
    CORREC:  cpu time    0.00: real time    0.00
    CHARGE:  cpu time    0.06: real time    0.06
    --------------------------------------------
      LOOP:  cpu time  243.65: real time  243.71

 eigenvalue-minimisations  :     0
 total energy-change (2. order) :-0.6836743E+01  (-0.2046869E+03)
 number of electron     112.0001394 magnetization 
 augmentation part       39.6862655 magnetization 

 Free energy of the ion-electron system (eV)
  ---------------------------------------------------
  alpha Z        PSCENC =       339.31929130
  Ewald energy   TEWEN  =     -9064.48788273
  -1/2 Hartree   DENC   =     -7476.91222615
  -exchange  EXHF       =       324.97085655
  -V(xc)+E(xc)   XCENC  =       357.37451203
  PAW double counting   =     15152.19258670   -15581.60171782
  entropy T*S    EENTRO =         0.00024329
  eigenvalues    EBANDS =     -2386.92002535
  atomic energy  EATOM  =     18320.98302006
  ---------------------------------------------------
  free energy    TOTEN  =       -15.08218282 eV

  energy without entropy =      -15.08242610  energy(sigma->0) =      -15.08226391


--------------------------------------------------------------------------------------------------------




----------------------------------------- Iteration    1(   4)  ---------------------------------------


    POTLOK:  cpu time    0.05: real time    0.05
    SETDIJ:  cpu time    1.89: real time    1.89
 
    SUBROT:  cpu time    0.74: real time    0.75
    SUBROT:  cpu time    0.35: real time    0.35
    SUBROT:  cpu time    0.36: real time    0.36
    SUBROT:  cpu time    0.35: real time    0.35
    SUBROT:  cpu time    0.38: real time    0.38
    --------------------------------------------
    SUBRT+:  cpu time    2.19: real time    2.19

 Broyden mixing:
  rms(total) = 0.13162E+00    rms(broyden)= 0.13140E+00
  rms(prec ) = 0.23102E+00
  weight for this iteration     100.00

 eigenvalues of (default mixing * dielectric matrix)
  average eigenvalue GAMMA=   1.1637
  2.5127  1.1685  0.6084  0.3650
 
    TRIAL :  cpu time  247.53: real time  247.34
    CORREC:  cpu time    0.00: real time    0.00
    CHARGE:  cpu time    0.07: real time    0.07
    --------------------------------------------
      LOOP:  cpu time  249.54: real time  249.35

 eigenvalue-minimisations  :     0
 total energy-change (2. order) :-0.7500783E+01  (-0.1075953E+03)
 number of electron     112.0001321 magnetization 
 augmentation part       37.2359361 magnetization 

 Free energy of the ion-electron system (eV)
  ---------------------------------------------------
  alpha Z        PSCENC =       339.31929130
  Ewald energy   TEWEN  =     -9064.48788273
  -1/2 Hartree   DENC   =     -8543.68560351
  -exchange  EXHF       =       342.99767108
  -V(xc)+E(xc)   XCENC  =       381.66361175
  PAW double counting   =     17634.90068278   -18215.73372641
  entropy T*S    EENTRO =         0.00037211
  eigenvalues    EBANDS =     -1218.54027325
  atomic energy  EATOM  =     18320.98302006
  ---------------------------------------------------
  free energy    TOTEN  =       -22.58296564 eV

  energy without entropy =      -22.58333775  energy(sigma->0) =      -22.58308968


--------------------------------------------------------------------------------------------------------




----------------------------------------- Iteration    1(   5)  ---------------------------------------


    POTLOK:  cpu time    0.05: real time    0.05
    SETDIJ:  cpu time    1.89: real time    1.88
 
    SUBROT:  cpu time    0.74: real time    0.74
    SUBROT:  cpu time    0.38: real time    0.38
    SUBROT:  cpu time    0.36: real time    0.36
    SUBROT:  cpu time    0.35: real time    0.35
    --------------------------------------------
    SUBRT+:  cpu time    1.83: real time    1.84

 Broyden mixing:
  rms(total) = 0.48529E-01    rms(broyden)= 0.48518E-01
  rms(prec ) = 0.97692E-01
  weight for this iteration     100.00

 eigenvalues of (default mixing * dielectric matrix)
  average eigenvalue GAMMA=   1.6702
  2.4626  0.9369  1.6111
 
    TRIAL :  cpu time  246.85: real time  246.64
    CORREC:  cpu time    0.00: real time    0.00
    CHARGE:  cpu time    0.06: real time    0.06
    --------------------------------------------
      LOOP:  cpu time  248.84: real time  248.64

 eigenvalue-minimisations  :     0
 total energy-change (2. order) :-0.3819118E+02  (-0.1512897E+02)
 number of electron     112.0001321 magnetization 
 augmentation part       37.2427692 magnetization 

 Free energy of the ion-electron system (eV)
  ---------------------------------------------------
  alpha Z        PSCENC =       339.31929130
  Ewald energy   TEWEN  =     -9064.48788273
  -1/2 Hartree   DENC   =     -8005.85395887
  -exchange  EXHF       =       336.33440246
  -V(xc)+E(xc)   XCENC  =       368.34760088
  PAW double counting   =     15866.58631773   -16335.91374866
  entropy T*S    EENTRO =         0.00062960
  eigenvalues    EBANDS =     -1886.08956091
  atomic energy  EATOM  =     18320.98302006
  ---------------------------------------------------
  free energy    TOTEN  =       -60.77414663 eV

  energy without entropy =      -60.77477624  energy(sigma->0) =      -60.77435650


--------------------------------------------------------------------------------------------------------




----------------------------------------- Iteration    1(   6)  ---------------------------------------


    POTLOK:  cpu time    0.05: real time    0.05
    SETDIJ:  cpu time    1.91: real time    1.91
 
    SUBROT:  cpu time    0.73: real time    0.73
    SUBROT:  cpu time    0.36: real time    0.36
    SUBROT:  cpu time    0.37: real time    0.37
    SUBROT:  cpu time    0.35: real time    0.35
    --------------------------------------------
    SUBRT+:  cpu time    1.82: real time    1.83

 Broyden mixing:
  rms(total) = 0.28869E-02    rms(broyden)= 0.28862E-02
  rms(prec ) = 0.47216E-02
  weight for this iteration     100.00

 eigenvalues of (default mixing * dielectric matrix)
  average eigenvalue GAMMA=   1.8238
  0.9926  1.9468  2.5319
 
    TRIAL :  cpu time  247.45: real time  247.24
    CORREC:  cpu time    0.00: real time    0.00
    CHARGE:  cpu time    0.08: real time    0.08
    --------------------------------------------
      LOOP:  cpu time  249.50: real time  249.29

 eigenvalue-minimisations  :     0
 total energy-change (2. order) :-0.5128311E+01  (-0.8233615E+01)
 number of electron     112.0001349 magnetization 
 augmentation part       38.2294295 magnetization 

 Free energy of the ion-electron system (eV)
  ---------------------------------------------------
  alpha Z        PSCENC =       339.31929130
  Ewald energy   TEWEN  =     -9064.48788273
  -1/2 Hartree   DENC   =     -7999.85420005
  -exchange  EXHF       =       337.10742209
  -V(xc)+E(xc)   XCENC  =       368.75793159
  PAW double counting   =     15770.03530532   -16239.21534863
  entropy T*S    EENTRO =         0.00063311
  eigenvalues    EBANDS =     -1898.54862644
  atomic energy  EATOM  =     18320.98302006
  ---------------------------------------------------
  free energy    TOTEN  =       -65.90245789 eV

  energy without entropy =      -65.90309099  energy(sigma->0) =      -65.90266892


--------------------------------------------------------------------------------------------------------




----------------------------------------- Iteration    1(   7)  ---------------------------------------


    POTLOK:  cpu time    0.05: real time    0.05
    SETDIJ:  cpu time    1.91: real time    1.91
 
    SUBROT:  cpu time    0.73: real time    0.73
    SUBROT:  cpu time    0.34: real time    0.35
    SUBROT:  cpu time    0.35: real time    0.35
    SUBROT:  cpu time    0.35: real time    0.35
    --------------------------------------------
    SUBRT+:  cpu time    1.77: real time    1.80

 Broyden mixing:
  rms(total) = 0.13342E-01    rms(broyden)= 0.13337E-01
  rms(prec ) = 0.23738E-01
  weight for this iteration     100.00

 eigenvalues of (default mixing * dielectric matrix)
  average eigenvalue GAMMA=   1.6245
  2.5044  0.8880  1.4811
 
    TRIAL :  cpu time  246.59: real time  246.63
    CORREC:  cpu time    0.00: real time    0.00
    CHARGE:  cpu time    0.08: real time    0.08
    --------------------------------------------
      LOOP:  cpu time  248.64: real time  248.68

 eigenvalue-minimisations  :     0
 total energy-change (2. order) :-0.1551423E+01  (-0.4171683E+01)
 number of electron     112.0001333 magnetization 
 augmentation part       37.7028634 magnetization 

 Free energy of the ion-electron system (eV)
  ---------------------------------------------------
  alpha Z        PSCENC =       339.31929130
  Ewald energy   TEWEN  =     -9064.48788273
  -1/2 Hartree   DENC   =     -8243.55963885
  -exchange  EXHF       =       341.61027329
  -V(xc)+E(xc)   XCENC  =       374.56430180
  PAW double counting   =     16209.50558281   -16713.10318836
  entropy T*S    EENTRO =         0.00041894
  eigenvalues    EBANDS =     -1632.28627344
  atomic energy  EATOM  =     18320.98302006
  ---------------------------------------------------
  free energy    TOTEN  =       -67.45388101 eV

  energy without entropy =      -67.45429995  energy(sigma->0) =      -67.45402066


--------------------------------------------------------------------------------------------------------




----------------------------------------- Iteration    1(   8)  ---------------------------------------


    POTLOK:  cpu time    0.05: real time    0.05
    SETDIJ:  cpu time    1.90: real time    1.90
 
    SUBROT:  cpu time    0.73: real time    0.74
    SUBROT:  cpu time    0.35: real time    0.35
    SUBROT:  cpu time    0.37: real time    0.37
    SUBROT:  cpu time    0.36: real time    0.37
    --------------------------------------------
    SUBRT+:  cpu time    1.81: real time    1.84

 Broyden mixing:
  rms(total) = 0.84984E-02    rms(broyden)= 0.84958E-02
  rms(prec ) = 0.14281E-01
  weight for this iteration     100.00

 eigenvalues of (default mixing * dielectric matrix)
  average eigenvalue GAMMA=   1.6742
  2.4564  0.9457  1.6207
 
    TRIAL :  cpu time  247.37: real time  247.59
    CORREC:  cpu time    0.00: real time    0.00
    CHARGE:  cpu time    0.08: real time    0.08
    --------------------------------------------
      LOOP:  cpu time  249.40: real time  249.64

 eigenvalue-minimisations  :     0
 total energy-change (2. order) :-0.1625752E+01  (-0.7787367E+00)
 number of electron     112.0001333 magnetization 
 augmentation part       37.7238791 magnetization 

 Free energy of the ion-electron system (eV)
  ---------------------------------------------------
  alpha Z        PSCENC =       339.31929130
  Ewald energy   TEWEN  =     -9064.48788273
  -1/2 Hartree   DENC   =     -8116.08705411
  -exchange  EXHF       =       339.49983262
  -V(xc)+E(xc)   XCENC  =       371.36297563
  PAW double counting   =     15915.92912381   -16397.27153491
  entropy T*S    EENTRO =         0.00071382
  eigenvalues    EBANDS =     -1778.32782382
  atomic energy  EATOM  =     18320.98302006
  ---------------------------------------------------
  free energy    TOTEN  =       -69.07963322 eV

  energy without entropy =      -69.08034704  energy(sigma->0) =      -69.07987116


--------------------------------------------------------------------------------------------------------




----------------------------------------- Iteration    1(   9)  ---------------------------------------


    POTLOK:  cpu time    0.05: real time    0.05
    SETDIJ:  cpu time    1.89: real time    1.90
 
    SUBROT:  cpu time    1.43: real time    1.43
    SUBROT:  cpu time    0.71: real time    0.71
    SUBROT:  cpu time    0.88: real time    0.88
    SUBROT:  cpu time    0.85: real time    0.85
    --------------------------------------------
    SUBRT+:  cpu time    3.87: real time    3.88

 Broyden mixing:
  rms(total) = 0.52514E-03    rms(broyden)= 0.52451E-03
  rms(prec ) = 0.84008E-03
  weight for this iteration     100.00

 eigenvalues of (default mixing * dielectric matrix)
  average eigenvalue GAMMA=   1.6369
  2.5089  0.9938  1.4081
 
    TRIAL :  cpu time  249.10: real time  249.33
    CORREC:  cpu time    0.00: real time    0.00
    CHARGE:  cpu time    0.08: real time    0.08
    --------------------------------------------
      LOOP:  cpu time  251.13: real time  251.40

 eigenvalue-minimisations  :     0
 total energy-change (2. order) :-0.3143325E+00  (-0.3886563E+00)
 number of electron     112.0001339 magnetization 
 augmentation part       37.9061409 magnetization 

 Free energy of the ion-electron system (eV)
  ---------------------------------------------------
  alpha Z        PSCENC =       339.31929130
  Ewald energy   TEWEN  =     -9064.48788273
  -1/2 Hartree   DENC   =     -8124.38917097
  -exchange  EXHF       =       339.58879732
  -V(xc)+E(xc)   XCENC  =       371.44056199
  PAW double counting   =     15913.26554382   -16394.52773609
  entropy T*S    EENTRO =         0.00084389
  eigenvalues    EBANDS =     -1770.58710424
  atomic energy  EATOM  =     18320.98302006
  ---------------------------------------------------
  free energy    TOTEN  =       -69.39396572 eV

  energy without entropy =      -69.39480961  energy(sigma->0) =      -69.39424702


--------------------------------------------------------------------------------------------------------




----------------------------------------- Iteration    1(  10)  ---------------------------------------


    POTLOK:  cpu time    0.06: real time    0.06
    SETDIJ:  cpu time    1.91: real time    1.91
 
    SUBROT:  cpu time    1.50: real time    1.49
    SUBROT:  cpu time    0.71: real time    0.71
    SUBROT:  cpu time    0.38: real time    0.38
    SUBROT:  cpu time    0.39: real time    0.39
    --------------------------------------------
    SUBRT+:  cpu time    2.98: real time    2.98

 Broyden mixing:
  rms(total) = 0.23219E-02    rms(broyden)= 0.23214E-02
  rms(prec ) = 0.38841E-02
  weight for this iteration     100.00

 eigenvalues of (default mixing * dielectric matrix)
  average eigenvalue GAMMA=   1.6756
  2.4769  0.9870  1.5629
 
    TRIAL :  cpu time  248.63: real time  248.40
    CORREC:  cpu time    0.00: real time    0.00
    CHARGE:  cpu time    0.07: real time    0.07
    --------------------------------------------
      LOOP:  cpu time  250.67: real time  250.46

 eigenvalue-minimisations  :     0
 total energy-change (2. order) :-0.1042751E+00  (-0.1537398E+00)
 number of electron     112.0001336 magnetization 
 augmentation part       37.8181988 magnetization 

 Free energy of the ion-electron system (eV)
  ---------------------------------------------------
  alpha Z        PSCENC =       339.31929130
  Ewald energy   TEWEN  =     -9064.48788273
  -1/2 Hartree   DENC   =     -8172.07822929
  -exchange  EXHF       =       340.40050538
  -V(xc)+E(xc)   XCENC  =       372.54509712
  PAW double counting   =     15995.41534760   -16483.42000977
  entropy T*S    EENTRO =         0.00070151
  eigenvalues    EBANDS =     -1718.17622436
  atomic energy  EATOM  =     18320.98302006
  ---------------------------------------------------
  free energy    TOTEN  =       -69.49824079 eV

  energy without entropy =      -69.49894230  energy(sigma->0) =      -69.49847463


--------------------------------------------------------------------------------------------------------




----------------------------------------- Iteration    1(  11)  ---------------------------------------


    POTLOK:  cpu time    0.05: real time    0.06
    SETDIJ:  cpu time    1.96: real time    1.96
 
    SUBROT:  cpu time    0.78: real time    0.78
    SUBROT:  cpu time    0.37: real time    0.37
    SUBROT:  cpu time    0.38: real time    0.38
    SUBROT:  cpu time    0.37: real time    0.37
    --------------------------------------------
    SUBRT+:  cpu time    1.91: real time    1.93

 Broyden mixing:
  rms(total) = 0.79279E-03    rms(broyden)= 0.79254E-03
  rms(prec ) = 0.15867E-02
  weight for this iteration     100.00

 eigenvalues of (default mixing * dielectric matrix)
  average eigenvalue GAMMA=   1.6766
  2.4936  0.9844  1.5517
 
    TRIAL :  cpu time  247.96: real time  247.76
    CORREC:  cpu time    0.00: real time    0.00
    CHARGE:  cpu time    0.09: real time    0.10
    --------------------------------------------
      LOOP:  cpu time  250.08: real time  249.88

 eigenvalue-minimisations  :     0
 total energy-change (2. order) :-0.7017049E-01  (-0.3692513E-01)
 number of electron     112.0001336 magnetization 
 augmentation part       37.7855979 magnetization 

 Free energy of the ion-electron system (eV)
  ---------------------------------------------------
  alpha Z        PSCENC =       339.31929130
  Ewald energy   TEWEN  =     -9064.48788273
  -1/2 Hartree   DENC   =     -8150.52407111
  -exchange  EXHF       =       340.07019105
  -V(xc)+E(xc)   XCENC  =       372.06755253
  PAW double counting   =     15942.77336697   -16427.69874990
  entropy T*S    EENTRO =         0.00059354
  eigenvalues    EBANDS =     -1742.07183096
  atomic energy  EATOM  =     18320.98302006
  ---------------------------------------------------
  free energy    TOTEN  =       -69.56841128 eV

  energy without entropy =      -69.56900481  energy(sigma->0) =      -69.56860912


--------------------------------------------------------------------------------------------------------




----------------------------------------- Iteration    1(  12)  ---------------------------------------


    POTLOK:  cpu time    0.05: real time    0.06
    SETDIJ:  cpu time    1.89: real time    1.89
 
    SUBROT:  cpu time    0.78: real time    0.78
    SUBROT:  cpu time    0.38: real time    0.38
    SUBROT:  cpu time    0.38: real time    0.38
    SUBROT:  cpu time    0.39: real time    0.39
    --------------------------------------------
    SUBRT+:  cpu time    1.92: real time    1.93

 Broyden mixing:
  rms(total) = 0.21268E-03    rms(broyden)= 0.21258E-03
  rms(prec ) = 0.45890E-03
  weight for this iteration     100.00

 eigenvalues of (default mixing * dielectric matrix)
  average eigenvalue GAMMA=   1.6103
  2.5093  0.9975  1.3241
 
    TRIAL :  cpu time  248.21: real time  247.99
    CORREC:  cpu time    0.00: real time    0.00
    CHARGE:  cpu time    0.09: real time    0.09
    --------------------------------------------
      LOOP:  cpu time  250.25: real time  250.04

 eigenvalue-minimisations  :     0
 total energy-change (2. order) :-0.1236357E-01  (-0.2301544E-01)
 number of electron     112.0001337 magnetization 
 augmentation part       37.8261436 magnetization 

 Free energy of the ion-electron system (eV)
  ---------------------------------------------------
  alpha Z        PSCENC =       339.31929130
  Ewald energy   TEWEN  =     -9064.48788273
  -1/2 Hartree   DENC   =     -8142.19983395
  -exchange  EXHF       =       339.95512004
  -V(xc)+E(xc)   XCENC  =       371.89367644
  PAW double counting   =     15920.83943479   -16404.68536874
  entropy T*S    EENTRO =         0.00054226
  eigenvalues    EBANDS =     -1751.19882559
  atomic energy  EATOM  =     18320.98302006
  ---------------------------------------------------
  free energy    TOTEN  =       -69.58077484 eV

  energy without entropy =      -69.58131710  energy(sigma->0) =      -69.58095560


--------------------------------------------------------------------------------------------------------




----------------------------------------- Iteration    1(  13)  ---------------------------------------


    POTLOK:  cpu time    0.05: real time    0.05
    SETDIJ:  cpu time    1.91: real time    1.91
 
    SUBROT:  cpu time    0.77: real time    0.77
    SUBROT:  cpu time    0.39: real time    0.39
    SUBROT:  cpu time    0.38: real time    0.38
    SUBROT:  cpu time    0.38: real time    0.38
    --------------------------------------------
    SUBRT+:  cpu time    1.92: real time    1.94

 Broyden mixing:
  rms(total) = 0.55904E-03    rms(broyden)= 0.55892E-03
  rms(prec ) = 0.95054E-03
  weight for this iteration     100.00

 eigenvalues of (default mixing * dielectric matrix)
  average eigenvalue GAMMA=   1.6917
  2.4810  0.9961  1.5980
 
    TRIAL :  cpu time  247.93: real time  247.74
    CORREC:  cpu time    0.00: real time    0.00
    CHARGE:  cpu time    0.09: real time    0.09
    --------------------------------------------
      LOOP:  cpu time  249.98: real time  249.80

 eigenvalue-minimisations  :     0
 total energy-change (2. order) :-0.9729828E-02  (-0.5157227E-02)
 number of electron     112.0001337 magnetization 
 augmentation part       37.8299701 magnetization 

 Free energy of the ion-electron system (eV)
  ---------------------------------------------------
  alpha Z        PSCENC =       339.31929130
  Ewald energy   TEWEN  =     -9064.48788273
  -1/2 Hartree   DENC   =     -8152.14570579
  -exchange  EXHF       =       340.12816395
  -V(xc)+E(xc)   XCENC  =       372.12874189
  PAW double counting   =     15936.97959723   -16422.32927211
  entropy T*S    EENTRO =         0.00053005
  eigenvalues    EBANDS =     -1740.16700073
  atomic energy  EATOM  =     18320.98302006
  ---------------------------------------------------
  free energy    TOTEN  =       -69.59050467 eV

  energy without entropy =      -69.59103473  energy(sigma->0) =      -69.59068136


--------------------------------------------------------------------------------------------------------




----------------------------------------- Iteration    1(  14)  ---------------------------------------


    POTLOK:  cpu time    0.05: real time    0.05
    SETDIJ:  cpu time    1.88: real time    1.88
 
    SUBROT:  cpu time    0.78: real time    0.78
    SUBROT:  cpu time    0.38: real time    0.38
    SUBROT:  cpu time    0.39: real time    0.39
    SUBROT:  cpu time    0.39: real time    0.39
    --------------------------------------------
    SUBRT+:  cpu time    1.95: real time    1.99

 Broyden mixing:
  rms(total) = 0.70674E-04    rms(broyden)= 0.70660E-04
  rms(prec ) = 0.14346E-03
  weight for this iteration     100.00

 eigenvalues of (default mixing * dielectric matrix)
  average eigenvalue GAMMA=   1.6170
  2.5215  0.9864  1.3433
 
    TRIAL :  cpu time  247.17: real time  246.99
    CORREC:  cpu time    0.00: real time    0.00
    CHARGE:  cpu time    0.16: real time    0.16
    --------------------------------------------
      LOOP:  cpu time  249.27: real time  249.11

 eigenvalue-minimisations  :     0
 total energy-change (2. order) :-0.2484357E-02  (-0.3813141E-02)
 number of electron     112.0001336 magnetization 
 augmentation part       37.8123392 magnetization 

 Free energy of the ion-electron system (eV)
  ---------------------------------------------------
  alpha Z        PSCENC =       339.31929130
  Ewald energy   TEWEN  =     -9064.48788273
  -1/2 Hartree   DENC   =     -8152.65021126
  -exchange  EXHF       =       340.12557575
  -V(xc)+E(xc)   XCENC  =       372.13753606
  PAW double counting   =     15934.81558250   -16420.32914519
  entropy T*S    EENTRO =         0.00054816
  eigenvalues    EBANDS =     -1739.50728558
  atomic energy  EATOM  =     18320.98302006
  ---------------------------------------------------
  free energy    TOTEN  =       -69.59298903 eV

  energy without entropy =      -69.59353719  energy(sigma->0) =      -69.59317175


--------------------------------------------------------------------------------------------------------




----------------------------------------- Iteration    1(  15)  ---------------------------------------


    POTLOK:  cpu time    0.05: real time    0.05
    SETDIJ:  cpu time    1.96: real time    1.96
 
    SUBROT:  cpu time    0.81: real time    0.81
    SUBROT:  cpu time    0.38: real time    0.38
    SUBROT:  cpu time    0.39: real time    0.39
    SUBROT:  cpu time    0.40: real time    0.40
    --------------------------------------------
    SUBRT+:  cpu time    1.99: real time    2.00

 Broyden mixing:
  rms(total) = 0.19380E-03    rms(broyden)= 0.19374E-03
  rms(prec ) = 0.32966E-03
  weight for this iteration     100.00

 eigenvalues of (default mixing * dielectric matrix)
  average eigenvalue GAMMA=   1.6712
  2.4741  0.9883  1.5511
 
    TRIAL :  cpu time  247.82: real time  247.68
    CORREC:  cpu time    0.00: real time    0.00
    CHARGE:  cpu time    0.15: real time    0.15
    --------------------------------------------
      LOOP:  cpu time  249.99: real time  249.87

 eigenvalue-minimisations  :     0
 total energy-change (2. order) :-0.1523102E-02  (-0.1048742E-02)
 number of electron     112.0001336 magnetization 
 augmentation part       37.8166700 magnetization 

 Free energy of the ion-electron system (eV)
  ---------------------------------------------------
  alpha Z        PSCENC =       339.31929130
  Ewald energy   TEWEN  =     -9064.48788273
  -1/2 Hartree   DENC   =     -8147.91090769
  -exchange  EXHF       =       340.03590894
  -V(xc)+E(xc)   XCENC  =       372.02575798
  PAW double counting   =     15922.69489025   -16407.59698817
  entropy T*S    EENTRO =         0.00056089
  eigenvalues    EBANDS =     -1744.65815023
  atomic energy  EATOM  =     18320.98302006
  ---------------------------------------------------
  free energy    TOTEN  =       -69.59451213 eV

  energy without entropy =      -69.59507302  energy(sigma->0) =      -69.59469909


--------------------------------------------------------------------------------------------------------




----------------------------------------- Iteration    1(  16)  ---------------------------------------


    POTLOK:  cpu time    0.05: real time    0.05
    SETDIJ:  cpu time    1.87: real time    1.87
 
    SUBROT:  cpu time    0.78: real time    0.78
    SUBROT:  cpu time    0.39: real time    0.39
    SUBROT:  cpu time    0.40: real time    0.40
    SUBROT:  cpu time    0.40: real time    0.40
    --------------------------------------------
    SUBRT+:  cpu time    1.98: real time    2.00

 Broyden mixing:
  rms(total) = 0.86176E-04    rms(broyden)= 0.86158E-04
  rms(prec ) = 0.14319E-03
  weight for this iteration     100.00

 eigenvalues of (default mixing * dielectric matrix)
  average eigenvalue GAMMA=   1.6912
  2.4853  0.9900  1.5983
 
    TRIAL :  cpu time  247.84: real time  247.64
    CORREC:  cpu time    0.00: real time    0.00
    CHARGE:  cpu time    0.09: real time    0.09
    --------------------------------------------
      LOOP:  cpu time  249.86: real time  249.67

 eigenvalue-minimisations  :     0
 total energy-change (2. order) :-0.5794047E-03  (-0.4146518E-03)
 number of electron     112.0001337 magnetization 
 augmentation part       37.8215010 magnetization 

 Free energy of the ion-electron system (eV)
  ---------------------------------------------------
  alpha Z        PSCENC =       339.31929130
  Ewald energy   TEWEN  =     -9064.48788273
  -1/2 Hartree   DENC   =     -8149.02895916
  -exchange  EXHF       =       340.05447327
  -V(xc)+E(xc)   XCENC  =       372.05300975
  PAW double counting   =     15923.52009087   -16408.61218394
  entropy T*S    EENTRO =         0.00056136
  eigenvalues    EBANDS =     -1743.39651184
  atomic energy  EATOM  =     18320.98302006
  ---------------------------------------------------
  free energy    TOTEN  =       -69.59509154 eV

[...]
     22      -2.2885      2.00000
     23      -1.9515      2.00000
     24      -1.6191      2.00000
     25      -1.2170      2.00000
     26      -1.0047      2.00000
     27      -0.9748      2.00000
     28      -0.7168      2.00000
     29      -0.5489      2.00000
     30      -0.3879      2.00000
     31      -0.2863      2.00000
     32      -0.2000      2.00000
     33      -0.1786      2.00000
     34      -0.1444      2.00000
     35      -0.0181      2.00000
     36       0.0189      2.00000
     37       1.2963      2.00000
     38       1.3083      2.00000
     39       1.3698      2.00000
     40       1.4112      2.00000
     41       1.4512      2.00000
     42       1.4657      2.00000
     43       1.5062      2.00000
     44       1.5504      2.00000
     45       1.7643      2.00000
     46       1.8946      2.00000
     47       1.9817      2.00000
     48       2.1509      2.00000
     49       2.3723      2.00000
     50       2.5758      2.00000
     51       2.7041      2.00000
     52       2.9095      2.00000
     53       3.0122      2.00000
     54       3.2215      2.00000
     55       3.3992      2.00000
     56       3.6568      2.00000
     57       6.3797     -0.00000
     58       6.5195     -0.00000
     59       7.7173      0.00000
     60       7.9022      0.00000
     61       8.2971      0.00000
     62       8.5738      0.00000
     63       9.3268      0.00000
     64       9.8439      0.00000
     65      10.0208      0.00000
     66      10.3526      0.00000
     67      10.5846      0.00000
     68      10.7890      0.00000
     69      10.9759      0.00000
     70      11.2545      0.00000
     71      11.3064      0.00000
     72      11.7058      0.00000
     73      12.2525      0.00000
     74      12.4645      0.00000
     75      13.0924      0.00000
     76      13.4653      0.00000
     77      13.7960      0.00000
     78      14.6674      0.00000
     79      14.9957      0.00000
     80      15.7268      0.00000

 k-point  40 :       0.2500   -0.2500    0.4000
  band No.  band energies     occupation 
      1     -68.6460      2.00000
      2     -68.6427      2.00000
      3     -68.6339      2.00000
      4     -68.6326      2.00000
      5     -68.6141      2.00000
      6     -68.6140      2.00000
      7     -68.5968      2.00000
      8     -68.5938      2.00000
      9     -68.5780      2.00000
     10     -68.5767      2.00000
     11     -68.5612      2.00000
     12     -68.5599      2.00000
     13     -12.2194      2.00000
     14     -11.8180      2.00000
     15     -10.8229      2.00000
     16     -10.6700      2.00000
     17     -10.3518      2.00000
     18     -10.2777      2.00000
     19      -5.4458      2.00000
     20      -5.1162      2.00000
     21      -2.4288      2.00000
     22      -2.1547      2.00000
     23      -2.0150      2.00000
     24      -1.5245      2.00000
     25      -1.3572      2.00000
     26      -1.1661      2.00000
     27      -0.9363      2.00000
     28      -0.8130      2.00000
     29      -0.5851      2.00000
     30      -0.5359      2.00000
     31      -0.2801      2.00000
     32      -0.2363      2.00000
     33      -0.1365      2.00000
     34      -0.0900      2.00000
     35      -0.0254      2.00000
     36       0.0340      2.00000
     37       1.3126      2.00000
     38       1.3455      2.00000
     39       1.3643      2.00000
     40       1.3977      2.00000
     41       1.4518      2.00000
     42       1.4822      2.00000
     43       1.4992      2.00000
     44       1.5655      2.00000
     45       1.8021      2.00000
     46       1.8469      2.00000
     47       1.9616      2.00000
     48       2.1087      2.00000
     49       2.2960      2.00000
     50       2.5299      2.00000
     51       2.6420      2.00000
     52       2.7683      2.00000
     53       2.9273      2.00000
     54       3.1606      2.00000
     55       3.3019      2.00000
     56       3.5741      2.00000
     57       6.5625     -0.00000
     58       6.7183     -0.00000
     59       7.9649      0.00000
     60       8.0017      0.00000
     61       8.7310      0.00000
     62       9.0929      0.00000
     63       9.4574      0.00000
     64       9.8261      0.00000
     65      10.2986      0.00000
     66      10.3685      0.00000
     67      10.7795      0.00000
     68      10.8474      0.00000
     69      11.1166      0.00000
     70      11.2725      0.00000
     71      11.3700      0.00000
     72      11.6198      0.00000
     73      12.0473      0.00000
     74      12.2959      0.00000
     75      12.6478      0.00000
     76      13.1234      0.00000
     77      13.2890      0.00000
     78      14.2413      0.00000
     79      15.6310      0.00000
     80      15.8311      0.00000

 k-point  41 :       0.5000   -0.2500    0.4000
  band No.  band energies     occupation 
      1     -68.6459      2.00000
      2     -68.6427      2.00000
      3     -68.6337      2.00000
      4     -68.6325      2.00000
      5     -68.6141      2.00000
      6     -68.6140      2.00000
      7     -68.5966      2.00000
      8     -68.5936      2.00000
      9     -68.5780      2.00000
     10     -68.5768      2.00000
     11     -68.5612      2.00000
     12     -68.5598      2.00000
     13     -12.0791      2.00000
     14     -11.7749      2.00000
     15     -10.8450      2.00000
     16     -10.7617      2.00000
     17     -10.5343      2.00000
     18     -10.3160      2.00000
     19      -5.4186      2.00000
     20      -4.9401      2.00000
     21      -2.3986      2.00000
     22      -2.1315      2.00000
     23      -1.8624      2.00000
     24      -1.7215      2.00000
     25      -1.4467      2.00000
     26      -1.1231      2.00000
     27      -0.8860      2.00000
     28      -0.6442      2.00000
     29      -0.6029      2.00000
     30      -0.4500      2.00000
     31      -0.2630      2.00000
     32      -0.1813      2.00000
     33      -0.1210      2.00000
     34      -0.0551      2.00000
     35      -0.0209      2.00000
     36       0.0206      2.00000
     37       1.2624      2.00000
     38       1.3161      2.00000
     39       1.4106      2.00000
     40       1.4367      2.00000
     41       1.4841      2.00000
     42       1.4925      2.00000
     43       1.5152      2.00000
     44       1.5747      2.00000
     45       1.7614      2.00000
     46       1.8428      2.00000
     47       2.1174      2.00000
     48       2.1850      2.00000
     49       2.3660      2.00000
     50       2.4593      2.00000
     51       2.4929      2.00000
     52       2.6947      2.00000
     53       2.8236      2.00000
     54       3.0890      2.00000
     55       3.2902      2.00000
     56       3.5257      2.00000
     57       6.4959     -0.00000
     58       6.5843     -0.00000
     59       7.4534      0.00000
     60       7.7210      0.00000
     61       8.5903      0.00000
     62       8.7468      0.00000
     63       9.2996      0.00000
     64       9.5329      0.00000
     65       9.9515      0.00000
     66      10.1860      0.00000
     67      10.6825      0.00000
     68      11.1146      0.00000
     69      11.2486      0.00000
     70      11.5678      0.00000
     71      11.7050      0.00000
     72      11.8922      0.00000
     73      12.2991      0.00000
     74      12.6582      0.00000
     75      13.0128      0.00000
     76      13.2302      0.00000
     77      13.6683      0.00000
     78      14.0625      0.00000
     79      14.3903      0.00000
     80      16.5200      0.00000

 k-point  42 :      -0.2500   -0.2500    0.4000
  band No.  band energies     occupation 
      1     -68.6461      2.00000
      2     -68.6428      2.00000
      3     -68.6337      2.00000
      4     -68.6324      2.00000
      5     -68.6141      2.00000
      6     -68.6140      2.00000
      7     -68.5966      2.00000
      8     -68.5936      2.00000
      9     -68.5780      2.00000
     10     -68.5768      2.00000
     11     -68.5613      2.00000
     12     -68.5600      2.00000
     13     -12.1782      2.00000
     14     -11.7051      2.00000
     15     -10.7169      2.00000
     16     -10.6945      2.00000
     17     -10.5866      2.00000
     18     -10.3934      2.00000
     19      -5.4456      2.00000
     20      -5.0715      2.00000
     21      -2.5071      2.00000
     22      -2.3798      2.00000
     23      -1.9649      2.00000
     24      -1.3653      2.00000
     25      -1.3305      2.00000
     26      -1.0538      2.00000
     27      -0.8328      2.00000
     28      -0.7681      2.00000
     29      -0.4224      2.00000
     30      -0.3394      2.00000
     31      -0.2701      2.00000
     32      -0.2081      2.00000
     33      -0.1434      2.00000
     34      -0.1383      2.00000
     35      -0.0153      2.00000
     36       0.0269      2.00000
     37       1.1736      2.00000
     38       1.3715      2.00000
     39       1.3973      2.00000
     40       1.4531      2.00000
     41       1.4541      2.00000
     42       1.4996      2.00000
     43       1.5172      2.00000
     44       1.5484      2.00000
     45       1.7440      2.00000
     46       1.8228      2.00000
     47       1.9713      2.00000
     48       2.2256      2.00000
     49       2.3962      2.00000
     50       2.6116      2.00000
     51       2.6574      2.00000
     52       2.9158      2.00000
     53       3.0697      2.00000
     54       3.1166      2.00000
     55       3.2873      2.00000
     56       3.5851      2.00000
     57       6.2911     -0.00000
     58       6.3795     -0.00000
     59       7.3561      0.00000
     60       7.5266      0.00000
     61       8.3093      0.00000
     62       8.3358      0.00000
     63       9.1043      0.00000
     64       9.3595      0.00000
     65       9.7174      0.00000
     66       9.9480      0.00000
     67      10.5231      0.00000
     68      10.9889      0.00000
     69      11.4251      0.00000
     70      11.5629      0.00000
     71      12.0182      0.00000
     72      12.2836      0.00000
     73      12.4313      0.00000
     74      12.4780      0.00000
     75      13.0336      0.00000
     76      13.1485      0.00000
     77      14.1406      0.00000
     78      14.4382      0.00000
     79      15.1646      0.00000
     80      15.8681      0.00000


--------------------------------------------------------------------------------------------------------


 soft charge-density along one line, spin component           1
         0         1         2         3         4         5         6         7         8         9
 total charge-density along one line
 
 pseudopotential strength for first ion, spin component:           1
-65.422   0.002   0.006   7.362  -0.000  -0.003   0.001   0.008
  0.002 -65.393  -0.005  -0.000   7.353   0.002  -0.001  -0.024
  0.006  -0.005 -65.382  -0.003   0.002   7.349  -0.036  -0.001
  7.362  -0.000  -0.003   6.111   0.000   0.001   0.002  -0.004
 -0.000   7.353   0.002   0.000   6.113  -0.000   0.000   0.007
 -0.003   0.002   7.349   0.001  -0.000   6.114   0.008   0.000
  0.001  -0.001  -0.036   0.002   0.000   0.008  -2.977  -0.003
  0.008  -0.024  -0.001  -0.004   0.007   0.000  -0.003  -2.984
  0.022   0.043   0.010  -0.005  -0.008  -0.003  -0.003   0.008
 -0.001  -0.017   0.008   0.000   0.005  -0.004   0.004   0.008
  0.025  -0.000  -0.035  -0.007   0.000   0.007  -0.000   0.007
  0.001  -0.001  -0.036   0.002   0.000   0.008  -3.624  -0.003
  0.008  -0.023  -0.001  -0.004   0.007   0.000  -0.003  -3.630
  0.022   0.043   0.009  -0.005  -0.008  -0.003  -0.003   0.008
 -0.001  -0.017   0.007   0.000   0.004  -0.004   0.004   0.007
  0.025  -0.000  -0.034  -0.007   0.000   0.006  -0.000   0.007
  0.007  -0.005   0.004  -0.001   0.001  -0.001  -0.002   0.000
  0.015  -0.010   0.009  -0.002   0.001  -0.002  -0.003   0.001
 total augmentation occupancy for first ion, spin component:           1
  2.000  -0.000   0.000  -0.003  -0.000   0.000   0.007  -0.005   0.001  -0.001  -0.005  -0.008   0.006  -0.001   0.001   0.004
 -0.000   2.000  -0.000  -0.000  -0.003   0.000  -0.001   0.005   0.004   0.001   0.000   0.001  -0.005  -0.004  -0.001  -0.000
  0.000  -0.000   2.000   0.000   0.000  -0.003  -0.000  -0.000  -0.001  -0.005  -0.004   0.001   0.000   0.001   0.005   0.005
 -0.003  -0.000   0.000   0.094   0.006  -0.005  -0.329   0.231  -0.074   0.011   0.016   0.276  -0.195   0.058  -0.007  -0.011
 -0.000  -0.003   0.000   0.006   0.104   0.002   0.020  -0.048  -0.452   0.016   0.013  -0.013   0.038   0.384  -0.011  -0.011
  0.000   0.000  -0.003  -0.005   0.002   0.099   0.097  -0.003  -0.015   0.237   0.351  -0.076   0.002   0.012  -0.203  -0.295
  0.007  -0.001  -0.000  -0.329   0.020   0.097   3.996  -0.791   0.099   0.216   0.145  -1.721   0.740  -0.090  -0.183  -0.140
 -0.005   0.005  -0.000   0.231  -0.048  -0.003  -0.791   3.514   0.291   0.165   0.294   0.740  -1.273  -0.215  -0.119  -0.203
  0.001   0.004  -0.001  -0.074  -0.452  -0.015   0.099   0.291   4.702  -0.042  -0.121  -0.090  -0.215  -2.417   0.035   0.092
 -0.001   0.001  -0.005   0.011   0.016   0.237   0.216   0.165  -0.042   3.647   0.801  -0.183  -0.119   0.035  -1.367  -0.763
 -0.005   0.000  -0.004   0.016   0.013   0.351   0.145   0.294  -0.121   0.801   3.984  -0.140  -0.203   0.092  -0.763  -1.726
 -0.008   0.001   0.001   0.276  -0.013  -0.076  -1.721   0.740  -0.090  -0.183  -0.140   1.423  -0.691   0.082   0.155   0.134
  0.006  -0.005   0.000  -0.195   0.038   0.002   0.740  -1.273  -0.215  -0.119  -0.203  -0.691   1.010   0.154   0.082   0.130
 -0.001  -0.004   0.001   0.058   0.384   0.012  -0.090  -0.215  -2.417   0.035   0.092   0.082   0.154   2.107  -0.028  -0.069
  0.001  -0.001   0.005  -0.007  -0.011  -0.203  -0.183  -0.119   0.035  -1.367  -0.763   0.155   0.082  -0.028   1.074   0.724
  0.004  -0.000   0.005  -0.011  -0.011  -0.295  -0.140  -0.203   0.092  -0.763  -1.726   0.134   0.130  -0.069   0.724   1.443
 -0.024   0.017  -0.013  -0.019   0.015  -0.007   0.080  -0.105  -0.061  -0.013   0.016  -0.062   0.092   0.066   0.012   0.013
  0.012  -0.008   0.006   0.001  -0.001   0.000  -0.009   0.003   0.000   0.005  -0.018   0.004  -0.005  -0.005  -0.002   0.002


------------------------ aborting loop because EDIFF is reached ----------------------------------------


    FORLOC:  cpu time    0.01: real time    0.01
    FORHF :  cpu time  464.66: real time  464.24
    FORNL :  cpu time    0.40: real time    0.40
    FORCOR:  cpu time    2.11: real time    2.10

 VOLUME and BASIS-vectors are now :
 -----------------------------------------------------------------------------
  energy-cutoff  :      400.00
  volume of cell :      221.90
      direct lattice vectors                 reciprocal lattice vectors
     3.224796000 -5.643830000  0.031572000     0.154525165 -0.088592321  0.053460880
     3.224796000  5.643830000  0.031572000     0.154525165  0.088592321  0.053460880
    -2.101946000  0.000000000  6.075537000    -0.001606004  0.000000000  0.164038877

  length of vectors
     6.500240234  6.500240234  6.428866683     0.185969598  0.185969598  0.164046738


 FORCES acting on ions:
    Electron-Ion                     Ewald-Force                    Non-Local-Force
 -----------------------------------------------------------------------------------------------
   -.154E+02 -.971E+02 0.162E+02   0.141E+02 0.947E+02 -.145E+02   0.107E+01 0.209E+01 -.153E+01
   -.154E+02 0.972E+02 0.994E+01   0.142E+02 -.948E+02 -.834E+01   0.101E+01 -.210E+01 -.142E+01
   0.260E+02 -.169E+02 0.556E+01   -.227E+02 0.168E+02 -.429E+01   -.284E+01 0.157E+00 -.111E+01
   0.260E+02 0.169E+02 0.214E+01   -.228E+02 -.168E+02 -.846E+00   -.284E+01 -.153E+00 -.113E+01
   -.109E+02 -.316E+02 -.117E+02   0.102E+02 0.302E+02 0.106E+02   0.682E+00 0.134E+01 0.113E+01
   -.109E+02 0.315E+02 -.109E+02   0.102E+02 -.302E+02 0.976E+01   0.683E+00 -.135E+01 0.113E+01
   -.135E+03 -.983E+01 -.495E+02   0.132E+03 0.987E+01 0.487E+02   0.279E+01 -.299E-01 0.731E+00
   0.707E+02 -.125E+03 0.965E+02   -.690E+02 0.122E+03 -.944E+02   -.155E+01 0.231E+01 -.188E+01
   0.664E+02 -.133E+03 -.525E+02   -.649E+02 0.130E+03 0.515E+02   -.136E+01 0.218E+01 0.871E+00
   0.703E+02 0.126E+03 0.959E+02   -.686E+02 -.123E+03 -.938E+02   -.156E+01 -.230E+01 -.188E+01
   -.135E+03 0.862E+01 -.487E+02   0.132E+03 -.863E+01 0.479E+02   0.278E+01 0.240E-01 0.738E+00
   0.664E+02 0.133E+03 -.488E+02   -.648E+02 -.130E+03 0.479E+02   -.136E+01 -.217E+01 0.880E+00
 -----------------------------------------------------------------------------------------------
   0.275E+01 0.710E-02 0.388E+01   -.142E-13 0.568E-13 -.426E-13   -.249E+01 -.528E-02 -.346E+01
 
 
 POSITION                                       TOTAL-FORCE (eV/Angst)
 -----------------------------------------------------------------------------------
      2.13058     -2.80652      0.75903         0.012921     -0.005280     -0.052761
      1.08288      2.80652      3.78735        -0.001736      0.000840      0.002059
      5.40423     -0.97432      0.77721         0.001558     -0.000540      0.000771
      4.35326      0.97432      3.81498         0.001595     -0.001545      0.003559
      1.02081     -0.97328      3.66185        -0.003705      0.011644      0.008037
      2.07178      0.97328      0.62409        -0.001736     -0.008352      0.000637
      2.15090      4.69667      3.05304         0.001418      0.000999     -0.001794
      1.11215     -0.89759      5.98620        -0.005468     -0.012676      0.003864
      2.14287     -2.74882      3.03886         0.001744     -0.000492      0.031685
      2.16313      0.89759      2.94844        -0.000503      0.006829      0.000892
      1.09993     -4.69667      6.09081        -0.003589      0.012122      0.004098
      1.09189      2.74882      6.07662        -0.002499     -0.003549     -0.001047
 -----------------------------------------------------------------------------------
    total drift:                               -0.054421      0.002601     -0.066345


--------------------------------------------------------------------------------------------------------



  FREE ENERGIE OF THE ION-ELECTRON SYSTEM (eV)
  ---------------------------------------------------
  free  energy   TOTEN  =       -69.59544449 eV

  energy  without entropy=      -69.59599972  energy(sigma->0) =      -69.59562957
 


--------------------------------------------------------------------------------------------------------


    POTLOK:  cpu time    2.12: real time    2.14


--------------------------------------------------------------------------------------------------------


 writing wavefunctions
     LOOP+:  cpu time 5704.86: real time 5706.65
    4ORBIT:  cpu time    0.00: real time    0.00

 total amount of memory used by VASP on root node   155705. kBytes
========================================================================

   base      :      30000. kBytes
   nonl-proj :      74517. kBytes
   fftplans  :        702. kBytes
   grid      :       2400. kBytes
   one-center:        186. kBytes
   HF        :        194. kBytes
   nonlr-proj:       5130. kBytes
   wavefun   :      42576. kBytes
 
  
  
 General timing and accounting informations for this job:
 ========================================================
  
                  Total CPU time used (sec):     5742.966
                            User time (sec):     5739.050
                          System time (sec):        3.916
                         Elapsed time (sec):     5752.270
  
                   Maximum memory used (kb):      294880.
                   Average memory used (kb):           0.
  
                          Minor page faults:        77959
                          Major page faults:            1
                 Voluntary context switches:         5225
