   12   12    1    1
  0.1849176E+02  0.6500240E-09  0.6500240E-09  0.6428867E-09  0.5000000E-15
  1.000000000000000E-004
  CAR 
 CGS                                     
  112   42   80
 
  0.0000000E+00  0.0000000E+00  0.0000000E+00  0.1250000E-01
   1      -68.647709
   2      -68.645391
   3      -68.633722
   4      -68.633129
   5      -68.615132
   6      -68.613333
   7      -68.598090
   8      -68.595952
   9      -68.577875
  10      -68.577232
  11      -68.560862
  12      -68.560472
  13      -12.722632
  14      -11.129845
  15      -10.920230
  16      -10.603414
  17      -10.249214
  18      -10.232369
  19       -5.984714
  20       -4.984609
  21       -2.762106
  22       -2.212494
  23       -2.070208
  24       -1.920259
  25       -1.575843
  26       -0.983039
  27       -0.954062
  28       -0.683240
  29       -0.402319
  30       -0.276851
  31       -0.260025
  32       -0.236974
  33       -0.190336
  34       -0.153593
  35       -0.038745
  36        0.032966
  37        1.349596
  38        1.362900
  39        1.414937
  40        1.457454
  41        1.471406
  42        1.472929
  43        1.519978
  44        1.532415
  45        1.573840
  46        1.711360
  47        1.891844
  48        1.927704
  49        2.059574
  50        2.651139
  51        2.727966
  52        3.089886
  53        3.217855
  54        4.006059
  55        4.036120
  56        4.171923
  57        5.536546
  58        6.357815
  59        7.629692
  60        7.985067
  61        8.616604
  62        8.792698
  63        9.571129
  64        9.739962
  65        9.814497
  66       10.421068
  67       10.582118
  68       10.696646
  69       10.714562
  70       11.283577
  71       11.711962
  72       12.391702
  73       12.450110
  74       12.725772
  75       13.321547
  76       13.383901
  77       13.832100
  78       13.886535
  79       14.141564
  80       14.178853
 
  0.2500000E+00  0.7372575E-17  0.1387779E-16  0.2500000E-01
   1      -68.647683
   2      -68.645344
   3      -68.633701
   4      -68.633086
   5      -68.615033
   6      -68.613229
   7      -68.598085
   8      -68.595978
   9      -68.577810
  10      -68.577176
  11      -68.560854
  12      -68.560411
  13      -12.597881
  14      -11.125975
  15      -10.987699
  16      -10.676620
  17      -10.363564
  18      -10.275329
  19       -5.933058
  20       -4.774316
  21       -2.647915
  22       -2.253571
  23       -2.086597
  24       -1.689648
  25       -1.344312
  26       -0.999438
  27       -0.770714
  28       -0.619686
  29       -0.551287
  30       -0.438892
  31       -0.358875
  32       -0.243887
  33       -0.192331
  34       -0.168395
  35       -0.046406
  36        0.038132
  37        1.279142
  38        1.336091
  39        1.355158
  40        1.391871
  41        1.426704
  42        1.471420
  43        1.498107
  44        1.530224
  45        1.723850
  46        1.858079
  47        2.056379
  48        2.094555
  49        2.231653
  50        2.414155
  51        2.555860
  52        2.825154
  53        2.946692
  54        3.241736
  55        3.662383
  56        4.039928
  57        6.168733
  58        6.906595
  59        8.135996
  60        8.269619
  61        8.592936
  62        9.012865
  63        9.242710
  64        9.530854
  65        9.866039
  66       10.375740
  67       10.632859
  68       10.814187
  69       10.939853
  70       11.190394
  71       11.653978
  72       11.769340
  73       12.115245
  74       12.444441
  75       12.619887
  76       13.006996
  77       13.505554
  78       13.876454
  79       14.210852
  80       14.709738
 
  0.5000000E+00  0.1474515E-16  0.2775558E-16  0.1250000E-01
   1      -68.647514
   2      -68.645230
   3      -68.633607
   4      -68.633022
   5      -68.615020
   6      -68.613176
   7      -68.598015
   8      -68.595894
   9      -68.577737
  10      -68.577181
  11      -68.560758
  12      -68.560223
  13      -12.438916
  14      -11.248877
  15      -10.960915
  16      -10.764263
  17      -10.423669
  18      -10.356450
  19       -5.870755
  20       -4.549607
  21       -2.497404
  22       -2.246181
  23       -1.944032
  24       -1.463380
  25       -1.227163
  26       -1.104544
  27       -0.899938
  28       -0.861574
  29       -0.601539
  30       -0.531194
  31       -0.276558
  32       -0.204769
  33       -0.200563
  34       -0.146049
  35       -0.027553
  36        0.078185
  37        1.253807
  38        1.328563
  39        1.345993
  40        1.396399
  41        1.470334
  42        1.478734
  43        1.501120
  44        1.553812
  45        1.752366
  46        1.791871
  47        1.968490
  48        2.144394
  49        2.319052
  50        2.362318
  51        2.556791
  52        2.670108
  53        2.933827
  54        3.079685
  55        3.249783
  56        3.861762
  57        6.383699
  58        7.099960
  59        7.981991
  60        8.203433
  61        8.518011
  62        8.821120
  63        9.325382
  64        9.888626
  65       10.010313
  66       10.520502
  67       10.688967
  68       10.791027
  69       11.139897
  70       11.406575
  71       11.610205
  72       11.774753
  73       11.943565
  74       12.502341
  75       12.776139
  76       13.002684
  77       13.399862
  78       13.542056
  79       13.939351
  80       14.270094
 
  0.7372575E-17  0.2500000E+00  0.1387779E-16  0.2500000E-01
   1      -68.647667
   2      -68.645366
   3      -68.633684
   4      -68.633103
   5      -68.615028
   6      -68.613233
   7      -68.598106
   8      -68.595951
   9      -68.577826
  10      -68.577159
  11      -68.560858
  12      -68.560406
  13      -12.597984
  14      -11.127012
  15      -10.985753
  16      -10.676362
  17      -10.364894
  18      -10.275133
  19       -5.932999
  20       -4.774420
  21       -2.647710
  22       -2.254010
  23       -2.086602
  24       -1.689675
  25       -1.342138
  26       -0.999408
  27       -0.767654
  28       -0.622637
  29       -0.558536
  30       -0.439218
  31       -0.356606
  32       -0.242103
  33       -0.191828
  34       -0.168457
  35       -0.046737
  36        0.039594
  37        1.278828
  38        1.335958
  39        1.354372
  40        1.392540
  41        1.426958
  42        1.472045
  43        1.497634
  44        1.530110
  45        1.725001
  46        1.858769
  47        2.057436
  48        2.093216
  49        2.231532
  50        2.413502
  51        2.555223
  52        2.825240
  53        2.947332
  54        3.242994
  55        3.661604
  56        4.038802
  57        6.168738
  58        6.905207
  59        8.136783
  60        8.267636
  61        8.594439
  62        9.012495
  63        9.243890
  64        9.532246
  65        9.866063
  66       10.376723
  67       10.631693
  68       10.813536
  69       10.938829
  70       11.191427
  71       11.654815
  72       11.767846
  73       12.117040
  74       12.442800
  75       12.620075
  76       13.006930
  77       13.517814
  78       13.900004
  79       14.271381
  80       14.840134
 
  0.2500000E+00  0.2500000E+00  0.0000000E+00  0.2500000E-01
   1      -68.647687
   2      -68.645368
   3      -68.633570
   4      -68.633003
   5      -68.615167
   6      -68.613364
   7      -68.597983
   8      -68.595852
   9      -68.577942
  10      -68.577292
  11      -68.560841
  12      -68.560460
  13      -12.442882
  14      -11.190788
  15      -10.946677
  16      -10.876533
  17      -10.388083
  18      -10.349201
  19       -5.875766
  20       -4.523051
  21       -2.421084
  22       -2.246880
  23       -1.791486
  24       -1.682958
  25       -1.355050
  26       -1.297649
  27       -1.079072
  28       -0.684518
  29       -0.524325
  30       -0.294037
  31       -0.283643
  32       -0.224189
  33       -0.184927
  34       -0.129235
  35       -0.089611
  36        0.077701
  37        1.292825
  38        1.311199
  39        1.415487
  40        1.426199
  41        1.463108
  42        1.482523
  43        1.494943
  44        1.570123
  45        1.670901
  46        1.880219
  47        1.940035
  48        2.133586
  49        2.278767
  50        2.319955
  51        2.561531
  52        2.650724
  53        2.902606
  54        2.943720
  55        3.698123
  56        3.832165
  57        6.170201
  58        6.990952
  59        8.004978
  60        8.327092
  61        8.433633
  62        8.570124
  63        9.146096
  64        9.247465
  65       10.360900
  66       10.494571
  67       10.920384
  68       11.184760
  69       11.328137
  70       11.557725
  71       11.813339
  72       11.962933
  73       12.313796
  74       12.504222
  75       12.711472
  76       12.912749
  77       13.340845
  78       13.445578
  79       14.258674
  80       14.365867
 
  0.5000000E+00  0.2500000E+00 -0.2775558E-16  0.2500000E-01
   1      -68.647435
   2      -68.645182
   3      -68.633579
   4      -68.633135
   5      -68.614933
   6      -68.613146
   7      -68.598034
   8      -68.595914
   9      -68.577521
  10      -68.577306
  11      -68.560394
  12      -68.560613
  13      -12.443068
  14      -11.353897
  15      -10.941653
  16      -10.736804
  17      -10.388054
  18      -10.268744
  19       -5.947598
  20       -4.643305
  21       -2.393979
  22       -2.228889
  23       -2.057447
  24       -1.639918
  25       -1.362537
  26       -1.282280
  27       -1.020319
  28       -0.510646
  29       -0.481589
  30       -0.329759
  31       -0.282546
  32       -0.219187
  33       -0.150486
  34       -0.131308
  35       -0.009484
  36        0.110410
  37        1.245244
  38        1.315314
  39        1.383051
  40        1.436336
  41        1.461734
  42        1.491972
  43        1.496195
  44        1.550158
  45        1.747085
  46        1.826723
  47        1.922527
  48        2.133440
  49        2.221826
  50        2.385260
  51        2.559932
  52        2.790217
  53        2.978039
  54        3.312630
  55        3.603488
  56        3.748811
  57        6.085851
  58        6.940081
  59        7.610799
  60        8.068815
  61        8.410692
  62        8.615260
  63        8.983522
  64        9.151290
  65       10.087545
  66       10.335223
  67       10.732837
  68       11.107176
  69       11.459633
  70       11.596691
  71       11.799739
  72       12.084096
  73       12.478655
  74       12.921083
  75       13.033740
  76       13.834094
  77       14.196900
  78       14.647944
  79       15.436503
  80       15.643616
 
 -0.2500000E+00  0.2500000E+00  0.0000000E+00  0.2500000E-01
   1      -68.647677
   2      -68.645357
   3      -68.633653
   4      -68.633079
   5      -68.614966
   6      -68.613163
   7      -68.598076
   8      -68.595950
   9      -68.577761
  10      -68.577122
  11      -68.560865
  12      -68.560403
  13      -12.600777
  14      -11.250729
  15      -10.995443
  16      -10.569570
  17      -10.365431
  18      -10.177628
  19       -6.009986
  20       -4.895473
  21       -2.647906
  22       -2.316472
  23       -1.973941
  24       -1.644981
  25       -1.494621
  26       -1.183233
  27       -0.790265
  28       -0.582792
  29       -0.446825
  30       -0.336956
  31       -0.292917
  32       -0.231127
  33       -0.174456
  34       -0.131890
  35       -0.007342
  36        0.070816
  37        1.258781
  38        1.319957
  39        1.365028
  40        1.423350
  41        1.430340
  42        1.475085
  43        1.503700
  44        1.542794
  45        1.724761
  46        1.812081
  47        1.994816
  48        2.071545
  49        2.417888
  50        2.461857
  51        2.529788
  52        2.872256
  53        3.141789
  54        3.227929
  55        3.784193
  56        4.067819
  57        5.977733
  58        6.688808
  59        7.533641
  60        8.222812
  61        8.616602
  62        8.913489
  63        9.307124
  64        9.431505
  65        9.804650
  66       10.269119
  67       10.544940
  68       10.834851
  69       10.972765
  70       11.378438
  71       11.473193
  72       11.731254
  73       12.102318
  74       12.662217
  75       12.942837
  76       13.100222
  77       13.351512
  78       13.517829
  79       14.476288
  80       14.755166
 
  0.1474515E-16  0.5000000E+00  0.2775558E-16  0.1250000E-01
   1      -68.647543
   2      -68.645196
   3      -68.633583
   4      -68.633045
   5      -68.614976
   6      -68.613222
   7      -68.598018
   8      -68.595890
   9      -68.577789
  10      -68.577130
  11      -68.560476
  12      -68.560509
  13      -12.439235
  14      -11.248628
  15      -10.960083
  16      -10.762519
  17      -10.427366
  18      -10.355408
  19       -5.870621
  20       -4.549807
  21       -2.496519
  22       -2.245700
  23       -1.946168
  24       -1.463097
  25       -1.226309
  26       -1.101302
  27       -0.904338
  28       -0.859467
  29       -0.601579
  30       -0.536333
  31       -0.270397
  32       -0.206238
  33       -0.200392
  34       -0.146278
  35       -0.027642
  36        0.078297
  37        1.253420
  38        1.327991
  39        1.346926
  40        1.397302
  41        1.471718
  42        1.477920
  43        1.499399
  44        1.553216
  45        1.751619
  46        1.790955
  47        1.967381
  48        2.147757
  49        2.321694
  50        2.358613
  51        2.553942
  52        2.670821
  53        2.937851
  54        3.080540
  55        3.250862
  56        3.859959
  57        6.383711
  58        7.096685
  59        7.981194
  60        8.202721
  61        8.517972
  62        8.820091
  63        9.326557
  64        9.889266
  65       10.010923
  66       10.518715
  67       10.691267
  68       10.791724
  69       11.142008
  70       11.408912
  71       11.609587
  72       11.774650
  73       11.944511
  74       12.501426
  75       12.819332
  76       13.027885
  77       13.524608
  78       13.669212
  79       14.553370
  80       15.256716
 
  0.2500000E+00  0.5000000E+00 -0.2775558E-16  0.2500000E-01
   1      -68.647471
   2      -68.645154
   3      -68.633511
   4      -68.633164
   5      -68.614887
   6      -68.613211
   7      -68.598023
   8      -68.595942
   9      -68.577548
  10      -68.577277
  11      -68.560498
  12      -68.560508
  13      -12.443227
  14      -11.353628
  15      -10.941575
  16      -10.736245
  17      -10.388210
  18      -10.269400
  19       -5.947550
  20       -4.643404
  21       -2.393727
  22       -2.228406
  23       -2.058751
  24       -1.638906
  25       -1.361274
  26       -1.281666
  27       -1.021937
  28       -0.511142
  29       -0.485537
  30       -0.328917
  31       -0.283516
  32       -0.214867
  33       -0.151424
  34       -0.132368
  35       -0.008524
  36        0.111089
  37        1.245603
  38        1.315288
  39        1.381218
  40        1.437852
  41        1.461339
  42        1.491452
  43        1.496716
  44        1.550119
  45        1.749320
  46        1.828266
  47        1.921356
  48        2.132471
  49        2.220793
  50        2.385370
  51        2.561066
  52        2.790549
  53        2.978498
  54        3.310217
  55        3.604042
  56        3.748190
  57        6.086061
  58        6.939270
  59        7.611116
  60        8.069036
  61        8.409732
  62        8.615898
  63        8.982719
  64        9.152088
  65       10.087454
  66       10.335397
  67       10.732335
  68       11.108655
  69       11.459591
  70       11.575879
  71       11.785575
  72       12.033473
  73       12.523170
  74       12.676700
  75       12.916547
  76       13.211286
  77       14.231513
  78       14.763052
  79       15.246077
  80       15.905312
 
  0.5000000E+00  0.5000000E+00  0.0000000E+00  0.1250000E-01
   1      -68.647306
   2      -68.644971
   3      -68.633340
   4      -68.632988
   5      -68.614781
   6      -68.613096
   7      -68.597832
   8      -68.595730
   9      -68.577647
  10      -68.576994
  11      -68.560401
  12      -68.560202
  13      -12.435018
  14      -11.500906
  15      -10.916874
  16      -10.616313
  17      -10.397085
  18      -10.196807
  19       -6.026170
  20       -4.811003
  21       -2.312643
  22       -2.267863
  23       -2.093717
  24       -1.703039
  25       -1.247535
  26       -1.112138
  27       -0.839094
  28       -0.780023
  29       -0.725070
  30       -0.241204
  31       -0.200855
  32       -0.181226
  33       -0.154005
  34       -0.040182
  35        0.002020
  36        0.182591
  37        1.265493
  38        1.318129
  39        1.373328
  40        1.413678
  41        1.433534
  42        1.491858
  43        1.507597
  44        1.549826
  45        1.785495
  46        1.848182
  47        1.994889
  48        2.150668
  49        2.252114
  50        2.335139
  51        2.559155
  52        2.760762
  53        2.777475
  54        3.370710
  55        3.764756
  56        4.005148
  57        5.852282
  58        6.766021
  59        7.082233
  60        8.411647
  61        8.559951
  62        8.770269
  63        9.141067
  64        9.241316
  65        9.960276
  66       10.286346
  67       10.725794
  68       10.829673
  69       10.876182
  70       11.272543
  71       11.756879
  72       11.914960
  73       11.972255
  74       12.366416
  75       12.538985
  76       13.456026
  77       14.286237
  78       14.672490
  79       16.742228
  80       16.754195
 
 -0.2168404E-18 -0.2168404E-18  0.2000000E+00  0.2500000E-01
   1      -68.647713
   2      -68.645391
   3      -68.633683
   4      -68.633106
   5      -68.615062
   6      -68.613256
   7      -68.598102
   8      -68.595972
   9      -68.577847
  10      -68.577207
  11      -68.560843
  12      -68.560495
  13      -12.619427
  14      -11.426662
  15      -10.780383
  16      -10.608630
  17      -10.248104
  18      -10.234279
  19       -5.831177
  20       -5.048003
  21       -2.602186
  22       -2.373875
  23       -1.960149
  24       -1.775317
  25       -1.443186
  26       -1.128053
  27       -1.065463
  28       -0.772299
  29       -0.469942
  30       -0.291659
  31       -0.238455
  32       -0.235544
  33       -0.191795
  34       -0.145482
  35       -0.017140
  36        0.025433
  37        1.332902
  38        1.381800
  39        1.416167
  40        1.438478
  41        1.464841
  42        1.466314
  43        1.513979
  44        1.545969
  45        1.631951
  46        1.758550
  47        1.786640
  48        1.950312
  49        2.089220
  50        2.658990
  51        2.719288
  52        3.194076
  53        3.253125
  54        3.518126
  55        3.894427
  56        3.976368
  57        6.045436
  58        6.416172
  59        7.823765
  60        7.907201
  61        8.364857
  62        8.818143
  63        9.776274
  64        9.794619
  65       10.062795
  66       10.586693
  67       10.647925
  68       10.813935
  69       10.854992
  70       11.494180
  71       11.557489
  72       12.024819
  73       12.579536
  74       12.775346
  75       12.910653
  76       13.204981
  77       13.533934
  78       13.822965
  79       14.196177
  80       14.705514
 
  0.2500000E+00  0.1517883E-17  0.2000000E+00  0.2500000E-01
   1      -68.647652
   2      -68.645327
   3      -68.633672
   4      -68.633089
   5      -68.615093
   6      -68.613305
   7      -68.598070
   8      -68.595922
   9      -68.577872
  10      -68.577202
  11      -68.560827
  12      -68.560385
  13      -12.460668
  14      -11.467720
  15      -10.867246
  16      -10.688421
  17      -10.371007
  18      -10.243106
  19       -5.766760
  20       -4.805323
  21       -2.447610
  22       -2.233762
  23       -1.849309
  24       -1.715176
  25       -1.432158
  26       -1.189190
  27       -0.892636
  28       -0.742586
  29       -0.606087
  30       -0.522256
  31       -0.307673
  32       -0.246100
  33       -0.174672
  34       -0.120603
  35       -0.052666
  36        0.060254
  37        1.302162
  38        1.335097
  39        1.369496
  40        1.431543
  41        1.445623
  42        1.479104
  43        1.520518
  44        1.547048
  45        1.642487
  46        1.869840
  47        1.979377
  48        2.047703
  49        2.195509
  50        2.475484
  51        2.594950
  52        2.837945
  53        2.963795
  54        3.131934
  55        3.566591
  56        3.725349
  57        6.440636
  58        6.957617
  59        8.170147
  60        8.246046
  61        8.833610
  62        9.127479
  63        9.464616
  64        9.796367
  65       10.084301
  66       10.300872
  67       10.738568
  68       11.078613
  69       11.289759
  70       11.423119
  71       11.631370
  72       11.723369
  73       12.086333
  74       12.266041
  75       12.541897
  76       12.659978
  77       12.955592
  78       13.059758
  79       13.640301
  80       14.690824
 
  0.5000000E+00  0.9107298E-17  0.2000000E+00  0.2500000E-01
   1      -68.647445
   2      -68.645207
   3      -68.633509
   4      -68.633073
   5      -68.614963
   6      -68.613161
   7      -68.597978
   8      -68.595837
   9      -68.577610
  10      -68.577264
  11      -68.560426
  12      -68.560642
  13      -12.358549
  14      -11.414966
  15      -10.954340
  16      -10.684635
  17      -10.476671
  18      -10.331377
  19       -5.751982
  20       -4.723481
  21       -2.524225
  22       -2.186298
  23       -1.953069
  24       -1.534932
  25       -1.299624
  26       -1.097509
  27       -0.868483
  28       -0.759816
  29       -0.549836
  30       -0.445090
  31       -0.289414
  32       -0.180630
  33       -0.142569
  34       -0.107058
  35       -0.044215
  36        0.023111
  37        1.272364
  38        1.296679
  39        1.350485
  40        1.428988
  41        1.452204
  42        1.480818
  43        1.501422
  44        1.588611
  45        1.720330
  46        1.932016
  47        2.076267
  48        2.144791
  49        2.266685
  50        2.403310
  51        2.567963
  52        2.597523
  53        2.898175
  54        3.008533
  55        3.357936
  56        3.899291
  57        6.364175
  58        6.898450
  59        7.574483
  60        8.083125
  61        8.549898
  62        8.797286
  63        9.278374
  64        9.628232
  65        9.929963
  66       10.273897
  67       10.658741
  68       10.926935
  69       10.973552
  70       11.279035
  71       11.519620
  72       11.786539
  73       12.246679
  74       12.545783
  75       13.099215
  76       13.516614
  77       14.296675
  78       14.569955
  79       15.128246
  80       16.268343
 
 -0.2500000E+00 -0.4098284E-16  0.2000000E+00  0.2500000E-01
   1      -68.647703
   2      -68.645389
   3      -68.633671
   4      -68.633069
   5      -68.615075
   6      -68.613260
   7      -68.598087
   8      -68.595956
   9      -68.577868
  10      -68.577220
  11      -68.560884
  12      -68.560441
  13      -12.543196
  14      -11.339301
  15      -10.874009
  16      -10.607403
  17      -10.396747
  18      -10.279872
  19       -5.824770
  20       -4.975945
  21       -2.667127
  22       -2.453793
  23       -2.037509
  24       -1.578100
  25       -1.171098
  26       -0.981978
  27       -0.797523
  28       -0.654389
  29       -0.516210
  30       -0.388293
  31       -0.271356
  32       -0.254556
  33       -0.190495
  34       -0.142836
  35       -0.046943
  36        0.015864
  37        1.290176
  38        1.310550
  39        1.388828
  40        1.408254
  41        1.433941
  42        1.455726
  43        1.492026
  44        1.564790
  45        1.687581
  46        1.915965
  47        1.985414
  48        2.145538
  49        2.334316
  50        2.565268
  51        2.615741
  52        2.828324
  53        2.971837
  54        3.248469
  55        3.682462
  56        3.943760
  57        6.178019
  58        6.637979
  59        7.765664
  60        7.974120
  61        8.214370
  62        8.561981
  63        9.377838
  64        9.577725
  65        9.907810
  66       10.250849
  67       10.544095
  68       10.786636
  69       10.845471
  70       11.070386
  71       11.563169
  72       12.020901
  73       12.525551
  74       12.751640
  75       12.953270
  76       13.308371
  77       13.412840
  78       13.741353
  79       13.846240
  80       14.727720
 
  0.1517883E-17  0.2500000E+00  0.2000000E+00  0.2500000E-01
   1      -68.647646
   2      -68.645329
   3      -68.633663
   4      -68.633098
   5      -68.615101
   6      -68.613298
   7      -68.598065
   8      -68.595929
   9      -68.577858
  10      -68.577216
  11      -68.560835
  12      -68.560377
  13      -12.460776
  14      -11.468294
  15      -10.863114
  16      -10.691155
  17      -10.371507
  18      -10.243433
  19       -5.766516
  20       -4.805560
  21       -2.447303
  22       -2.234323
  23       -1.850937
  24       -1.714396
  25       -1.430056
  26       -1.188199
  27       -0.888366
  28       -0.748267
  29       -0.604151
  30       -0.527857
  31       -0.308679
  32       -0.243984
  33       -0.171160
  34       -0.122643
  35       -0.053130
  36        0.061200
  37        1.301794
  38        1.335832
  39        1.369137
  40        1.431152
  41        1.446153
  42        1.479487
  43        1.520477
  44        1.546924
  45        1.643348
  46        1.871158
  47        1.979327
  48        2.047297
  49        2.194480
  50        2.474936
  51        2.593606
  52        2.838848
  53        2.963452
  54        3.133001
  55        3.568142
  56        3.722904
  57        6.441545
  58        6.956202
  59        8.169584
  60        8.245974
  61        8.833223
  62        9.126817
  63        9.467683
  64        9.795770
  65       10.085756
  66       10.298943
  67       10.740077
  68       11.077240
  69       11.290539
  70       11.423338
  71       11.631775
  72       11.723923
  73       12.085547
  74       12.266115
  75       12.541018
  76       12.661133
  77       12.952566
  78       13.056630
  79       13.657811
  80       14.694771
 
  0.2500000E+00  0.2500000E+00  0.2000000E+00  0.2500000E-01
   1      -68.647558
   2      -68.645239
   3      -68.633519
   4      -68.632939
   5      -68.614943
   6      -68.613140
   7      -68.597935
   8      -68.595808
   9      -68.577731
  10      -68.577082
  11      -68.560700
  12      -68.560333
  13      -12.329353
  14      -11.476477
  15      -10.862759
  16      -10.857759
  17      -10.404808
  18      -10.285652
  19       -5.747975
  20       -4.693036
  21       -2.244661
  22       -2.139463
  23       -1.928816
  24       -1.850520
  25       -1.452703
  26       -1.394401
  27       -1.037063
  28       -0.519977
  29       -0.465755
  30       -0.350029
  31       -0.247708
  32       -0.216950
  33       -0.160034
  34       -0.113644
  35       -0.087163
  36        0.079355
  37        1.260851
  38        1.346902
  39        1.397538
  40        1.435012
  41        1.453655
  42        1.510034
  43        1.535058
  44        1.543232
  45        1.752406
  46        1.817994
  47        2.039116
  48        2.136111
  49        2.284813
  50        2.310505
  51        2.522714
  52        2.768451
  53        2.898506
  54        3.261838
  55        3.495377
  56        3.800104
  57        6.182785
  58        6.841240
  59        7.827259
  60        8.043615
  61        8.188045
  62        8.726035
  63        9.153569
  64        9.306655
  65       10.219816
  66       10.441418
  67       10.591221
  68       11.006461
  69       11.239817
  70       11.487650
  71       11.811370
  72       12.172739
  73       12.206546
  74       12.574199
  75       12.693462
  76       13.111394
  77       13.415535
  78       13.882174
  79       14.006033
  80       14.523755
 
  0.5000000E+00  0.2500000E+00  0.2000000E+00  0.2500000E-01
   1      -68.647427
   2      -68.645113
   3      -68.633553
   4      -68.633123
   5      -68.614865
   6      -68.613261
   7      -68.598013
   8      -68.595873
   9      -68.577572
  10      -68.577293
  11      -68.560485
  12      -68.560481
  13      -12.375695
  14      -11.474789
  15      -10.938425
  16      -10.652613
  17      -10.419022
  18      -10.301473
  19       -5.800802
  20       -4.837372
  21       -2.528671
  22       -2.244387
  23       -1.872199
  24       -1.645222
  25       -1.504332
  26       -1.307886
  27       -0.898169
  28       -0.535808
  29       -0.377843
  30       -0.348369
  31       -0.224410
  32       -0.177507
  33       -0.164034
  34       -0.073061
  35       -0.024732
  36        0.079366
  37        1.188749
  38        1.363672
  39        1.397208
  40        1.441538
  41        1.463189
  42        1.506414
  43        1.518647
  44        1.585663
  45        1.738970
  46        1.818209
  47        2.036074
  48        2.235502
  49        2.268289
  50        2.363745
  51        2.486126
  52        2.671147
  53        3.052515
  54        3.411273
  55        3.728462
  56        3.863739
  57        5.930817
  58        6.613307
  59        7.352644
  60        7.942646
  61        8.064414
  62        8.723404
  63        8.907316
  64        9.138840
  65        9.843120
  66       10.328765
  67       10.554991
  68       10.925744
  69       11.222942
  70       11.420031
  71       11.749239
  72       12.004381
  73       12.496955
  74       12.830180
  75       13.204801
  76       14.184995
  77       14.711735
  78       15.145013
  79       15.913117
  80       16.567639
 
 -0.2500000E+00  0.2500000E+00  0.2000000E+00  0.2500000E-01
   1      -68.647648
   2      -68.645294
   3      -68.633716
   4      -68.633134
   5      -68.615014