       N       E                     dE             d eps       ncg     rms          ort
SDA:   1     0.757037400624E+02    0.75704E+02   -0.21364E+03  3360   0.534E+03 0.000E+00
DMP:   2    -0.824164934792E+01   -0.83945E+02   -0.14719E+03  3360   0.396E+03-0.744E+02
DMP:   3    -0.149981436031E+02   -0.67565E+01   -0.20457E+03  3360   0.697E+03-0.485E+03
DMP:   4    -0.224989092908E+02   -0.75008E+01   -0.10771E+03  3360   0.392E+03-0.320E+03
DMP:   5    -0.607886871640E+02   -0.38290E+02   -0.15097E+02  3360   0.708E+02-0.865E+02
DMP:   6    -0.658938045715E+02   -0.51051E+01   -0.82801E+01  3360   0.250E+02-0.112E+02
DMP:   7    -0.674499079190E+02   -0.15561E+01   -0.41823E+01  3360   0.149E+02-0.116E+02
DMP:   8    -0.690811932029E+02   -0.16313E+01   -0.77587E+00  3360   0.286E+01-0.240E+01
DMP:   9    -0.693933572819E+02   -0.31216E+00   -0.39101E+00  3360   0.112E+01-0.369E+00
DMP:  10    -0.694982090411E+02   -0.10485E+00   -0.15371E+00  3360   0.553E+00-0.443E+00
DMP:  11    -0.695684886977E+02   -0.70280E-01   -0.37082E-01  3360   0.106E+00-0.341E-01
DMP:  12    -0.695808322457E+02   -0.12344E-01   -0.23086E-01  3360   0.697E-01-0.315E-01
DMP:  13    -0.695906004111E+02   -0.97682E-02   -0.51572E-02  3360   0.163E-01-0.881E-02
DMP:  14    -0.695930745853E+02   -0.24742E-02   -0.38235E-02  3360   0.976E-02-0.514E-03
DMP:  15    -0.695945978259E+02   -0.15232E-02   -0.10480E-02  3360   0.337E-02-0.195E-02
DMP:  16    -0.695951758135E+02   -0.57799E-03   -0.41432E-03  3360   0.925E-03 0.289E-03
DMP:  17    -0.695953510704E+02   -0.17526E-03   -0.21106E-03  3360   0.586E-03-0.153E-03
DMP:  18    -0.695954695829E+02   -0.11851E-03   -0.56998E-04  3360   0.121E-03 0.567E-04
DMP:  19    -0.695954989606E+02   -0.29378E-04   -0.35872E-04  3360   0.896E-04 0.185E-06
DMP:  20    -0.695955190898E+02   -0.20129E-04   -0.11767E-04  3360   0.245E-04 0.129E-04
DMP:  21    -0.695955266209E+02   -0.75310E-05   -0.71603E-05  3360   0.143E-04 0.939E-05
   1 F= -.69595527E+02 E0= -.69595709E+02  d E =0.546498E-03
