 vasp.5.3.3 18Dez12 (build Nov 13 2015 09:58:40) complex                        
  
 executed on             LinuxIFC date 2017.10.18  13:04:00
 running on   48 total cores
 distrk:  each k-point on   16 cores,    3 groups
 distr:  one band on NCORES_PER_BAND=   1 cores,   16 groups


--------------------------------------------------------------------------------------------------------


 INCAR:
 POTCAR:    PAW_PBE Cu_pv 06Sep2000               
 POTCAR:    PAW_PBE Ge 05Jan2001                  
 POTCAR:    PAW_PBE S 17Jan2003                   

 ----------------------------------------------------------------------------- 
|                                                                             |
|           W    W    AA    RRRRR   N    N  II  N    N   GGGG   !!!           |
|           W    W   A  A   R    R  NN   N  II  NN   N  G    G  !!!           |
|           W    W  A    A  R    R  N N  N  II  N N  N  G       !!!           |
|           W WW W  AAAAAA  RRRRR   N  N N  II  N  N N  G  GGG   !            |
|           WW  WW  A    A  R   R   N   NN  II  N   NN  G    G                |
|           W    W  A    A  R    R  N    N  II  N    N   GGGG   !!!           |
|                                                                             |
|      For optimal performance we recommend that you set                      |
|        NPAR = 4 - approx SQRT( number of cores)                             |
|      (number of cores/NPAR must be integer)                                 |
|      This setting will greatly improve the performance of VASP for DFT.     |
|      The default NPAR=number of cores might be grossly inefficient          |
|      on modern multi-core architectures or massively parallel machines.     |
|      Do your own testing.                                                   |
|      Unfortunately you need to use the default for hybrid, GW and RPA       |
|      calculations.                                                          |
|                                                                             |
 ----------------------------------------------------------------------------- 


 ----------------------------------------------------------------------------- 
|                                                                             |
|           W    W    AA    RRRRR   N    N  II  N    N   GGGG   !!!           |
|           W    W   A  A   R    R  NN   N  II  NN   N  G    G  !!!           |
|           W    W  A    A  R    R  N N  N  II  N N  N  G       !!!           |
|           W WW W  AAAAAA  RRRRR   N  N N  II  N  N N  G  GGG   !            |
|           WW  WW  A    A  R   R   N   NN  II  N   NN  G    G                |
|           W    W  A    A  R    R  N    N  II  N    N   GGGG   !!!           |
|                                                                             |
|      You have enabled k-point parallelism (KPAR>1).                         |
|      This developmental code was originally  written by Paul Kent at ORNL,  |
|      and carefully double checked in Vienna.                                |
|      GW as well as linear response parallelism added by Martijn Marsman     |
|      and Georg Kresse.                                                      |
|      Carefully verify results versus KPAR=1.                                |
|      Report problems to Paul Kent and Vienna.                               |
|                                                                             |
 ----------------------------------------------------------------------------- 

 POTCAR:    PAW_PBE Cu_pv 06Sep2000               
   VRHFIN =Cu: d10 p1                                                           
   LEXCH  = PE                                                                  
   EATOM  =  4120.1201 eV,  302.8203 Ry                                         
                                                                                
   TITEL  = PAW_PBE Cu_pv 06Sep2000                                             
   LULTRA =        F    use ultrasoft PP ?                                      
   IUNSCR =        1    unscreen: 0-lin 1-nonlin 2-no                           
   RPACOR =    1.500    partial core radius                                     
   POMASS =   63.546; ZVAL   =   17.000    mass and valenz                      
   RCORE  =    2.000    outmost cutoff radius                                   
   RWIGS  =    2.000; RWIGS  =    1.058    wigner-seitz radius (au A)           
   ENMAX  =  368.648; ENMIN  =  276.486 eV                                      
   RCLOC  =    1.304    cutoff for local pot                                    
   LCOR   =        T    correct aug charges                                     
   LPAW   =        T    paw PP                                                  
   EAUG   =  758.233                                                            
   DEXC   =    0.000                                                            
   RMAX   =    2.046    core radius for proj-oper                               
   RAUG   =    1.300    factor for augmentation sphere                          
   RDEP   =    2.025    radius for radial grids                                 
   RDEPT  =    1.558    core radius for aug-charge                              
                                                                                
   Atomic configuration                                                         
    8 entries                                                                   
     n  l   j            E        occ.                                          
     1  0  0.50     -8850.2467   2.0000                                         
     2  0  0.50     -1062.3498   2.0000                                         
     2  1  1.50      -916.8226   6.0000                                         
     3  0  0.50      -114.6929   2.0000                                         
     3  1  1.50       -72.1325   6.0000                                         
     3  2  2.50        -5.0394  10.0000                                         
     4  0  0.50        -4.6097   1.0000                                         
     4  3  2.50        -1.3606   0.0000                                         
   Description                                                                  
     l       E           TYP  RCUT    TYP  RCUT                                 
     1    -72.1324777     23  1.700                                             
     1     -1.3605826     23  1.700                                             
     2     -5.0393776     23  2.000                                             
     2     -6.3999602     23  2.000                                             
     0     -4.6097062     23  1.800                                             
     0     14.1620818     23  1.800                                             
  local pseudopotential read in
  partial core-charges read in
  partial kinetic energy density read in
  atomic valenz-charges read in
  non local Contribution for L=           1  read in
    real space projection operators read in
  non local Contribution for L=           1  read in
    real space projection operators read in
  non local Contribution for L=           2  read in
    real space projection operators read in
  non local Contribution for L=           2  read in
    real space projection operators read in
  non local Contribution for L=           0  read in
    real space projection operators read in
  non local Contribution for L=           0  read in
    real space projection operators read in
    PAW grid and wavefunctions read in
 
   number of l-projection  operators is LMAX  =           6
   number of lm-projection operators is LMMAX =          18
 
 POTCAR:    PAW_PBE Ge 05Jan2001                  
   VRHFIN =Ge: s2p2                                                             
   LEXCH  = PE                                                                  
   EATOM  =   104.9960 eV,    7.7170 Ry                                         
                                                                                
   TITEL  = PAW_PBE Ge 05Jan2001                                                
   LULTRA =        F    use ultrasoft PP ?                                      
   IUNSCR =        1    unscreen: 0-lin 1-nonlin 2-no                           
   RPACOR =    2.170    partial core radius                                     
   POMASS =   72.610; ZVAL   =    4.000    mass and valenz                      
   RCORE  =    2.300    outmost cutoff radius                                   
   RWIGS  =    2.300; RWIGS  =    1.217    wigner-seitz radius (au A)           
   ENMAX  =  173.807; ENMIN  =  130.355 eV                                      
   ICORE  =        3    local potential                                         
   LCOR   =        T    correct aug charges                                     
   LPAW   =        T    paw PP                                                  
   EAUG   =  385.843                                                            
   DEXC   =    0.000                                                            
   RMAX   =    2.342    core radius for proj-oper                               
   RAUG   =    1.300    factor for augmentation sphere                          
   RDEP   =    2.318    radius for radial grids                                 
   RDEPT  =    2.103    core radius for aug-charge                              
                                                                                
   Atomic configuration                                                         
   10 entries                                                                   
     n  l   j            E        occ.                                          
     1  0  0.50    -10959.8463   2.0000                                         
     2  0  0.50     -1371.6056   2.0000                                         
     2  1  1.50     -1198.4791   6.0000                                         
     3  0  0.50      -168.4733   2.0000                                         
     3  1  1.50      -115.6019   6.0000                                         
     3  2  2.50       -29.3106  10.0000                                         
     4  0  0.50       -11.7309   2.0000                                         
     4  1  0.50        -3.8952   2.0000                                         
     4  2  1.50        -4.0817   0.0000                                         
     4  3  2.50        -4.0817   0.0000                                         
   Description                                                                  
     l       E           TYP  RCUT    TYP  RCUT                                 
     0    -11.7309493     23  2.300                                             
     0     -7.4578696     23  2.300                                             
     1     -3.8952261     23  2.300                                             
     1      6.1178114     23  2.300                                             
     2     -4.0817478     23  2.300                                             
     3     -1.3605826      7  2.300                                             
  local pseudopotential read in
  partial core-charges read in
  partial kinetic energy density read in
  atomic valenz-charges read in
  non local Contribution for L=           0  read in
    real space projection operators read in
  non local Contribution for L=           0  read in
    real space projection operators read in
  non local Contribution for L=           1  read in
    real space projection operators read in
  non local Contribution for L=           1  read in
    real space projection operators read in
  non local Contribution for L=           2  read in
    real space projection operators read in
    PAW grid and wavefunctions read in
 
   number of l-projection  operators is LMAX  =           5
   number of lm-projection operators is LMMAX =          13
 
 POTCAR:    PAW_PBE S 17Jan2003                   
   VRHFIN =S : s2p4                                                             
   LEXCH  = PE                                                                  
   EATOM  =   276.8230 eV,   20.3459 Ry                                         
                                                                                
   TITEL  = PAW_PBE S 17Jan2003                                                 
   LULTRA =        F    use ultrasoft PP ?                                      
   IUNSCR =        1    unscreen: 0-lin 1-nonlin 2-no                           
   RPACOR =    1.500    partial core radius                                     
   POMASS =   32.066; ZVAL   =    6.000    mass and valenz                      
   RCORE  =    1.900    outmost cutoff radius                                   
   RWIGS  =    2.200; RWIGS  =    1.164    wigner-seitz radius (au A)           
   ENMAX  =  280.000; ENMIN  =  194.016 eV                                      
   ICORE  =        2    local potential                                         
   LCOR   =        T    correct aug charges                                     
   LPAW   =        T    paw PP                                                  
   EAUG   =  335.092                                                            
   DEXC   =     .000                                                            
   RMAX   =    2.867    core radius for proj-oper                               
   RAUG   =    1.300    factor for augmentation sphere                          
   RDEP   =    1.954    radius for radial grids                                 
   QCUT   =   -4.360; QGAM   =    8.721    optimization parameters              
                                                                                
   Description                                                                  
     l     E      TYP  RCUT    TYP  RCUT                                        
     0   .000     23  1.900                                                     
     0   .000     23  1.900                                                     
     1   .000     23  1.900                                                     
     1   .000     23  1.900                                                     
     2   .000     23  1.900                                                     
  local pseudopotential read in
  partial core-charges read in
  atomic valenz-charges read in
  non local Contribution for L=           0  read in
    real space projection operators read in
  non local Contribution for L=           0  read in
    real space projection operators read in
  non local Contribution for L=           1  read in
    real space projection operators read in
  non local Contribution for L=           1  read in
    real space projection operators read in
    PAW grid and wavefunctions read in
 
   number of l-projection  operators is LMAX  =           4
   number of lm-projection operators is LMMAX =           8
 
  PAW_PBE Cu_pv 06Sep2000               :
 energy of atom  1       EATOM=-4120.1201
 kinetic energy error for atom=    0.0996 (will be added to EATOM!!)
  PAW_PBE Ge 05Jan2001                  :
 energy of atom  2       EATOM= -104.9960
 kinetic energy error for atom=    0.0003 (will be added to EATOM!!)
  PAW_PBE S 17Jan2003                   :
 energy of atom  3       EATOM= -276.8230
 kinetic energy error for atom=    0.0046 (will be added to EATOM!!)
 
 
 POSCAR: Cu Ge S                                 
  positions in direct lattice
  No initial velocities read in
 exchange correlation table for  LEXCH =        8
   RHO(1)=    0.500       N(1)  =     2000
   RHO(2)=  100.500       N(2)  =     4000
 


--------------------------------------------------------------------------------------------------------


 ion  position               nearest neighbor table
   1  0.618  0.123  0.120-   9 2.29  11 2.30  12 2.31   8 2.34
   2  0.121  0.618  0.620-  12 2.29   7 2.29   9 2.30  10 2.35
   3  0.963  0.790  0.119-  11 2.30  12 2.30   7 2.31   8 2.36
   4  0.790  0.963  0.619-   7 2.30   9 2.30  11 2.31  10 2.36
   5  0.440  0.267  0.599-   7 2.19   9 2.19  10 2.31   8 2.33
   6  0.267  0.440  0.099-  11 2.19  12 2.19   8 2.31  10 2.33
   7  0.079  0.912  0.497-   5 2.19   2 2.29   4 2.30   3 2.31
   8  0.571  0.412  0.980-   6 2.31   5 2.33   1 2.34   3 2.36
   9  0.737  0.250  0.495-   5 2.19   1 2.29   4 2.30   2 2.30
  10  0.412  0.571  0.480-   5 2.31   6 2.33   2 2.35   4 2.36
  11  0.912  0.079  0.997-   6 2.19   3 2.30   1 2.30   4 2.31
  12  0.250  0.737  0.995-   6 2.19   2 2.29   3 2.30   1 2.31
 
  Warning from LATTYP: Got some problem with cell dimensions!
  Tried to take original basis but could not verify dimensions!
  LATTYP: Found a base centered monoclinic cell.
 ALAT       =     6.4499010947
 B/A-ratio  =     1.7500516418
 C/A-ratio  =     1.9305142024
 COS(beta)  =    -0.4326083233
  
  Lattice vectors:
  
 A1 = (   3.2247960000,   5.6438300000,   0.0315720000)
 A2 = (   3.2247960000,  -5.6438300000,   0.0315720000)
 A3 = ( -10.7972380000,   0.0000000000,  -6.2018250000)


Analysis of symmetry for initial positions (statically):
=====================================================================
 Subroutine PRICEL returns:
 Original cell was already a primitive cell.
 

 Routine SETGRP: Setting up the symmetry group for a 
 base centered monoclinic supercell.


 Subroutine GETGRP returns: Found  1 space group operations
 (whereof  1 operations were pure point group operations)
 out of a pool of  4 trial point group operations.


The static configuration has the point symmetry C_1 .


Analysis of symmetry for dynamics (positions and initial velocities):
=====================================================================
 Subroutine PRICEL returns:
 Original cell was already a primitive cell.
 

 Routine SETGRP: Setting up the symmetry group for a 
 base centered monoclinic supercell.


 Subroutine GETGRP returns: Found  1 space group operations
 (whereof  1 operations were pure point group operations)
 out of a pool of  4 trial point group operations.


The dynamic configuration has the point symmetry C_1 .


 irot  :   1
 --------------------------------------------------------------------
 isymop:   1   0   0
           0   1   0
           0   0   1

 gtrans:     0.0000000     0.0000000     0.0000000

 ptrans:     0.0000000     0.0000000     0.0000000
 rotmap:
 (   1->   1)  (   2->   2)  (   3->   3)  (   4->   4)  (   5->   5) 
 (   6->   6)  (   7->   7)  (   8->   8)  (   9->   9)  (  10->  10) 
 (  11->  11)  (  12->  12) 
 
 
 KPOINTS: pymatgen 4.7.6+ generated KPOINTS with g

Automatic generation of k-mesh.
Space group operators:
 irot       det(A)        alpha          n_x          n_y          n_z        tau_x        tau_y        tau_z
    1     1.000000     0.000000     1.000000     0.000000     0.000000     0.000000     0.000000     0.000000
 
 Subroutine IBZKPT returns following result:
 ===========================================
 
 Found     42 irreducible k-points:
 
 Following reciprocal coordinates:
            Coordinates               Weight
  0.000000  0.000000  0.000000      1.000000
  0.250000  0.000000  0.000000      2.000000
  0.500000  0.000000  0.000000      1.000000
  0.000000  0.250000  0.000000      2.000000
  0.250000  0.250000  0.000000      2.000000
  0.500000  0.250000 -0.000000      2.000000
 -0.250000  0.250000  0.000000      2.000000
  0.000000  0.500000  0.000000      1.000000
  0.250000  0.500000 -0.000000      2.000000
  0.500000  0.500000  0.000000      1.000000
 -0.000000 -0.000000  0.200000      2.000000
  0.250000  0.000000  0.200000      2.000000
  0.500000  0.000000  0.200000      2.000000
 -0.250000 -0.000000  0.200000      2.000000
  0.000000  0.250000  0.200000      2.000000
  0.250000  0.250000  0.200000      2.000000
  0.500000  0.250000  0.200000      2.000000
 -0.250000  0.250000  0.200000      2.000000
  0.000000  0.500000  0.200000      2.000000
  0.250000  0.500000  0.200000      2.000000
  0.500000  0.500000  0.200000      2.000000
 -0.250000  0.500000  0.200000      2.000000
 -0.000000 -0.250000  0.200000      2.000000
  0.250000 -0.250000  0.200000      2.000000
  0.500000 -0.250000  0.200000      2.000000
 -0.250000 -0.250000  0.200000      2.000000
 -0.000000 -0.000000  0.400000      2.000000
  0.250000  0.000000  0.400000      2.000000
  0.500000  0.000000  0.400000      2.000000
 -0.250000  0.000000  0.400000      2.000000
  0.000000  0.250000  0.400000      2.000000
  0.250000  0.250000  0.400000      2.000000
  0.500000  0.250000  0.400000      2.000000
 -0.250000  0.250000  0.400000      2.000000
  0.000000  0.500000  0.400000      2.000000
  0.250000  0.500000  0.400000      2.000000
  0.500000  0.500000  0.400000      2.000000
 -0.250000  0.500000  0.400000      2.000000
  0.000000 -0.250000  0.400000      2.000000
  0.250000 -0.250000  0.400000      2.000000
  0.500000 -0.250000  0.400000      2.000000
 -0.250000 -0.250000  0.400000      2.000000
 
 Following cartesian coordinates:
            Coordinates               Weight
  0.000000  0.000000  0.000000      1.000000
  0.038631 -0.022148  0.013365      2.000000
  0.077263 -0.044296  0.026730      1.000000
  0.038631  0.022148  0.013365      2.000000
  0.077263  0.000000  0.026730      2.000000
  0.115894 -0.022148  0.040096      2.000000
  0.000000  0.044296  0.000000      2.000000
  0.077263  0.044296  0.026730      1.000000
  0.115894  0.022148  0.040096      2.000000
  0.154525  0.000000  0.053461      1.000000
 -0.000321  0.000000  0.032808      2.000000
  0.038310 -0.022148  0.046173      2.000000
  0.076941 -0.044296  0.059538      2.000000
 -0.038952  0.022148  0.019443      2.000000
  0.038310  0.022148  0.046173      2.000000
  0.076941  0.000000  0.059538      2.000000
  0.115573 -0.022148  0.072903      2.000000
 -0.000321  0.044296  0.032808      2.000000
  0.076941  0.044296  0.059538      2.000000
  0.115573  0.022148  0.072903      2.000000
  0.154204  0.000000  0.086269      2.000000
  0.038310  0.066444  0.046173      2.000000
 -0.038952 -0.022148  0.019443      2.000000
 -0.000321 -0.044296  0.032808      2.000000
  0.038310 -0.066444  0.046173      2.000000
 -0.077584  0.000000  0.006077      2.000000
 -0.000642  0.000000  0.065616      2.000000
  0.037989 -0.022148  0.078981      2.000000
  0.076620 -0.044296  0.092346      2.000000
 -0.039274  0.022148  0.052250      2.000000
  0.037989  0.022148  0.078981      2.000000
  0.076620  0.000000  0.092346      2.000000
  0.115251 -0.022148  0.105711      2.000000
 -0.000642  0.044296  0.065616      2.000000
  0.076620  0.044296  0.092346      2.000000
  0.115251  0.022148  0.105711      2.000000
  0.153883  0.000000  0.119076      2.000000
  0.037989  0.066444  0.078981      2.000000
 -0.039274 -0.022148  0.052250      2.000000
 -0.000642 -0.044296  0.065616      2.000000
  0.037989 -0.066444  0.078981      2.000000
 -0.077905  0.000000  0.038885      2.000000
 
 
 Subroutine IBZKPT_HF returns following result:
 ==============================================
 
 Found     80 k-points in 1st BZ
 the following     80 k-points will be used (e.g. in the exchange kernel)
 Following reciprocal coordinates:   # in IRBZ
  0.000000  0.000000  0.000000       1 t-inv F
  0.250000  0.000000  0.000000       2 t-inv F
  0.500000  0.000000  0.000000       3 t-inv F
  0.000000  0.250000  0.000000       4 t-inv F
  0.250000  0.250000  0.000000       5 t-inv F
  0.500000  0.250000 -0.000000       6 t-inv F
 -0.250000  0.250000  0.000000       7 t-inv F
  0.000000  0.500000  0.000000       8 t-inv F
  0.250000  0.500000 -0.000000       9 t-inv F
  0.500000  0.500000  0.000000      10 t-inv F
 -0.000000 -0.000000  0.200000      11 t-inv F
  0.250000  0.000000  0.200000      12 t-inv F
  0.500000  0.000000  0.200000      13 t-inv F
 -0.250000 -0.000000  0.200000      14 t-inv F
  0.000000  0.250000  0.200000      15 t-inv F
  0.250000  0.250000  0.200000      16 t-inv F
  0.500000  0.250000  0.200000      17 t-inv F
 -0.250000  0.250000  0.200000      18 t-inv F
  0.000000  0.500000  0.200000      19 t-inv F
  0.250000  0.500000  0.200000      20 t-inv F
  0.500000  0.500000  0.200000      21 t-inv F
 -0.250000  0.500000  0.200000      22 t-inv F
 -0.000000 -0.250000  0.200000      23 t-inv F
  0.250000 -0.250000  0.200000      24 t-inv F
  0.500000 -0.250000  0.200000      25 t-inv F
 -0.250000 -0.250000  0.200000      26 t-inv F
 -0.000000 -0.000000  0.400000      27 t-inv F
  0.250000  0.000000  0.400000      28 t-inv F
  0.500000  0.000000  0.400000      29 t-inv F
 -0.250000  0.000000  0.400000      30 t-inv F
  0.000000  0.250000  0.400000      31 t-inv F
  0.250000  0.250000  0.400000      32 t-inv F
  0.500000  0.250000  0.400000      33 t-inv F
 -0.250000  0.250000  0.400000      34 t-inv F
  0.000000  0.500000  0.400000      35 t-inv F
  0.250000  0.500000  0.400000      36 t-inv F
  0.500000  0.500000  0.400000      37 t-inv F
 -0.250000  0.500000  0.400000      38 t-inv F
  0.000000 -0.250000  0.400000      39 t-inv F
  0.250000 -0.250000  0.400000      40 t-inv F
  0.500000 -0.250000  0.400000      41 t-inv F
 -0.250000 -0.250000  0.400000      42 t-inv F
 -0.250000 -0.000000 -0.000000       2 t-inv T
 -0.000000 -0.250000 -0.000000       4 t-inv T
 -0.250000 -0.250000  0.000000       5 t-inv T
 -0.500000 -0.250000  0.000000       6 t-inv T
  0.250000 -0.250000  0.000000       7 t-inv T
 -0.250000 -0.500000  0.000000       9 t-inv T
  0.000000  0.000000 -0.200000      11 t-inv T
 -0.250000 -0.000000 -0.200000      12 t-inv T
 -0.500000 -0.000000 -0.200000      13 t-inv T
  0.250000  0.000000 -0.200000      14 t-inv T
 -0.000000 -0.250000 -0.200000      15 t-inv T
 -0.250000 -0.250000 -0.200000      16 t-inv T
 -0.500000 -0.250000 -0.200000      17 t-inv T
  0.250000 -0.250000 -0.200000      18 t-inv T
 -0.000000 -0.500000 -0.200000      19 t-inv T
 -0.250000 -0.500000 -0.200000      20 t-inv T
 -0.500000 -0.500000 -0.200000      21 t-inv T
  0.250000 -0.500000 -0.200000      22 t-inv T
  0.000000  0.250000 -0.200000      23 t-inv T
 -0.250000  0.250000 -0.200000      24 t-inv T
 -0.500000  0.250000 -0.200000      25 t-inv T
  0.250000  0.250000 -0.200000      26 t-inv T
  0.000000  0.000000 -0.400000      27 t-inv T
 -0.250000 -0.000000 -0.400000      28 t-inv T
 -0.500000 -0.000000 -0.400000      29 t-inv T
  0.250000 -0.000000 -0.400000      30 t-inv T
 -0.000000 -0.250000 -0.400000      31 t-inv T
 -0.250000 -0.250000 -0.400000      32 t-inv T
 -0.500000 -0.250000 -0.400000      33 t-inv T
  0.250000 -0.250000 -0.400000      34 t-inv T
 -0.000000 -0.500000 -0.400000      35 t-inv T
 -0.250000 -0.500000 -0.400000      36 t-inv T
 -0.500000 -0.500000 -0.400000      37 t-inv T
  0.250000 -0.500000 -0.400000      38 t-inv T
 -0.000000  0.250000 -0.400000      39 t-inv T
 -0.250000  0.250000 -0.400000      40 t-inv T
 -0.500000  0.250000 -0.400000      41 t-inv T
  0.250000  0.250000 -0.400000      42 t-inv T


--------------------------------------------------------------------------------------------------------




 Dimension of arrays:
   k-points           NKPTS =     42   k-points in BZ     NKDIM =     80   number of bands    NBANDS=     80
   number of dos      NEDOS =    301   number of ions     NIONS =     12
   non local maximal  LDIM  =      6   non local SUM 2l+1 LMDIM =     18
   total plane-waves  NPLWV =  32768
   max r-space proj   IRMAX =      1   max aug-charges    IRDMAX=   8224
   dimension x,y,z NGX =    32 NGY =   32 NGZ =   32
   dimension x,y,z NGXF=    64 NGYF=   64 NGZF=   64
   support grid    NGXF=    64 NGYF=   64 NGZF=   64
   ions per type =               4   2   6
 NGX,Y,Z   is equivalent  to a cutoff of   8.18,  8.18,  8.27 a.u.
 NGXF,Y,Z  is equivalent  to a cutoff of  16.37, 16.37, 16.55 a.u.


 I would recommend the setting:
   dimension x,y,z NGX =    32 NGY =   32 NGZ =   31
 SYSTEM =  CGS                                     
 POSCAR =  Cu Ge S                                 

 Startparameter for this run:
   NWRITE =      2    write-flag & timer
   PREC   = normal    normal or accurate (medium, high low for compatibility)
   ISTART =      1    job   : 0-new  1-cont  2-samecut
   ICHARG =      0    charge: 1-file 2-atom 10-const
   ISPIN  =      1    spin polarized calculation?
   LNONCOLLINEAR =      F non collinear calculations
   LSORBIT =      F    spin-orbit coupling
   INIWAV =      1    electr: 0-lowe 1-rand  2-diag
   LASPH  =      F    aspherical Exc in radial PAW
   METAGGA=      F    non-selfconsistent MetaGGA calc.

 Electronic Relaxation 1
   ENCUT  =  400.0 eV  29.40 Ry    5.42 a.u.  10.60 10.60 10.48*2*pi/ulx,y,z
   ENINI  =  400.0     initial cutoff
   ENAUG  =  758.2 eV  augmentation charge cutoff
   NELM   =     60;   NELMIN=  2; NELMDL=  0     # of ELM steps 
   EDIFF  = 0.1E-04   stopping-criterion for ELM
   LREAL  =      F    real-space projection
   NLSPLINE    = F    spline interpolate recip. space projectors
   LCOMPAT=      F    compatible to vasp.4.4
   GGA_COMPAT  = T    GGA compatible to vasp.4.4-vasp.4.6
   LMAXPAW     = -100 max onsite density
   LMAXMIX     =    2 max onsite mixed and CHGCAR
   VOSKOWN=      0    Vosko Wilk Nusair interpolation
   ROPT   =    0.00000   0.00000   0.00000
 Ionic relaxation
   EDIFFG = 0.1E-03   stopping-criterion for IOM
   NSW    =      0    number of steps for IOM
   NBLOCK =      1;   KBLOCK =      1    inner block; outer block 
   IBRION =     -1    ionic relax: 0-MD 1-quasi-New 2-CG
   NFREE  =      0    steps in history (QN), initial steepest desc. (CG)
   ISIF   =      0    stress and relaxation
   IWAVPR =     10    prediction:  0-non 1-charg 2-wave 3-comb
   ISYM   =      3    0-nonsym 1-usesym 2-fastsym
   LCORR  =      T    Harris-Foulkes like correction to forces

   POTIM  = 0.5000    time-step for ionic-motion
   TEIN   =    0.0    initial temperature
   TEBEG  =    0.0;   TEEND  =   0.0 temperature during run
   SMASS  =  -3.00    Nose mass-parameter (am)
   estimated Nose-frequenzy (Omega)   =  0.10E-29 period in steps =****** mass=  -0.966E-27a.u.
   SCALEE = 1.0000    scale energy and forces
   NPACO  =    256;   APACO  = 16.0  distance and # of slots for P.C.
   PSTRESS=    0.0 pullay stress

  Mass of Ions in am
   POMASS =  63.55 72.61 32.07
  Ionic Valenz
   ZVAL   =  17.00  4.00  6.00
  Atomic Wigner-Seitz radii
   RWIGS  =  -1.00 -1.00 -1.00
  virtual crystal weights 
   VCA    =   1.00  1.00  1.00
   NELECT =     112.0000    total number of electrons
   NUPDOWN=      -1.0000    fix difference up-down

 DOS related values:
   EMIN   =  10.00;   EMAX   =-10.00  energy-range for DOS
   EFERMI =   0.00
   ISMEAR =     1;   SIGMA  =   0.10  broadening in eV -4-tet -1-fermi 0-gaus

 Electronic relaxation 2 (details)
   IALGO  =     53    algorithm
   LDIAG  =      T    sub-space diagonalisation (order eigenvalues)
   LSUBROT=      T    optimize rotation matrix (better conditioning)
   TURBO    =      0    0=normal 1=particle mesh
   IRESTART =      0    0=no restart 2=restart with 2 vectors
   NREBOOT  =      0    no. of reboots
   NMIN     =      0    reboot dimension
   EREF     =   0.00    reference energy to select bands
   IMIX   =      4    mixing-type and parameters
     AMIX     =   0.40;   BMIX     =  1.00
     AMIX_MAG =   1.60;   BMIX_MAG =  1.00
     AMIN     =   0.10
     WC   =   100.;   INIMIX=   1;  MIXPRE=   1;  MAXMIX= -45

 Intra band minimization:
   WEIMIN = 0.0000     energy-eigenvalue tresh-hold
   EBREAK =  0.31E-07  absolut break condition
   DEPER  =   0.30     relativ break condition  

   TIME   =   0.40     timestep for ELM

  volume/ion in A,a.u.               =      18.49       124.79
  Fermi-wavevector in a.u.,A,eV,Ry     =   1.303450  2.463163 23.116052  1.698982
  Thomas-Fermi vector in A             =   2.434451
 
 Write flags
   LWAVE  =      T    write WAVECAR
   LCHARG =      T    write CHGCAR
   LVTOT  =      F    write LOCPOT, total local potential
   LVHAR  =      F    write LOCPOT, Hartree potential only
   LELF   =      F    write electronic localiz. function (ELF)
   LORBIT =      0    0 simple, 1 ext, 2 COOP (PROOUT)


 Dipole corrections
   LMONO  =      F    monopole corrections only (constant potential shift)
   LDIPOL =      F    correct potential (dipole corrections)
   IDIPOL =      0    1-x, 2-y, 3-z, 4-all directions 
   EPSILON=  1.0000000 bulk dielectric constant

 Exchange correlation treatment:
   GGA     =    PE    GGA type
   LEXCH   =     8    internal setting for exchange type
   VOSKOWN=      0    Vosko Wilk Nusair interpolation
   EXXOEP  =     0    0=HF, 1=EXX-LHF (local Hartree Fock) 2=EXX OEP
   LHFCALC =     T    Hartree Fock is set to
   LSYMGRAD=     F    symmetrize gradient (conserves proper symmetry)
   PRECFOCK=fast      Normal, Fast or Accurate (Low or Medium for compatibility)
   LRHFCALC=     F    long range Hartree Fock
   LRSCOR  =     F    long range correlation only (use DFT for short range part)
   LTHOMAS =     F    Thomas Fermi screening in HF
   LMODELHF=     F    short range full HF, long range fraction AEXX
   ENCUT4O =  -1.0   cutoff for four orbital integrals eV
   LMAXFOCK=     4    L truncation for augmentation on plane wave grid
   LMAXFOCKAE=  -1    L truncation for all-electron charge restoration on plane wave grid
   NMAXFOCKAE=   1    number of basis functions for all-electron charge restoration
   LFOCKAEDFT=     F  apply the AE augmentation even for DFT
   NKREDX  =     1    reduce k-point grid by
   NKREDY  =     1    reduce k-point grid by
   NKREDZ  =     1    reduce k-point grid by
   SHIFTRED=     F    shift reduced grid of Gamma
   HFKIDENT=     F    idential grid for each k-point
   ODDONLY =     F    use only odd q-grid points
   EVENONLY=     F    use only even q-grid points
   HFALPHA =   -1.0000 decay constant for conv. correction
   MCALPHA =    0.0000 extent of test-charge in conv. correction in multipole expansion
   AEXX    =    0.2500 exact exchange contribution
   HFSCREEN=    0.2000 screening length (either q_TF or 0.3 A-1)
   HFSCREENC=   0.2000 screening length for correlation (either q_TF or 0.3 A-1)
   HFRCUT  =    0.0000 spherical cutoff for potential kernel
   ALDAX   =    0.7500 LDA exchange part
   AGGAX   =    0.7500 GGA exchange part
   ALDAC   =    1.0000 LDA correlation
   AGGAC   =    1.0000 GGA correlation
   NBANDSGWLOW=     1    first orbital included in HF term
 Linear response parameters
   LEPSILON=     F    determine dielectric tensor
   LRPA    =     F    only Hartree local field effects (RPA)
   LNABLA  =     F    use nabla operator in PAW spheres
   LVEL    =     F    velocity operator in full k-point grid
   LINTERFAST=   F  fast interpolation
   KINTER  =     0    interpolate to denser k-point grid
   CSHIFT  =0.1000    complex shift for real part using Kramers Kronig
   OMEGAMAX=  -1.0    maximum frequency
   DEG_THRESHOLD= 0.2000000E-02 threshold for treating states as degnerate
   RTIME   =    0.100 relaxation time in fs

 Orbital magnetization related:
   ORBITALMAG=     F  switch on orbital magnetization
   LCHIMAG   =     F  perturbation theory with respect to B field
   DQ        =  0.001000  dq finite difference perturbation B field



--------------------------------------------------------------------------------------------------------


 Static calculation
 charge density and potential will be updated during run
 non-spin polarized calculation
 Conjugate gradient for all bands, subspace preconditioning
 perform sub-space diagonalisation
    before iterative eigenvector-optimisation
 modified Broyden-mixing scheme, WC =      100.0
 initial mixing is a Kerker type mixing with AMIX =  0.4000 and BMIX =      1.0000
 Hartree-type preconditioning will be used
 using additional bands           24
 reciprocal scheme for non local part
 use partial core corrections
 no Harris-corrections to forces 
 use gradient corrections 
 use of overlap-Matrix (Vanderbilt PP)
 Methfessel and Paxton  Order N= 1 SIGMA  =   0.10


--------------------------------------------------------------------------------------------------------


  energy-cutoff  :      400.00
  volume of cell :      221.90
      direct lattice vectors                 reciprocal lattice vectors
     3.224796000 -5.643830000  0.031572000     0.154525165 -0.088592321  0.053460880
     3.224796000  5.643830000  0.031572000     0.154525165  0.088592321  0.053460880
    -2.101946000  0.000000000  6.075537000    -0.001606004  0.000000000  0.164038877

  length of vectors
     6.500240234  6.500240234  6.428866683     0.185969598  0.185969598  0.164046738


 
 old parameters found on file WAVECAR:
  energy-cutoff  :      400.00
  volume of cell :      222.35
      direct lattice vectors                 reciprocal lattice vectors
     3.227235519 -5.642745207  0.030241751     0.154430495 -0.088609353  0.053450002
     3.227235519  5.642745207  0.030241751     0.154430495  0.088609353  0.053450002
    -2.106135241  0.000000000  6.085154262    -0.001534965  0.000000000  0.163803104

  length of vectors

 
 k-points in units of 2pi/SCALE and weight: pymatgen 4.7.6+ generated KPOINTS with g
   0.00000000  0.00000000  0.00000000       0.013
   0.03863129 -0.02214808  0.01336522       0.025
   0.07726258 -0.04429616  0.02673044       0.013
   0.03863129  0.02214808  0.01336522       0.025
   0.07726258  0.00000000  0.02673044       0.025
   0.11589387 -0.02214808  0.04009566       0.025
   0.00000000  0.04429616  0.00000000       0.025
   0.07726258  0.04429616  0.02673044       0.013
   0.11589387  0.02214808  0.04009566       0.025
   0.15452516  0.00000000  0.05346088       0.013
  -0.00032120  0.00000000  0.03280778       0.025
   0.03831009 -0.02214808  0.04617300       0.025
   0.07694138 -0.04429616  0.05953822       0.025
  -0.03895249  0.02214808  0.01944256       0.025
   0.03831009  0.02214808  0.04617300       0.025
   0.07694138  0.00000000  0.05953822       0.025
   0.11557267 -0.02214808  0.07290344       0.025
  -0.00032120  0.04429616  0.03280778       0.025
   0.07694138  0.04429616  0.05953822       0.025
   0.11557267  0.02214808  0.07290344       0.025
   0.15420396  0.00000000  0.08626865       0.025
   0.03831009  0.06644424  0.04617300       0.025
  -0.03895249 -0.02214808  0.01944256       0.025
  -0.00032120 -0.04429616  0.03280778       0.025
   0.03831009 -0.06644424  0.04617300       0.025
  -0.07758378  0.00000000  0.00607734       0.025
  -0.00064240  0.00000000  0.06561555       0.025
   0.03798889 -0.02214808  0.07898077       0.025
   0.07662018 -0.04429616  0.09234599       0.025
  -0.03927369  0.02214808  0.05225033       0.025
   0.03798889  0.02214808  0.07898077       0.025
   0.07662018  0.00000000  0.09234599       0.025
   0.11525147 -0.02214808  0.10571121       0.025
  -0.00064240  0.04429616  0.06561555       0.025
   0.07662018  0.04429616  0.09234599       0.025
   0.11525147  0.02214808  0.10571121       0.025
   0.15388276  0.00000000  0.11907643       0.025
   0.03798889  0.06644424  0.07898077       0.025
  -0.03927369 -0.02214808  0.05225033       0.025
  -0.00064240 -0.04429616  0.06561555       0.025
   0.03798889 -0.06644424  0.07898077       0.025
  -0.07790498  0.00000000  0.03888511       0.025
 
 k-points in reciprocal lattice and weights: pymatgen 4.7.6+ generated KPOINTS with g
   0.00000000  0.00000000  0.00000000       0.013
   0.25000000  0.00000000  0.00000000       0.025
   0.50000000  0.00000000  0.00000000       0.013
   0.00000000  0.25000000  0.00000000       0.025
   0.25000000  0.25000000  0.00000000       0.025
   0.50000000  0.25000000 -0.00000000       0.025
  -0.25000000  0.25000000  0.00000000       0.025
   0.00000000  0.50000000  0.00000000       0.013
   0.25000000  0.50000000 -0.00000000       0.025
   0.50000000  0.50000000  0.00000000       0.013
  -0.00000000 -0.00000000  0.20000000       0.025
   0.25000000  0.00000000  0.20000000       0.025
   0.50000000  0.00000000  0.20000000       0.025
  -0.25000000 -0.00000000  0.20000000       0.025
   0.00000000  0.25000000  0.20000000       0.025
   0.25000000  0.25000000  0.20000000       0.025
   0.50000000  0.25000000  0.20000000       0.025
  -0.25000000  0.25000000  0.20000000       0.025
   0.00000000  0.50000000  0.20000000       0.025
   0.25000000  0.50000000  0.20000000       0.025
   0.50000000  0.50000000  0.20000000       0.025
  -0.25000000  0.50000000  0.20000000       0.025
  -0.00000000 -0.25000000  0.20000000       0.025
   0.25000000 -0.25000000  0.20000000       0.025
   0.50000000 -0.25000000  0.20000000       0.025
  -0.25000000 -0.25000000  0.20000000       0.025
  -0.00000000 -0.00000000  0.40000000       0.025
   0.25000000  0.00000000  0.40000000       0.025
   0.50000000  0.00000000  0.40000000       0.025
  -0.25000000  0.00000000  0.40000000       0.025
   0.00000000  0.25000000  0.40000000       0.025
   0.25000000  0.25000000  0.40000000       0.025
   0.50000000  0.25000000  0.40000000       0.025
  -0.25000000  0.25000000  0.40000000       0.025
   0.00000000  0.50000000  0.40000000       0.025
   0.25000000  0.50000000  0.40000000       0.025
   0.50000000  0.50000000  0.40000000       0.025
  -0.25000000  0.50000000  0.40000000       0.025
   0.00000000 -0.25000000  0.40000000       0.025
   0.25000000 -0.25000000  0.40000000       0.025
   0.50000000 -0.25000000  0.40000000       0.025
  -0.25000000 -0.25000000  0.40000000       0.025
 
 position of ions in fractional coordinates (direct lattice) 
   0.61844300  0.12270940  0.11953300
   0.12117100  0.61844300  0.61953300
   0.96295700  0.79032200  0.11881300
   0.79032200  0.96295700  0.61881300
   0.43973200  0.26728100  0.59904700
   0.26728100  0.43973200  0.09904700
   0.07949800  0.91167500  0.49736300
   0.57140300  0.41236400  0.98018400
   0.73711100  0.25006200  0.49504900
   0.41236400  0.57140300  0.48018400
   0.91167500  0.07949800  0.99736300
   0.25006200  0.73711100  0.99504900
 
 position of ions in cartesian coordinates  (Angst):
   2.13881340 -2.79783614  0.74962683
   1.08287936  2.80651863  3.78734676
   5.40422860 -0.97432259  0.77720730
   4.35325560  0.97432259  3.81497580
   1.02080825 -0.97328413  3.66185403
   2.07178125  0.97328413  0.62408553
   2.15090056  4.69666552  3.05304062
   1.11215405 -0.89758908  5.98620365
   2.14286528 -2.74882176  3.03885554
   2.16312705  0.89758908  2.94843515
   1.09992756 -4.69666552  6.09080912
   1.09189228  2.74882176  6.07662404
 


--------------------------------------------------------------------------------------------------------


 k-point  1 :   0.0000 0.0000 0.0000  plane waves:    4051
 k-point  2 :   0.2500 0.0000 0.0000  plane waves:    4032
 k-point  3 :   0.5000 0.0000 0.0000  plane waves:    4030
 k-point  4 :   0.0000 0.2500 0.0000  plane waves:    4032
 k-point  5 :   0.2500 0.2500 0.0000  plane waves:    4038
 k-point  6 :   0.5000 0.2500-0.0000  plane waves:    4037
 k-point  7 :  -0.2500 0.2500 0.0000  plane waves:    4042
 k-point  8 :   0.0000 0.5000 0.0000  plane waves:    4030
 k-point  9 :   0.2500 0.5000-0.0000  plane waves:    4037
 k-point 10 :   0.5000 0.5000 0.0000  plane waves:    4026
 k-point 11 :  -0.0000-0.0000 0.2000  plane waves:    4046
 k-point 12 :   0.2500 0.0000 0.2000  plane waves:    4034
 k-point 13 :   0.5000 0.0000 0.2000  plane waves:    4025
 k-point 14 :  -0.2500-0.0000 0.2000  plane waves:    4044
 k-point 15 :   0.0000 0.2500 0.2000  plane waves:    4034
 k-point 16 :   0.2500 0.2500 0.2000  plane waves:    4017
 k-point 17 :   0.5000 0.2500 0.2000  plane waves:    4039
 k-point 18 :  -0.2500 0.2500 0.2000  plane waves:    4042
 k-point 19 :   0.0000 0.5000 0.2000  plane waves:    4025
 k-point 20 :   0.2500 0.5000 0.2000  plane waves:    4039
 k-point 21 :   0.5000 0.5000 0.2000  plane waves:    4030
 k-point 22 :  -0.2500 0.5000 0.2000  plane waves:    4030
 k-point 23 :  -0.0000-0.2500 0.2000  plane waves:    4044
 k-point 24 :   0.2500-0.2500 0.2000  plane waves:    4042
 k-point 25 :   0.5000-0.2500 0.2000  plane waves:    4030
 k-point 26 :  -0.2500-0.2500 0.2000  plane waves:    4020
 k-point 27 :  -0.0000-0.0000 0.4000  plane waves:    4027
 k-point 28 :   0.2500 0.0000 0.4000  plane waves:    4034
 k-point 29 :   0.5000 0.0000 0.4000  plane waves:    4013
 k-point 30 :  -0.2500 0.0000 0.4000  plane waves:    4042
 k-point 31 :   0.0000 0.2500 0.4000  plane waves:    4034
 k-point 32 :   0.2500 0.2500 0.4000  plane waves:    4009
 k-point 33 :   0.5000 0.2500 0.4000  plane waves:    4026
 k-point 34 :  -0.2500 0.2500 0.4000  plane waves:    4027
 k-point 35 :   0.0000 0.5000 0.4000  plane waves:    4013
 k-point 36 :   0.2500 0.5000 0.4000  plane waves:    4026
 k-point 37 :   0.5000 0.5000 0.4000  plane waves:    4037
 k-point 38 :  -0.2500 0.5000 0.4000  plane waves:    4022
 k-point 39 :   0.0000-0.2500 0.4000  plane waves:    4042
 k-point 40 :   0.2500-0.2500 0.4000  plane waves:    4027
 k-point 41 :   0.5000-0.2500 0.4000  plane waves:    4022
 k-point 42 :  -0.2500-0.2500 0.4000  plane waves:    4015

 maximum and minimum number of plane-waves per node :      4051     4009

 maximum number of plane-waves:      4051
 maximum index in each direction: 
   IXMAX=   10   IYMAX=   10   IZMAX=   10
   IXMIN=  -11   IYMIN=  -11   IZMIN=  -10

 WARNING: aliasing errors must be expected set NGX to  44 to avoid them
 WARNING: aliasing errors must be expected set NGY to  44 to avoid them
 WARNING: aliasing errors must be expected set NGZ to  42 to avoid them
 aliasing errors are usually negligible using standard VASP settings
 and one can safely disregard these warnings

 serial   3D FFT for wavefunctions
 parallel 3D FFT for charge:
    minimum data exchange during FFTs selected (reduces bandwidth)


 FFT grid for exact exchange (Hartree Fock) 
  NGX = 24; NGY = 24; NGZ = 24

 
 Radii for the augmentation spheres in the non-local exchange
 for species   1 augmentation radius   1.120 (default was   0.830)
       energy cutoff for augmentation   1600.0
 for species   2 augmentation radius   1.570 (default was   1.163)
       energy cutoff for augmentation   1600.0
 for species   3 augmentation radius   1.034 (default was   0.970)
       energy cutoff for augmentation   1600.0

 total amount of memory used by VASP on root node   151697. kBytes
========================================================================

   base      :      30000. kBytes
   nonl-proj :      74517. kBytes
   fftplans  :        702. kBytes
   grid      :       2400. kBytes
   one-center:        186. kBytes
   HF        :        194. kBytes
   nonlr-proj:       1122. kBytes
   wavefun   :      42576. kBytes
 
 Broyden mixing: mesh for mixing (old mesh)
   NGX = 21   NGY = 21   NGZ = 21
  (NGX  = 64   NGY  = 64   NGZ  = 64)
  gives a total of   9261 points

 charge density for first step will be calculated from the start-wavefunctions


--------------------------------------------------------------------------------------------------------


 Maximum index for augmentation-charges          485 (set IRDMAX)


--------------------------------------------------------------------------------------------------------


 initial charge from wavefunction
 First call to EWALD:  gamma=   0.293
 Maximum number of real-space cells 3x 3x 3
 Maximum number of reciprocal cells 3x 3x 3

 FEWALD executed in parallel
    FEWALD:  cpu time    0.00: real time    0.00


----------------------------------------- Iteration    1(   1)  ---------------------------------------


    POTLOK:  cpu time    0.05: real time    0.05
    SETDIJ:  cpu time    1.93: real time    1.93
 
    SUBROT:  cpu time    0.74: real time    0.74
    SUBROT:  cpu time    0.34: real time    0.34
    SUBROT:  cpu time    0.37: real time    0.37
    --------------------------------------------
    SUBRT+:  cpu time    1.45: real time    1.46

 Broyden mixing:
  rms(total) = 0.33191E-01    rms(broyden)= 0.33175E-01
  rms(prec ) = 0.49115E-01
  weight for this iteration     100.00

 eigenvalues of (default mixing * dielectric matrix)
  average eigenvalue GAMMA=   1.7427
  1.0371  2.4482
 
    TRIAL :  cpu time  259.74: real time  259.66
    CORREC:  cpu time    0.00: real time    0.00
    CHARGE:  cpu time    0.06: real time    0.06
    --------------------------------------------
      LOOP:  cpu time  261.80: real time  261.75

 eigenvalue-minimisations  :     0
 total energy-change (2. order) : 0.7570374E+02  (-0.2136445E+03)
 number of electron     112.0001344 magnetization 
 augmentation part       38.9140816 magnetization 

 Free energy of the ion-electron system (eV)
  ---------------------------------------------------
  alpha Z        PSCENC =       339.31929130
  Ewald energy   TEWEN  =     -9065.51802131
  -1/2 Hartree   DENC   =     -8066.45856441
  -exchange  EXHF       =       327.44124964
  -V(xc)+E(xc)   XCENC  =       369.89476857
  PAW double counting   =     16956.84637096   -17449.58199477
  entropy T*S    EENTRO =        -0.00145992
  eigenvalues    EBANDS =     -1657.22304327
  atomic energy  EATOM  =     18320.98302006
  ---------------------------------------------------
  free energy    TOTEN  =        75.70374006 eV

  energy without entropy =       75.70519999  energy(sigma->0) =       75.70422670


--------------------------------------------------------------------------------------------------------




----------------------------------------- Iteration    1(   2)  ---------------------------------------


    POTLOK:  cpu time    0.05: real time    0.06
    SETDIJ:  cpu time    1.93: real time    1.93
 
    SUBROT:  cpu time    0.67: real time    0.67
    SUBROT:  cpu time    0.37: real time    0.37
    SUBROT:  cpu time    0.36: real time    0.36
    SUBROT:  cpu time    0.37: real time    0.36
    --------------------------------------------
    SUBRT+:  cpu time    1.76: real time    1.76

 Broyden mixing:
  rms(total) = 0.28462E-01    rms(broyden)= 0.28453E-01
  rms(prec ) = 0.51755E-01
  weight for this iteration     100.00

 eigenvalues of (default mixing * dielectric matrix)
  average eigenvalue GAMMA=   1.5552
  2.5390  1.2684  0.8582
 
    TRIAL :  cpu time  266.23: real time  265.99
    CORREC:  cpu time    0.00: real time    0.00
    CHARGE:  cpu time    0.06: real time    0.06
    --------------------------------------------
      LOOP:  cpu time  268.28: real time  268.05

 eigenvalue-minimisations  :     0
 total energy-change (2. order) :-0.8394539E+02  (-0.1471917E+03)
 number of electron     112.0001260 magnetization 
 augmentation part       35.4473325 magnetization 

 Free energy of the ion-electron system (eV)
  ---------------------------------------------------
  alpha Z        PSCENC =       339.31929130
  Ewald energy   TEWEN  =     -9065.51802131
  -1/2 Hartree   DENC   =     -8370.14322447
  -exchange  EXHF       =       338.96531655
  -V(xc)+E(xc)   XCENC  =       377.33512503
  PAW double counting   =     17431.40248043   -17970.65546697
  entropy T*S    EENTRO =        -0.00068004
  eigenvalues    EBANDS =     -1409.92871006
  atomic energy  EATOM  =     18320.98302006
  ---------------------------------------------------
  free energy    TOTEN  =        -8.24164935 eV

  energy without entropy =       -8.24096930  energy(sigma->0) =       -8.24142267


--------------------------------------------------------------------------------------------------------




----------------------------------------- Iteration    1(   3)  ---------------------------------------


    POTLOK:  cpu time    0.07: real time    0.07
    SETDIJ:  cpu time    1.93: real time    1.93
 
    SUBROT:  cpu time    0.71: real time    0.71
    SUBROT:  cpu time    0.34: real time    0.34
    SUBROT:  cpu time    0.35: real time    0.35
    SUBROT:  cpu time    0.33: real time    0.33
    --------------------------------------------
    SUBRT+:  cpu time    1.74: real time    1.75

 Broyden mixing:
  rms(total) = 0.28090E-01    rms(broyden)= 0.28078E-01
  rms(prec ) = 0.52383E-01
  weight for this iteration     100.00

 eigenvalues of (default mixing * dielectric matrix)
  average eigenvalue GAMMA=   1.7750
  1.0115  2.4991  1.8143
 
    TRIAL :  cpu time  263.32: real time  263.10
    CORREC:  cpu time    0.00: real time    0.00
    CHARGE:  cpu time    0.06: real time    0.06
    --------------------------------------------
      LOOP:  cpu time  265.38: real time  265.17

 eigenvalue-minimisations  :     0
 total energy-change (2. order) :-0.6756494E+01  (-0.2045745E+03)
 number of electron     112.0001374 magnetization 
 augmentation part       39.6882252 magnetization 

 Free energy of the ion-electron system (eV)
  ---------------------------------------------------
  alpha Z        PSCENC =       339.31929130
  Ewald energy   TEWEN  =     -9065.51802131
  -1/2 Hartree   DENC   =     -7474.86663568
  -exchange  EXHF       =       324.94439811
  -V(xc)+E(xc)   XCENC  =       357.35365695
  PAW double counting   =     15150.92114750   -15580.30929406
  entropy T*S    EENTRO =         0.00030746
  eigenvalues    EBANDS =     -2387.82502644
  atomic energy  EATOM  =     18320.98302006
  ---------------------------------------------------
  free energy    TOTEN  =       -14.99814360 eV

  energy without entropy =      -14.99845107  energy(sigma->0) =      -14.99824609


--------------------------------------------------------------------------------------------------------




----------------------------------------- Iteration    1(   4)  ---------------------------------------


    POTLOK:  cpu time    0.10: real time    0.10
    SETDIJ:  cpu time    2.02: real time    2.02
 
    SUBROT:  cpu time    0.75: real time    0.75
    SUBROT:  cpu time    0.35: real time    0.35
    SUBROT:  cpu time    0.33: real time    0.33
    SUBROT:  cpu time    0.35: real time    0.35
    SUBROT:  cpu time    0.35: real time    0.35
    --------------------------------------------
    SUBRT+:  cpu time    2.14: real time    2.15

 Broyden mixing:
  rms(total) = 0.12146E+00    rms(broyden)= 0.12125E+00
  rms(prec ) = 0.21364E+00
  weight for this iteration     100.00

 eigenvalues of (default mixing * dielectric matrix)
  average eigenvalue GAMMA=   1.1855
  2.5231  1.2093  0.6286  0.3812
 
    TRIAL :  cpu time  265.73: real time  265.50
    CORREC:  cpu time    0.00: real time    0.00
    CHARGE:  cpu time    0.06: real time    0.06
    --------------------------------------------
      LOOP:  cpu time  267.92: real time  267.69

 eigenvalue-minimisations  :     0
 total energy-change (2. order) :-0.7500766E+01  (-0.1077065E+03)
 number of electron     112.0001300 magnetization 
 augmentation part       37.2416318 magnetization 

 Free energy of the ion-electron system (eV)
  ---------------------------------------------------
  alpha Z        PSCENC =       339.31929130
  Ewald energy   TEWEN  =     -9065.51802131
  -1/2 Hartree   DENC   =     -8542.97632469
  -exchange  EXHF       =       342.99676806
  -V(xc)+E(xc)   XCENC  =       381.67177751
  PAW double counting   =     17636.43734984   -18217.40118594
  entropy T*S    EENTRO =         0.00037413
  eigenvalues    EBANDS =     -1218.01189159
  atomic energy  EATOM  =     18320.98302006
  ---------------------------------------------------
  free energy    TOTEN  =       -22.49890929 eV

  energy without entropy =      -22.49928342  energy(sigma->0) =      -22.49903400


--------------------------------------------------------------------------------------------------------




----------------------------------------- Iteration    1(   5)  ---------------------------------------


    POTLOK:  cpu time    0.09: real time    0.09
    SETDIJ:  cpu time    2.04: real time    2.04
 
    SUBROT:  cpu time    0.71: real time    0.71
    SUBROT:  cpu time    0.35: real time    0.35
    SUBROT:  cpu time    0.34: real time    0.34
    SUBROT:  cpu time    0.34: real time    0.34
    --------------------------------------------
    SUBRT+:  cpu time    1.73: real time    1.74

 Broyden mixing:
  rms(total) = 0.48080E-01    rms(broyden)= 0.48069E-01
  rms(prec ) = 0.96893E-01
  weight for this iteration     100.00

 eigenvalues of (default mixing * dielectric matrix)
  average eigenvalue GAMMA=   1.6664
  2.4647  0.9368  1.5977
 
    TRIAL :  cpu time  266.78: real time  266.56
    CORREC:  cpu time    0.00: real time    0.00
    CHARGE:  cpu time    0.06: real time    0.06
    --------------------------------------------
      LOOP:  cpu time  268.97: real time  268.75

 eigenvalue-minimisations  :     0
 total energy-change (2. order) :-0.3828978E+02  (-0.1509654E+02)
 number of electron     112.0001300 magnetization 
 augmentation part       37.2390184 magnetization 

 Free energy of the ion-electron system (eV)
  ---------------------------------------------------
  alpha Z        PSCENC =       339.31929130
  Ewald energy   TEWEN  =     -9065.51802131
  -1/2 Hartree   DENC   =     -8006.61353886
  -exchange  EXHF       =       336.36447777
  -V(xc)+E(xc)   XCENC  =       368.38174168
  PAW double counting   =     15868.57204944   -16338.02404063
  entropy T*S    EENTRO =         0.00061799
  eigenvalues    EBANDS =     -1884.25404075
  atomic energy  EATOM  =     18320.98302006
  ---------------------------------------------------
  free energy    TOTEN  =       -60.78868716 eV

  energy without entropy =      -60.78930516  energy(sigma->0) =      -60.78889316


--------------------------------------------------------------------------------------------------------




----------------------------------------- Iteration    1(   6)  ---------------------------------------


    POTLOK:  cpu time    0.06: real time    0.06
    SETDIJ:  cpu time    2.02: real time    2.02
 
    SUBROT:  cpu time    0.71: real time    0.71
    SUBROT:  cpu time    0.34: real time    0.34
    SUBROT:  cpu time    0.36: real time    0.36
    SUBROT:  cpu time    0.36: real time    0.36
    --------------------------------------------
    SUBRT+:  cpu time    1.77: real time    1.78

 Broyden mixing:
  rms(total) = 0.28116E-02    rms(broyden)= 0.28108E-02
  rms(prec ) = 0.46338E-02
  weight for this iteration     100.00

 eigenvalues of (default mixing * dielectric matrix)
  average eigenvalue GAMMA=   1.8027
  0.9969  1.8814  2.5300
 
    TRIAL :  cpu time  266.11: real time  265.88
    CORREC:  cpu time    0.00: real time    0.00
    CHARGE:  cpu time    0.05: real time    0.05
    --------------------------------------------
      LOOP:  cpu time  268.25: real time  268.03

 eigenvalue-minimisations  :     0
 total energy-change (2. order) :-0.5105117E+01  (-0.8280064E+01)
 number of electron     112.0001327 magnetization 
 augmentation part       38.2308043 magnetization 

 Free energy of the ion-electron system (eV)
  ---------------------------------------------------
  alpha Z        PSCENC =       339.31929130
  Ewald energy   TEWEN  =     -9065.51802131
  -1/2 Hartree   DENC   =     -7998.23390076
  -exchange  EXHF       =       337.09919905
  -V(xc)+E(xc)   XCENC  =       368.73734304
  PAW double counting   =     15767.66549820   -16236.61499314
  entropy T*S    EENTRO =         0.00063500
  eigenvalues    EBANDS =     -1899.33185899
  atomic energy  EATOM  =     18320.98302006
  ---------------------------------------------------
  free energy    TOTEN  =       -65.89380457 eV

  energy without entropy =      -65.89443958  energy(sigma->0) =      -65.89401624


--------------------------------------------------------------------------------------------------------




----------------------------------------- Iteration    1(   7)  ---------------------------------------


    POTLOK:  cpu time    0.05: real time    0.05
    SETDIJ:  cpu time    2.02: real time    2.02
 
    SUBROT:  cpu time    0.69: real time    0.69
    SUBROT:  cpu time    0.33: real time    0.33
    SUBROT:  cpu time    0.34: real time    0.34
    SUBROT:  cpu time    0.33: real time    0.33
    --------------------------------------------
    SUBRT+:  cpu time    1.70: real time    1.70

 Broyden mixing:
  rms(total) = 0.13470E-01    rms(broyden)= 0.13466E-01
  rms(prec ) = 0.23936E-01
  weight for this iteration     100.00

 eigenvalues of (default mixing * dielectric matrix)
  average eigenvalue GAMMA=   1.6053
  2.5027  0.8869  1.4263
 
    TRIAL :  cpu time  266.72: real time  266.48
    CORREC:  cpu time    0.00: real time    0.00
    CHARGE:  cpu time    0.05: real time    0.05
    --------------------------------------------
      LOOP:  cpu time  268.86: real time  268.62

 eigenvalue-minimisations  :     0
 total energy-change (2. order) :-0.1556103E+01  (-0.4182334E+01)
 number of electron     112.0001312 magnetization 
 augmentation part       37.7042446 magnetization 

 Free energy of the ion-electron system (eV)
  ---------------------------------------------------
  alpha Z        PSCENC =       339.31929130
  Ewald energy   TEWEN  =     -9065.51802131
  -1/2 Hartree   DENC   =     -8242.98195714
  -exchange  EXHF       =       341.61979375
  -V(xc)+E(xc)   XCENC  =       374.57229480
  PAW double counting   =     16209.19998089   -16712.78841286
  entropy T*S    EENTRO =         0.00041778
  eigenvalues    EBANDS =     -1631.85653242
  atomic energy  EATOM  =     18320.98302006
  ---------------------------------------------------
  free energy    TOTEN  =       -67.44990792 eV

  energy without entropy =      -67.45032570  energy(sigma->0) =      -67.45004718


--------------------------------------------------------------------------------------------------------




----------------------------------------- Iteration    1(   8)  ---------------------------------------


    POTLOK:  cpu time    0.05: real time    0.05
    SETDIJ:  cpu time    2.05: real time    2.05
 
    SUBROT:  cpu time    0.71: real time    0.71
    SUBROT:  cpu time    0.35: real time    0.35
    SUBROT:  cpu time    0.37: real time    0.37
    SUBROT:  cpu time    0.36: real time    0.36
    --------------------------------------------
    SUBRT+:  cpu time    1.78: real time    1.79

 Broyden mixing:
  rms(total) = 0.85082E-02    rms(broyden)= 0.85057E-02
  rms(prec ) = 0.14258E-01
  weight for this iteration     100.00

 eigenvalues of (default mixing * dielectric matrix)
  average eigenvalue GAMMA=   1.6674
  2.4582  0.9458  1.5982
 
    TRIAL :  cpu time  265.91: real time  265.67
    CORREC:  cpu time    0.00: real time    0.00
    CHARGE:  cpu time    0.08: real time    0.08
    --------------------------------------------
      LOOP:  cpu time  268.10: real time  267.87

 eigenvalue-minimisations  :     0
 total energy-change (2. order) :-0.1631285E+01  (-0.7758676E+00)
 number of electron     112.0001312 magnetization 
 augmentation part       37.7231997 magnetization 

 Free energy of the ion-electron system (eV)
  ---------------------------------------------------
  alpha Z        PSCENC =       339.31929130
  Ewald energy   TEWEN  =     -9065.51802131
  -1/2 Hartree   DENC   =     -8115.41413510
  -exchange  EXHF       =       339.50695083
  -V(xc)+E(xc)   XCENC  =       371.37006220
  PAW double counting   =     15915.57348899   -16396.93422306
  entropy T*S    EENTRO =         0.00071893
  eigenvalues    EBANDS =     -1777.96804489
  atomic energy  EATOM  =     18320.98302006
  ---------------------------------------------------
  free energy    TOTEN  =       -69.08119320 eV

  energy without entropy =      -69.08191213  energy(sigma->0) =      -69.08143285


--------------------------------------------------------------------------------------------------------




----------------------------------------- Iteration    1(   9)  ---------------------------------------


    POTLOK:  cpu time    0.10: real time    0.10
    SETDIJ:  cpu time    2.03: real time    2.03
 
    SUBROT:  cpu time    0.75: real time    0.75
    SUBROT:  cpu time    0.36: real time    0.36
    SUBROT:  cpu time    0.35: real time    0.36
    SUBROT:  cpu time    0.37: real time    0.37
    --------------------------------------------
    SUBRT+:  cpu time    1.83: real time    1.85

 Broyden mixing:
  rms(total) = 0.54025E-03    rms(broyden)= 0.53963E-03
  rms(prec ) = 0.86172E-03
  weight for this iteration     100.00

 eigenvalues of (default mixing * dielectric matrix)
  average eigenvalue GAMMA=   1.6329
  2.5079  0.9934  1.3973
 
    TRIAL :  cpu time  265.49: real time  265.27
    CORREC:  cpu time    0.00: real time    0.00
    CHARGE:  cpu time    0.06: real time    0.06
    --------------------------------------------
      LOOP:  cpu time  267.68: real time  267.46

 eigenvalue-minimisations  :     0
 total energy-change (2. order) :-0.3121641E+00  (-0.3910061E+00)
 number of electron     112.0001318 magnetization 
 augmentation part       37.9062450 magnetization 

 Free energy of the ion-electron system (eV)
  ---------------------------------------------------
  alpha Z        PSCENC =       339.31929130
  Ewald energy   TEWEN  =     -9065.51802131
  -1/2 Hartree   DENC   =     -8123.16143476
  -exchange  EXHF       =       339.58487371
  -V(xc)+E(xc)   XCENC  =       371.43463859
  PAW double counting   =     15911.90541221   -16393.12808393
  entropy T*S    EENTRO =         0.00085622
  eigenvalues    EBANDS =     -1770.81377209
  atomic energy  EATOM  =     18320.98302006
  ---------------------------------------------------
  free energy    TOTEN  =       -69.39335728 eV

  energy without entropy =      -69.39421350  energy(sigma->0) =      -69.39364269


--------------------------------------------------------------------------------------------------------




----------------------------------------- Iteration    1(  10)  ---------------------------------------


    POTLOK:  cpu time    0.08: real time    0.08
    SETDIJ:  cpu time    2.02: real time    2.02
 
    SUBROT:  cpu time    0.73: real time    0.73
    SUBROT:  cpu time    0.38: real time    0.38
    SUBROT:  cpu time    0.36: real time    0.36
    SUBROT:  cpu time    0.38: real time    0.38
    --------------------------------------------
    SUBRT+:  cpu time    1.85: real time    1.86

 Broyden mixing:
  rms(total) = 0.23275E-02    rms(broyden)= 0.23270E-02
  rms(prec ) = 0.38993E-02
  weight for this iteration     100.00

 eigenvalues of (default mixing * dielectric matrix)
  average eigenvalue GAMMA=   1.6722
  2.4775  0.9869  1.5522
 
    TRIAL :  cpu time  265.77: real time  265.53
    CORREC:  cpu time    0.00: real time    0.00
    CHARGE:  cpu time    0.07: real time    0.07
    --------------------------------------------
      LOOP:  cpu time  267.95: real time  267.71

 eigenvalue-minimisations  :     0
 total energy-change (2. order) :-0.1048518E+00  (-0.1537095E+00)
 number of electron     112.0001316 magnetization 
 augmentation part       37.8185547 magnetization 

 Free energy of the ion-electron system (eV)
  ---------------------------------------------------
  alpha Z        PSCENC =       339.31929130
  Ewald energy   TEWEN  =     -9065.51802131
  -1/2 Hartree   DENC   =     -8171.03356342
  -exchange  EXHF       =       340.39865430
  -V(xc)+E(xc)   XCENC  =       372.54335454
  PAW double counting   =     15994.54359659   -16482.54639117
  entropy T*S    EENTRO =         0.00069198
  eigenvalues    EBANDS =     -1718.18900615
  atomic energy  EATOM  =     18320.98302006
  ---------------------------------------------------
  free energy    TOTEN  =       -69.49820904 eV

  energy without entropy =      -69.49890102  energy(sigma->0) =      -69.49843970


--------------------------------------------------------------------------------------------------------




----------------------------------------- Iteration    1(  11)  ---------------------------------------


    POTLOK:  cpu time    0.05: real time    0.05
    SETDIJ:  cpu time    2.05: real time    2.05
 
    SUBROT:  cpu time    0.75: real time    0.75
    SUBROT:  cpu time    0.35: real time    0.35
    SUBROT:  cpu time    0.37: real time    0.37
    SUBROT:  cpu time    0.36: real time    0.36
    --------------------------------------------
    SUBRT+:  cpu time    1.83: real time    1.85

 Broyden mixing:
  rms(total) = 0.78922E-03    rms(broyden)= 0.78897E-03
  rms(prec ) = 0.15782E-02
  weight for this iteration     100.00

 eigenvalues of (default mixing * dielectric matrix)
  average eigenvalue GAMMA=   1.6684
  2.4947  0.9839  1.5266
 
    TRIAL :  cpu time  265.02: real time  264.83
    CORREC:  cpu time    0.00: real time    0.00
    CHARGE:  cpu time    0.09: real time    0.09
    --------------------------------------------
      LOOP:  cpu time  267.21: real time  267.03

 eigenvalue-minimisations  :     0
 total energy-change (2. order) :-0.7027966E-01  (-0.3708247E-01)
 number of electron     112.0001315 magnetization 
 augmentation part       37.7854890 magnetization 

 Free energy of the ion-electron system (eV)
  ---------------------------------------------------
  alpha Z        PSCENC =       339.31929130
  Ewald energy   TEWEN  =     -9065.51802131
  -1/2 Hartree   DENC   =     -8149.53641907
  -exchange  EXHF       =       340.06903276
  -V(xc)+E(xc)   XCENC  =       372.06726766
  PAW double counting   =     15942.12713506   -16427.06348104
  entropy T*S    EENTRO =         0.00058562
  eigenvalues    EBANDS =     -1742.01700611
  atomic energy  EATOM  =     18320.98302006
  ---------------------------------------------------
  free energy    TOTEN  =       -69.56848870 eV

  energy without entropy =      -69.56907432  energy(sigma->0) =      -69.56868391


--------------------------------------------------------------------------------------------------------




----------------------------------------- Iteration    1(  12)  ---------------------------------------


    POTLOK:  cpu time    0.05: real time    0.06
    SETDIJ:  cpu time    2.01: real time    2.01
 
    SUBROT:  cpu time    0.76: real time    0.76
    SUBROT:  cpu time    0.37: real time    0.37
    SUBROT:  cpu time    0.36: real time    0.36
    SUBROT:  cpu time    0.37: real time    0.37
    --------------------------------------------
    SUBRT+:  cpu time    1.87: real time    1.88

 Broyden mixing:
  rms(total) = 0.21491E-03    rms(broyden)= 0.21481E-03
  rms(prec ) = 0.46434E-03
  weight for this iteration     100.00

 eigenvalues of (default mixing * dielectric matrix)
  average eigenvalue GAMMA=   1.6089
  2.5093  0.9972  1.3201
 
    TRIAL :  cpu time  266.54: real time  266.31
    CORREC:  cpu time    0.00: real time    0.00
    CHARGE:  cpu time    0.08: real time    0.08
    --------------------------------------------
      LOOP:  cpu time  268.69: real time  268.46

 eigenvalue-minimisations  :     0
 total energy-change (2. order) :-0.1234355E-01  (-0.2308613E-01)
 number of electron     112.0001316 magnetization 
 augmentation part       37.8261017 magnetization 

 Free energy of the ion-electron system (eV)
  ---------------------------------------------------
  alpha Z        PSCENC =       339.31929130
  Ewald energy   TEWEN  =     -9065.51802131
  -1/2 Hartree   DENC   =     -8141.09290174
  -exchange  EXHF       =       339.95201299
  -V(xc)+E(xc)   XCENC  =       371.89075632
  PAW double counting   =     15920.04740641   -16403.88786860
  entropy T*S    EENTRO =         0.00053514
  eigenvalues    EBANDS =     -1751.27511329
  atomic energy  EATOM  =     18320.98302006
  ---------------------------------------------------
  free energy    TOTEN  =       -69.58083225 eV

  energy without entropy =      -69.58136739  energy(sigma->0) =      -69.58101063


--------------------------------------------------------------------------------------------------------




----------------------------------------- Iteration    1(  13)  ---------------------------------------


    POTLOK:  cpu time    0.15: real time    0.15
    SETDIJ:  cpu time    2.02: real time    2.01
 
    SUBROT:  cpu time    0.75: real time    0.75
    SUBROT:  cpu time    0.36: real time    0.36
    SUBROT:  cpu time    0.38: real time    0.38
    SUBROT:  cpu time    0.36: real time    0.36
    --------------------------------------------
    SUBRT+:  cpu time    1.85: real time    1.86

 Broyden mixing:
  rms(total) = 0.56016E-03    rms(broyden)= 0.56004E-03
  rms(prec ) = 0.95210E-03
  weight for this iteration     100.00

 eigenvalues of (default mixing * dielectric matrix)
  average eigenvalue GAMMA=   1.6894
  2.4814  0.9957  1.5909
 
    TRIAL :  cpu time  263.83: real time  263.60
    CORREC:  cpu time    0.00: real time    0.00
    CHARGE:  cpu time    0.09: real time    0.09
    --------------------------------------------
      LOOP:  cpu time  266.09: real time  265.87

 eigenvalue-minimisations  :     0
 total energy-change (2. order) :-0.9768165E-02  (-0.5157181E-02)
 number of electron     112.0001316 magnetization 
 augmentation part       37.8300448 magnetization 

 Free energy of the ion-electron system (eV)
  ---------------------------------------------------
  alpha Z        PSCENC =       339.31929130
  Ewald energy   TEWEN  =     -9065.51802131
  -1/2 Hartree   DENC   =     -8151.05890343
  -exchange  EXHF       =       340.12554484
  -V(xc)+E(xc)   XCENC  =       372.12634568
  PAW double counting   =     15936.31140298   -16421.65714728
  entropy T*S    EENTRO =         0.00052243
  eigenvalues    EBANDS =     -1740.22266840
  atomic energy  EATOM  =     18320.98302006
  ---------------------------------------------------
  free energy    TOTEN  =       -69.59060041 eV

  energy without entropy =      -69.59112284  energy(sigma->0) =      -69.59077455


--------------------------------------------------------------------------------------------------------




----------------------------------------- Iteration    1(  14)  ---------------------------------------


    POTLOK:  cpu time    0.10: real time    0.10
    SETDIJ:  cpu time    2.03: real time    2.03
 
    SUBROT:  cpu time    0.76: real time    0.76
    SUBROT:  cpu time    0.37: real time    0.37
    SUBROT:  cpu time    0.38: real time    0.38
    SUBROT:  cpu time    0.37: real time    0.37
    --------------------------------------------
    SUBRT+:  cpu time    1.88: real time    1.88

 Broyden mixing:
  rms(total) = 0.70709E-04    rms(broyden)= 0.70694E-04
  rms(prec ) = 0.14391E-03
  weight for this iteration     100.00

 eigenvalues of (default mixing * dielectric matrix)
  average eigenvalue GAMMA=   1.6228
  2.5206  0.9869  1.3609
 
    TRIAL :  cpu time  263.67: real time  263.43
    CORREC:  cpu time    0.00: real time    0.00
    CHARGE:  cpu time    0.09: real time    0.09
    --------------------------------------------
      LOOP:  cpu time  265.89: real time  265.66

 eigenvalue-minimisations  :     0
 total energy-change (2. order) :-0.2474174E-02  (-0.3823517E-02)
 number of electron     112.0001315 magnetization 
 augmentation part       37.8123498 magnetization 

 Free energy of the ion-electron system (eV)
  ---------------------------------------------------
  alpha Z        PSCENC =       339.31929130
  Ewald energy   TEWEN  =     -9065.51802131
  -1/2 Hartree   DENC   =     -8151.59671383
  -exchange  EXHF       =       340.12357891
  -V(xc)+E(xc)   XCENC  =       372.13587896
  PAW double counting   =     15934.23342244   -16419.74609663
  entropy T*S    EENTRO =         0.00053935
  eigenvalues    EBANDS =     -1739.52795692
  atomic energy  EATOM  =     18320.98302006
  ---------------------------------------------------
  free energy    TOTEN  =       -69.59307459 eV

  energy without entropy =      -69.59361394  energy(sigma->0) =      -69.59325437


--------------------------------------------------------------------------------------------------------




----------------------------------------- Iteration    1(  15)  ---------------------------------------


    POTLOK:  cpu time    0.11: real time    0.11
    SETDIJ:  cpu time    2.03: real time    2.03
 
    SUBROT:  cpu time    0.77: real time    0.77
    SUBROT:  cpu time    0.37: real time    0.37
    SUBROT:  cpu time    0.38: real time    0.38
    SUBROT:  cpu time    0.36: real time    0.36
    --------------------------------------------
    SUBRT+:  cpu time    1.88: real time    1.89

 Broyden mixing:
  rms(total) = 0.19523E-03    rms(broyden)= 0.19517E-03
  rms(prec ) = 0.33234E-03
  weight for this iteration     100.00

 eigenvalues of (default mixing * dielectric matrix)
  average eigenvalue GAMMA=   1.6698
  2.4744  0.9879  1.5472
 
    TRIAL :  cpu time  264.16: real time  263.94
    CORREC:  cpu time    0.00: real time    0.00
    CHARGE:  cpu time    0.08: real time    0.08
    --------------------------------------------
      LOOP:  cpu time  266.38: real time  266.16

 eigenvalue-minimisations  :     0
 total energy-change (2. order) :-0.1523241E-02  (-0.1048011E-02)
 number of electron     112.0001315 magnetization 
 augmentation part       37.8166928 magnetization 

 Free energy of the ion-electron system (eV)
  ---------------------------------------------------
  alpha Z        PSCENC =       339.31929130
  Ewald energy   TEWEN  =     -9065.51802131
  -1/2 Hartree   DENC   =     -8146.84259090
  -exchange  EXHF       =       340.03364382
  -V(xc)+E(xc)   XCENC  =       372.02369812
  PAW double counting   =     15922.07641522   -16406.97429617
  entropy T*S    EENTRO =         0.00055173
  eigenvalues    EBANDS =     -1744.69629734
  atomic energy  EATOM  =     18320.98302006
  ---------------------------------------------------
  free energy    TOTEN  =       -69.59459783 eV

  energy without entropy =      -69.59514956  energy(sigma->0) =      -69.59478174


--------------------------------------------------------------------------------------------------------




----------------------------------------- Iteration    1(  16)  ---------------------------------------


    POTLOK:  cpu time    0.08: real time    0.08
    SETDIJ:  cpu time    1.97: real time    1.97
 
    SUBROT:  cpu time    0.75: real time    0.75
    SUBROT:  cpu time    0.37: real time    0.37
    SUBROT:  cpu time    0.37: real time    0.37
    SUBROT:  cpu time    0.38: real time    0.38
    --------------------------------------------
    SUBRT+:  cpu time    1.87: real time    1.88

 Broyden mixing:
  rms(total) = 0.85768E-04    rms(broyden)= 0.85750E-04
  rms(prec ) = 0.14270E-03
  weight for this iteration     100.00

 eigenvalues of (default mixing * dielectric matrix)
  average eigenvalue GAMMA=   1.6886
  2.4858  0.9896  1.5904
 
    TRIAL :  cpu time  263.70: real time  263.48
    CORREC:  cpu time    0.00: real time    0.00
    CHARGE:  cpu time    0.09: real time    0.09
    --------------------------------------------
      LOOP:  cpu time  265.84: real time  265.62

 eigenvalue-minimisations  :     0
 total energy-change (2. order) :-0.5779876E-03  (-0.4143189E-03)
 number of electron     112.0001316 magnetization 
 augmentation part       37.8215426 magnetization 

 Free energy of the ion-electron system (eV)
  ---------------------------------------------------
  alpha Z        PSCENC =       339.31929130
  Ewald energy   TEWEN  =     -9065.51802131
  -1/2 Hartree   DENC   =     -8147.96461973
  -exchange  EXHF       =       340.05227643
  -V(xc)+E(xc)   XCENC  =       372.05101514
  PAW double counting   =     15922.92464416   -16408.01261453
  entropy T*S    EENTRO =         0.00055247
  eigenvalues    EBANDS =     -1743.43071908
  atomic energy  EATOM  =     18320.98302006
  ---------------------------------------------------
  free energy    TOTEN  =       -69.59517581 eV

[...]
     22      -2.2895      2.00000
     23      -1.9497      2.00000
     24      -1.6203      2.00000
     25      -1.2165      2.00000
     26      -1.0090      2.00000
     27      -0.9744      2.00000
     28      -0.7117      2.00000
     29      -0.5558      2.00000
     30      -0.3910      2.00000
     31      -0.2860      2.00000
     32      -0.1971      2.00000
     33      -0.1780      2.00000
     34      -0.1398      2.00000
     35      -0.0192      2.00000
     36       0.0216      2.00000
     37       1.2957      2.00000
     38       1.3077      2.00000
     39       1.3685      2.00000
     40       1.4112      2.00000
     41       1.4514      2.00000
     42       1.4661      2.00000
     43       1.5061      2.00000
     44       1.5494      2.00000
     45       1.7643      2.00000
     46       1.8934      2.00000
     47       1.9822      2.00000
     48       2.1539      2.00000
     49       2.3717      2.00000
     50       2.5760      2.00000
     51       2.7038      2.00000
     52       2.9094      2.00000
     53       3.0133      2.00000
     54       3.2194      2.00000
     55       3.3961      2.00000
     56       3.6557      2.00000
     57       6.3778     -0.00000
     58       6.5192     -0.00000
     59       7.7188      0.00000
     60       7.9006      0.00000
     61       8.2973      0.00000
     62       8.5727      0.00000
     63       9.3261      0.00000
     64       9.8456      0.00000
     65      10.0213      0.00000
     66      10.3526      0.00000
     67      10.5846      0.00000
     68      10.7899      0.00000
     69      10.9786      0.00000
     70      11.2541      0.00000
     71      11.3042      0.00000
     72      11.7033      0.00000
     73      12.2514      0.00000
     74      12.4635      0.00000
     75      13.1035      0.00000
     76      13.4890      0.00000
     77      13.8180      0.00000
     78      14.6923      0.00000
     79      15.0007      0.00000
     80      15.7189      0.00000

 k-point  40 :       0.2500   -0.2500    0.4000
  band No.  band energies     occupation 
      1     -68.6475      2.00000
      2     -68.6452      2.00000
      3     -68.6337      2.00000
      4     -68.6331      2.00000
      5     -68.6150      2.00000
      6     -68.6132      2.00000
      7     -68.5980      2.00000
      8     -68.5959      2.00000
      9     -68.5777      2.00000
     10     -68.5771      2.00000
     11     -68.5606      2.00000
     12     -68.5604      2.00000
     13     -12.2219      2.00000
     14     -11.8202      2.00000
     15     -10.8251      2.00000
     16     -10.6697      2.00000
     17     -10.3475      2.00000
     18     -10.2746      2.00000
     19      -5.4469      2.00000
     20      -5.1167      2.00000
     21      -2.4301      2.00000
     22      -2.1538      2.00000
     23      -2.0198      2.00000
     24      -1.5242      2.00000
     25      -1.3570      2.00000
     26      -1.1665      2.00000
     27      -0.9350      2.00000
     28      -0.8131      2.00000
     29      -0.5856      2.00000
     30      -0.5375      2.00000
     31      -0.2800      2.00000
     32      -0.2394      2.00000
     33      -0.1323      2.00000
     34      -0.0869      2.00000
     35      -0.0229      2.00000
     36       0.0333      2.00000
     37       1.3125      2.00000
     38       1.3447      2.00000
     39       1.3636      2.00000
     40       1.3958      2.00000
     41       1.4513      2.00000
     42       1.4817      2.00000
     43       1.4985      2.00000
     44       1.5653      2.00000
     45       1.8017      2.00000
     46       1.8467      2.00000
     47       1.9603      2.00000
     48       2.1110      2.00000
     49       2.2945      2.00000
     50       2.5309      2.00000
     51       2.6398      2.00000
     52       2.7698      2.00000
     53       2.9270      2.00000
     54       3.1587      2.00000
     55       3.3028      2.00000
     56       3.5741      2.00000
     57       6.5617     -0.00000
     58       6.7182     -0.00000
     59       7.9639      0.00000
     60       8.0020      0.00000
     61       8.7307      0.00000
     62       9.0916      0.00000
     63       9.4553      0.00000
     64       9.8267      0.00000
     65      10.2984      0.00000
     66      10.3670      0.00000
     67      10.7800      0.00000
     68      10.8488      0.00000
     69      11.1161      0.00000
     70      11.2710      0.00000
     71      11.3709      0.00000
     72      11.6203      0.00000
     73      12.0470      0.00000
     74      12.2927      0.00000
     75      12.6487      0.00000
     76      13.1216      0.00000
     77      13.2782      0.00000
     78      14.2391      0.00000
     79      15.6342      0.00000
     80      15.8484      0.00000

 k-point  41 :       0.5000   -0.2500    0.4000
  band No.  band energies     occupation 
      1     -68.6474      2.00000
      2     -68.6451      2.00000
      3     -68.6334      2.00000
      4     -68.6330      2.00000
      5     -68.6149      2.00000
      6     -68.6132      2.00000
      7     -68.5978      2.00000
      8     -68.5958      2.00000
      9     -68.5775      2.00000
     10     -68.5773      2.00000
     11     -68.5602      2.00000
     12     -68.5606      2.00000
     13     -12.0816      2.00000
     14     -11.7781      2.00000
     15     -10.8481      2.00000
     16     -10.7584      2.00000
     17     -10.5306      2.00000
     18     -10.3133      2.00000
     19      -5.4193      2.00000
     20      -4.9411      2.00000
     21      -2.4008      2.00000
     22      -2.1314      2.00000
     23      -1.8633      2.00000
     24      -1.7218      2.00000
     25      -1.4507      2.00000
     26      -1.1226      2.00000
     27      -0.8858      2.00000
     28      -0.6443      2.00000
     29      -0.6022      2.00000
     30      -0.4498      2.00000
     31      -0.2630      2.00000
     32      -0.1859      2.00000
     33      -0.1168      2.00000
     34      -0.0531      2.00000
     35      -0.0198      2.00000
     36       0.0247      2.00000
     37       1.2613      2.00000
     38       1.3156      2.00000
     39       1.4098      2.00000
     40       1.4372      2.00000
     41       1.4843      2.00000
     42       1.4914      2.00000
     43       1.5155      2.00000
     44       1.5742      2.00000
     45       1.7613      2.00000
     46       1.8409      2.00000
     47       2.1178      2.00000
     48       2.1853      2.00000
     49       2.3670      2.00000
     50       2.4610      2.00000
     51       2.4900      2.00000
     52       2.6931      2.00000
     53       2.8247      2.00000
     54       3.0851      2.00000
     55       3.2914      2.00000
     56       3.5250      2.00000
     57       6.4958     -0.00000
     58       6.5845     -0.00000
     59       7.4540      0.00000
     60       7.7184      0.00000
     61       8.5892      0.00000
     62       8.7439      0.00000
     63       9.3002      0.00000
     64       9.5332      0.00000
     65       9.9507      0.00000
     66      10.1852      0.00000
     67      10.6808      0.00000
     68      11.1130      0.00000
     69      11.2487      0.00000
     70      11.5696      0.00000
     71      11.7057      0.00000
     72      11.8925      0.00000
     73      12.3005      0.00000
     74      12.6591      0.00000
     75      13.0118      0.00000
     76      13.2296      0.00000
     77      13.6644      0.00000
     78      14.0626      0.00000
     79      14.3932      0.00000
     80      16.5169      0.00000

 k-point  42 :      -0.2500   -0.2500    0.4000
  band No.  band energies     occupation 
      1     -68.6476      2.00000
      2     -68.6453      2.00000
      3     -68.6330      2.00000
      4     -68.6333      2.00000
      5     -68.6149      2.00000
      6     -68.6133      2.00000
      7     -68.5979      2.00000
      8     -68.5957      2.00000
      9     -68.5774      2.00000
     10     -68.5774      2.00000
     11     -68.5608      2.00000
     12     -68.5604      2.00000
     13     -12.1809      2.00000
     14     -11.7082      2.00000
     15     -10.7178      2.00000
     16     -10.6933      2.00000
     17     -10.5841      2.00000
     18     -10.3895      2.00000
     19      -5.4460      2.00000
     20      -5.0731      2.00000
     21      -2.5089      2.00000
     22      -2.3813      2.00000
     23      -1.9628      2.00000
     24      -1.3694      2.00000
     25      -1.3306      2.00000
     26      -1.0540      2.00000
     27      -0.8357      2.00000
     28      -0.7662      2.00000
     29      -0.4232      2.00000
     30      -0.3390      2.00000
     31      -0.2723      2.00000
     32      -0.2079      2.00000
     33      -0.1416      2.00000
     34      -0.1374      2.00000
     35      -0.0100      2.00000
     36       0.0275      2.00000
     37       1.1727      2.00000
     38       1.3710      2.00000
     39       1.3977      2.00000
     40       1.4526      2.00000
     41       1.4542      2.00000
     42       1.4984      2.00000
     43       1.5172      2.00000
     44       1.5495      2.00000
     45       1.7444      2.00000
     46       1.8203      2.00000
     47       1.9757      2.00000
     48       2.2269      2.00000
     49       2.3964      2.00000
     50       2.6120      2.00000
     51       2.6552      2.00000
     52       2.9149      2.00000
     53       3.0684      2.00000
     54       3.1168      2.00000
     55       3.2848      2.00000
     56       3.5815      2.00000
     57       6.2907     -0.00000
     58       6.3792     -0.00000
     59       7.3588      0.00000
     60       7.5231      0.00000
     61       8.3077      0.00000
     62       8.3342      0.00000
     63       9.1045      0.00000
     64       9.3598      0.00000
     65       9.7166      0.00000
     66       9.9471      0.00000
     67      10.5273      0.00000
     68      10.9884      0.00000
     69      11.4243      0.00000
     70      11.5663      0.00000
     71      12.0180      0.00000
     72      12.2834      0.00000
     73      12.4270      0.00000
     74      12.4758      0.00000
     75      13.0340      0.00000
     76      13.1483      0.00000
     77      14.1429      0.00000
     78      14.4409      0.00000
     79      15.1692      0.00000
     80      15.8661      0.00000


--------------------------------------------------------------------------------------------------------


 soft charge-density along one line, spin component           1
         0         1         2         3         4         5         6         7         8         9
 total charge-density along one line
 
 pseudopotential strength for first ion, spin component:           1
-65.425   0.003   0.005   7.364  -0.000  -0.002   0.001   0.007
  0.003 -65.395  -0.004  -0.000   7.353   0.001  -0.001  -0.023
  0.005  -0.004 -65.385  -0.002   0.001   7.350  -0.036  -0.001
  7.364  -0.000  -0.002   6.110   0.000   0.001   0.002  -0.003
 -0.000   7.353   0.001   0.000   6.113  -0.000   0.000   0.007
 -0.002   0.001   7.350   0.001  -0.000   6.114   0.008   0.000
  0.001  -0.001  -0.036   0.002   0.000   0.008  -2.981  -0.002
  0.007  -0.023  -0.001  -0.003   0.007   0.000  -0.002  -2.986
  0.022   0.043   0.009  -0.005  -0.008  -0.003  -0.003   0.008
 -0.001  -0.017   0.007   0.000   0.004  -0.004   0.005   0.007
  0.025   0.000  -0.034  -0.007  -0.000   0.007   0.000   0.006
  0.002  -0.001  -0.036   0.002   0.000   0.008  -3.627  -0.002
  0.007  -0.023  -0.001  -0.003   0.007   0.000  -0.002  -3.633
  0.021   0.042   0.009  -0.005  -0.008  -0.002  -0.003   0.008
 -0.001  -0.017   0.007   0.000   0.004  -0.003   0.005   0.006
  0.025   0.000  -0.034  -0.007  -0.000   0.006   0.000   0.006
  0.007  -0.005   0.004  -0.001   0.001  -0.001  -0.001   0.000
  0.015  -0.010   0.009  -0.002   0.001  -0.002  -0.003   0.001
 total augmentation occupancy for first ion, spin component:           1
  2.000  -0.000   0.000  -0.003  -0.000   0.000   0.007  -0.005   0.001  -0.001  -0.004  -0.007   0.005  -0.001   0.001   0.004
 -0.000   2.000  -0.000  -0.000  -0.003   0.000  -0.001   0.005   0.004   0.001   0.000   0.001  -0.005  -0.005  -0.001  -0.000
  0.000  -0.000   2.000   0.000   0.000  -0.003  -0.001  -0.000  -0.001  -0.005  -0.004   0.001   0.000   0.001   0.005   0.005
 -0.003  -0.000   0.000   0.095   0.005  -0.004  -0.334   0.236  -0.071   0.015   0.019   0.282  -0.199   0.055  -0.010  -0.013
 -0.000  -0.003   0.000   0.005   0.103   0.001   0.023  -0.048  -0.445   0.015   0.008  -0.016   0.038   0.378  -0.010  -0.007
  0.000   0.000  -0.003  -0.004   0.001   0.098   0.095   0.001  -0.012   0.233   0.352  -0.074  -0.002   0.009  -0.200  -0.295
  0.007  -0.001  -0.001  -0.334   0.023   0.095   4.008  -0.796   0.087   0.208   0.148  -1.736   0.747  -0.076  -0.173  -0.141
 -0.005   0.005  -0.000   0.236  -0.048   0.001  -0.796   3.517   0.289   0.165   0.303   0.747  -1.276  -0.212  -0.123  -0.214
  0.001   0.004  -0.001  -0.071  -0.445  -0.012   0.087   0.289   4.688  -0.040  -0.113  -0.077  -0.212  -2.398   0.035   0.080
 -0.001   0.001  -0.005   0.015   0.015   0.233   0.208   0.165  -0.040   3.628   0.796  -0.173  -0.123   0.035  -1.346  -0.756
 -0.004   0.000  -0.004   0.019   0.008   0.352   0.148   0.303  -0.113   0.796   3.994  -0.141  -0.214   0.080  -0.756  -1.738
 -0.007   0.001   0.001   0.282  -0.016  -0.074  -1.736   0.747  -0.077  -0.173  -0.141   1.441  -0.700   0.068   0.143   0.134
  0.005  -0.005   0.000  -0.199   0.038  -0.002   0.747  -1.276  -0.212  -0.123  -0.214  -0.700   1.013   0.150   0.090   0.142
 -0.001  -0.005   0.001   0.055   0.378   0.009  -0.076  -0.212  -2.398   0.035   0.080   0.068   0.150   2.082  -0.030  -0.055
  0.001  -0.001   0.005  -0.010  -0.010  -0.200  -0.173  -0.123   0.035  -1.346  -0.756   0.143   0.090  -0.030   1.050   0.716
  0.004  -0.000   0.005  -0.013  -0.007  -0.295  -0.141  -0.214   0.080  -0.756  -1.738   0.134   0.142  -0.055   0.716   1.457
 -0.024   0.016  -0.013  -0.017   0.011  -0.005   0.056  -0.081  -0.028   0.007   0.043  -0.043   0.072   0.038  -0.004  -0.009
  0.011  -0.008   0.006   0.001  -0.000  -0.000  -0.006   0.001  -0.003   0.003  -0.021   0.002  -0.004  -0.002   0.000   0.004


------------------------ aborting loop because EDIFF is reached ----------------------------------------


    FORLOC:  cpu time    0.00: real time    0.00
    FORHF :  cpu time  504.35: real time  503.89
    FORNL :  cpu time    0.39: real time    0.39
    FORCOR:  cpu time    2.14: real time    2.14

 VOLUME and BASIS-vectors are now :
 -----------------------------------------------------------------------------
  energy-cutoff  :      400.00
  volume of cell :      221.90
      direct lattice vectors                 reciprocal lattice vectors
     3.224796000 -5.643830000  0.031572000     0.154525165 -0.088592321  0.053460880
     3.224796000  5.643830000  0.031572000     0.154525165  0.088592321  0.053460880
    -2.101946000  0.000000000  6.075537000    -0.001606004  0.000000000  0.164038877

  length of vectors
     6.500240234  6.500240234  6.428866683     0.185969598  0.185969598  0.164046738


 FORCES acting on ions:
    Electron-Ion                     Ewald-Force                    Non-Local-Force
 -----------------------------------------------------------------------------------------------
   -.124E+02 -.941E+02 0.119E+02   0.112E+02 0.918E+02 -.103E+02   0.981E+00 0.202E+01 -.142E+01
   -.149E+02 0.979E+02 0.108E+02   0.137E+02 -.955E+02 -.916E+01   0.102E+01 -.211E+01 -.142E+01
   0.246E+02 -.183E+02 0.440E+01   -.213E+02 0.181E+02 -.313E+01   -.285E+01 0.161E+00 -.111E+01
   0.256E+02 0.165E+02 0.483E+01   -.224E+02 -.163E+02 -.355E+01   -.284E+01 -.159E+00 -.112E+01
   -.109E+02 -.316E+02 -.111E+02   0.102E+02 0.303E+02 0.996E+01   0.682E+00 0.134E+01 0.113E+01
   -.112E+02 0.312E+02 -.112E+02   0.105E+02 -.298E+02 0.100E+02   0.681E+00 -.134E+01 0.113E+01
   -.135E+03 -.101E+02 -.491E+02   0.132E+03 0.101E+02 0.483E+02   0.279E+01 -.301E-01 0.734E+00
   0.692E+02 -.128E+03 0.972E+02   -.675E+02 0.125E+03 -.952E+02   -.157E+01 0.228E+01 -.187E+01
   0.670E+02 -.132E+03 -.498E+02   -.656E+02 0.129E+03 0.488E+02   -.135E+01 0.218E+01 0.873E+00
   0.701E+02 0.126E+03 0.961E+02   -.684E+02 -.123E+03 -.940E+02   -.156E+01 -.230E+01 -.187E+01
   -.134E+03 0.920E+01 -.496E+02   0.131E+03 -.922E+01 0.488E+02   0.279E+01 0.281E-01 0.727E+00
   0.653E+02 0.133E+03 -.503E+02   -.638E+02 -.131E+03 0.494E+02   -.136E+01 -.217E+01 0.872E+00
 -----------------------------------------------------------------------------------------------
   0.285E+01 0.867E-01 0.380E+01   -.568E-13 0.000E+00 -.284E-13   -.260E+01 -.978E-01 -.335E+01
 
 
 POSITION                                       TOTAL-FORCE (eV/Angst)
 -----------------------------------------------------------------------------------
      2.13881     -2.79784      0.74963        -0.015998     -0.028627     -0.002553
      1.08288      2.80652      3.78735        -0.002708      0.001297      0.000962
      5.40423     -0.97432      0.77721         0.003646     -0.000211      0.000562
      4.35326      0.97432      3.81498         0.002805     -0.000257      0.000883
      1.02081     -0.97328      3.66185         0.000120      0.007186     -0.002621
      2.07178      0.97328      0.62409        -0.002055     -0.001186      0.000394
      2.15090      4.69667      3.05304         0.001697      0.001351     -0.002047
      1.11215     -0.89759      5.98620         0.008762      0.004708     -0.002297
      2.14287     -2.74882      3.03886        -0.003650      0.001576     -0.001740
      2.16313      0.89759      2.94844        -0.000118      0.006486      0.000459
      1.09993     -4.69667      6.09081        -0.003413      0.012078      0.004416
      1.09189      2.74882      6.07662         0.010914     -0.004401      0.003580
 -----------------------------------------------------------------------------------
    total drift:                               -0.058691     -0.001583     -0.051354


--------------------------------------------------------------------------------------------------------



  FREE ENERGIE OF THE ION-ELECTRON SYSTEM (eV)
  ---------------------------------------------------
  free  energy   TOTEN  =       -69.59552662 eV

  energy  without entropy=      -69.59607312  energy(sigma->0) =      -69.59570879
 


--------------------------------------------------------------------------------------------------------


    POTLOK:  cpu time    2.13: real time    2.16


--------------------------------------------------------------------------------------------------------


 writing wavefunctions
     LOOP+:  cpu time 6114.82: real time 6112.18
    4ORBIT:  cpu time    0.00: real time    0.00

 total amount of memory used by VASP on root node   155705. kBytes
========================================================================

   base      :      30000. kBytes
   nonl-proj :      74517. kBytes
   fftplans  :        702. kBytes
   grid      :       2400. kBytes
   one-center:        186. kBytes
   HF        :        194. kBytes
   nonlr-proj:       5130. kBytes
   wavefun   :      42576. kBytes
 
  
  
 General timing and accounting informations for this job:
 ========================================================
  
                  Total CPU time used (sec):     6152.474
                            User time (sec):     6146.034
                          System time (sec):        6.440
                         Elapsed time (sec):     6154.645
  
                   Maximum memory used (kb):      293888.
                   Average memory used (kb):           0.
  
                          Minor page faults:        77711
                          Major page faults:            0
                 Voluntary context switches:         6835
