<?xml version="1.0" encoding="ISO-8859-1"?>
<modeling>
 <generator>
  <i name="program" type="string">vasp </i>
  <i name="version" type="string">5.3.3  </i>
  <i name="subversion" type="string">18Dez12 (build Nov 13 2015 09:58:40) complex                          parallel </i>
  <i name="platform" type="string">LinuxIFC </i>
  <i name="date" type="string">2017 10 18 </i>
  <i name="time" type="string">13:04:00 </i>
 </generator>
 <incar>
  <i type="string" name="SYSTEM"> CGS</i>
  <i type="string" name="PREC">normal</i>
  <i type="string" name="ALGO"> D</i>
  <i type="logical" name="LDIAG"> T  </i>
  <i name="EDIFF">      0.00001000</i>
  <i name="ENCUT">    400.00000000</i>
  <i name="TIME">      0.40000000</i>
  <i type="int" name="ISMEAR">     1</i>
  <i name="SIGMA">      0.10000000</i>
  <i type="logical" name="LHFCALC"> T  </i>
  <i type="string" name="GGA"> PE</i>
  <i name="HFSCREEN">      0.20000000</i>
  <i name="AEXX">      0.25000000</i>
  <i type="string" name="PRECFOCK">fast</i>
 </incar>
 <kpoints>
  <generation param="Gamma">
   <v type="int" name="divisions">       4        4        5 </v>
   <v name="usershift">      0.00000000       0.00000000       0.00000000 </v>
   <v name="genvec1">      0.25000000       0.00000000       0.00000000 </v>
   <v name="genvec2">      0.00000000       0.25000000       0.00000000 </v>
   <v name="genvec3">      0.00000000       0.00000000       0.20000000 </v>
   <v name="shift">      0.00000000       0.00000000       0.00000000 </v>
  </generation>
  <varray name="kpointlist" >
   <v>       0.00000000       0.00000000       0.00000000 </v>
   <v>       0.25000000       0.00000000       0.00000000 </v>
   <v>       0.50000000       0.00000000       0.00000000 </v>
   <v>       0.00000000       0.25000000       0.00000000 </v>
   <v>       0.25000000       0.25000000       0.00000000 </v>
   <v>       0.50000000       0.25000000      -0.00000000 </v>
   <v>      -0.25000000       0.25000000       0.00000000 </v>
   <v>       0.00000000       0.50000000       0.00000000 </v>
   <v>       0.25000000       0.50000000      -0.00000000 </v>
   <v>       0.50000000       0.50000000       0.00000000 </v>
   <v>      -0.00000000      -0.00000000       0.20000000 </v>
   <v>       0.25000000       0.00000000       0.20000000 </v>
   <v>       0.50000000       0.00000000       0.20000000 </v>
   <v>      -0.25000000      -0.00000000       0.20000000 </v>
   <v>       0.00000000       0.25000000       0.20000000 </v>
   <v>       0.25000000       0.25000000       0.20000000 </v>
   <v>       0.50000000       0.25000000       0.20000000 </v>
   <v>      -0.25000000       0.25000000       0.20000000 </v>
   <v>       0.00000000       0.50000000       0.20000000 </v>
   <v>       0.25000000       0.50000000       0.20000000 </v>
   <v>       0.50000000       0.50000000       0.20000000 </v>
   <v>      -0.25000000       0.50000000       0.20000000 </v>
   <v>      -0.00000000      -0.25000000       0.20000000 </v>
   <v>       0.25000000      -0.25000000       0.20000000 </v>
   <v>       0.50000000      -0.25000000       0.20000000 </v>
   <v>      -0.25000000      -0.25000000       0.20000000 </v>
   <v>      -0.00000000      -0.00000000       0.40000000 </v>
   <v>       0.25000000       0.00000000       0.40000000 </v>
   <v>       0.50000000       0.00000000       0.40000000 </v>
   <v>      -0.25000000       0.00000000       0.40000000 </v>
   <v>       0.00000000       0.25000000       0.40000000 </v>
   <v>       0.25000000       0.25000000       0.40000000 </v>
   <v>       0.50000000       0.25000000       0.40000000 </v>
   <v>      -0.25000000       0.25000000       0.40000000 </v>
   <v>       0.00000000       0.50000000       0.40000000 </v>
   <v>       0.25000000       0.50000000       0.40000000 </v>
   <v>       0.50000000       0.50000000       0.40000000 </v>
   <v>      -0.25000000       0.50000000       0.40000000 </v>
   <v>       0.00000000      -0.25000000       0.40000000 </v>
   <v>       0.25000000      -0.25000000       0.40000000 </v>
   <v>       0.50000000      -0.25000000       0.40000000 </v>
   <v>      -0.25000000      -0.25000000       0.40000000 </v>
  </varray>
  <varray name="weights" >
   <v>       0.01250000 </v>
   <v>       0.02500000 </v>
   <v>       0.01250000 </v>
   <v>       0.02500000 </v>
   <v>       0.02500000 </v>
   <v>       0.02500000 </v>
   <v>       0.02500000 </v>
   <v>       0.01250000 </v>
   <v>       0.02500000 </v>
   <v>       0.01250000 </v>
   <v>       0.02500000 </v>
   <v>       0.02500000 </v>
   <v>       0.02500000 </v>
   <v>       0.02500000 </v>
   <v>       0.02500000 </v>
   <v>       0.02500000 </v>
   <v>       0.02500000 </v>
   <v>       0.02500000 </v>
   <v>       0.02500000 </v>
   <v>       0.02500000 </v>
   <v>       0.02500000 </v>
   <v>       0.02500000 </v>
   <v>       0.02500000 </v>
   <v>       0.02500000 </v>
   <v>       0.02500000 </v>
   <v>       0.02500000 </v>
   <v>       0.02500000 </v>
   <v>       0.02500000 </v>
   <v>       0.02500000 </v>
   <v>       0.02500000 </v>
   <v>       0.02500000 </v>
   <v>       0.02500000 </v>
   <v>       0.02500000 </v>
   <v>       0.02500000 </v>
   <v>       0.02500000 </v>
   <v>       0.02500000 </v>
   <v>       0.02500000 </v>
   <v>       0.02500000 </v>
   <v>       0.02500000 </v>
   <v>       0.02500000 </v>
   <v>       0.02500000 </v>
   <v>       0.02500000 </v>
  </varray>
 </kpoints>
 <parameters>
  <separator name="general" >
   <i type="string" name="SYSTEM">CGS</i>
   <i type="logical" name="LCOMPAT"> F  </i>
  </separator>
  <separator name="electronic" >
   <i type="string" name="PREC">normal</i>
   <i name="ENMAX">    400.00000000</i>
   <i name="ENAUG">    758.23300000</i>
   <i name="EDIFF">      0.00001000</i>
   <i type="int" name="IALGO">    53</i>
   <i type="int" name="IWAVPR">    10</i>
   <i type="int" name="NBANDS">    80</i>
   <i name="NELECT">    112.00000000</i>
   <i type="int" name="TURBO">     0</i>
   <i type="int" name="IRESTART">     0</i>
   <i type="int" name="NREBOOT">     0</i>
   <i type="int" name="NMIN">     0</i>
   <i name="EREF">      0.00000000</i>
   <separator name="electronic smearing" >
    <i type="int" name="ISMEAR">     1</i>
    <i name="SIGMA">      0.10000000</i>
    <i name="KSPACING">      0.50000000</i>
    <i type="logical" name="KGAMMA"> T  </i>
   </separator>
   <separator name="electronic projectors" >
    <i type="logical" name="LREAL"> F  </i>
    <v name="ROPT">      0.00000000      0.00000000      0.00000000</v>
    <i type="int" name="LMAXPAW">  -100</i>
    <i type="int" name="LMAXMIX">     2</i>
    <i type="logical" name="NLSPLINE"> F  </i>
   </separator>
   <separator name="electronic startup" >
    <i type="int" name="ISTART">     1</i>
    <i type="int" name="ICHARG">     0</i>
    <i type="int" name="INIWAV">     1</i>
   </separator>
   <separator name="electronic spin" >
    <i type="int" name="ISPIN">     1</i>
    <i type="logical" name="LNONCOLLINEAR"> F  </i>
    <v name="MAGMOM">      1.00000000      1.00000000      1.00000000      1.00000000      1.00000000      1.00000000      1.00000000      1.00000000      1.00000000      1.00000000      1.00000000      1.00000000</v>
    <i name="NUPDOWN">     -1.00000000</i>
    <i type="logical" name="LSORBIT"> F  </i>
    <v name="SAXIS">      0.00000000      0.00000000      1.00000000</v>
    <i type="logical" name="LSPIRAL"> F  </i>
    <v name="QSPIRAL">      0.00000000      0.00000000      0.00000000</v>
    <i type="logical" name="LZEROZ"> F  </i>
   </separator>
   <separator name="electronic exchange-correlation" >
    <i type="logical" name="LASPH"> F  </i>
    <i type="logical" name="LMETAGGA"> F  </i>
   </separator>
   <separator name="electronic convergence" >
    <i type="int" name="NELM">    60</i>
    <i type="int" name="NELMDL">     0</i>
    <i type="int" name="NELMIN">     2</i>
    <i name="ENINI">    400.00000000</i>
    <separator name="electronic convergence detail" >
     <i type="logical" name="LDIAG"> T  </i>
     <i type="logical" name="LSUBROT"> T  </i>
     <i name="WEIMIN">      0.00000000</i>
     <i name="EBREAK">      0.00000003</i>
     <i name="DEPER">      0.30000000</i>
     <i type="int" name="NRMM">     4</i>
     <i name="TIME">      0.40000000</i>
    </separator>
   </separator>
   <separator name="electronic mixer" >
    <i name="AMIX">      0.40000000</i>
    <i name="BMIX">      1.00000000</i>
    <i name="AMIN">      0.10000000</i>
    <i name="AMIX_MAG">      1.60000000</i>
    <i name="BMIX_MAG">      1.00000000</i>
    <separator name="electronic mixer details" >
     <i type="int" name="IMIX">     4</i>
     <i type="int" name="MAXMIX">   -45</i>
     <i name="WC">    100.00000000</i>
     <i type="int" name="INIMIX">     1</i>
     <i type="int" name="MIXPRE">     1</i>
     <i type="int" name="MREMOVE">     5</i>
    </separator>
   </separator>
   <separator name="electronic dipolcorrection" >
    <i type="logical" name="LDIPOL"> F  </i>
    <i type="logical" name="LMONO"> F  </i>
    <i type="int" name="IDIPOL">     0</i>
    <i name="EPSILON">      1.00000000</i>
    <v name="DIPOL">   -100.00000000   -100.00000000   -100.00000000</v>
    <i name="EFIELD">      0.00000000</i>
   </separator>
  </separator>
  <separator name="grids" >
   <i type="int" name="NGX">    32</i>
   <i type="int" name="NGY">    32</i>
   <i type="int" name="NGZ">    32</i>
   <i type="int" name="NGXF">    64</i>
   <i type="int" name="NGYF">    64</i>
   <i type="int" name="NGZF">    64</i>
   <i type="logical" name="ADDGRID"> F  </i>
  </separator>
  <separator name="ionic" >
   <i type="int" name="NSW">     0</i>
   <i type="int" name="IBRION">    -1</i>
   <i type="int" name="ISIF">     0</i>
   <i name="PSTRESS">      0.00000000</i>
   <i name="EDIFFG">      0.00010000</i>
   <i type="int" name="NFREE">     0</i>
   <i name="POTIM">      0.50000000</i>
   <i name="SMASS">     -3.00000000</i>
   <i name="SCALEE">      1.00000000</i>
  </separator>
  <separator name="ionic md" >
   <i name="TEBEG">      0.00010000</i>
   <i name="TEEND">      0.00010000</i>
   <i type="int" name="NBLOCK">     1</i>
   <i type="int" name="KBLOCK">     1</i>
   <i type="int" name="NPACO">   256</i>
   <i name="APACO">     16.00000000</i>
  </separator>
  <separator name="symmetry" >
   <i type="int" name="ISYM">     3</i>
   <i name="SYMPREC">      0.00001000</i>
  </separator>
  <separator name="dos" >
   <i type="logical" name="LORBIT"> F  </i>
   <v name="RWIGS">     -1.00000000     -1.00000000     -1.00000000</v>
   <i type="int" name="NEDOS">   301</i>
   <i name="EMIN">     10.00000000</i>
   <i name="EMAX">    -10.00000000</i>
   <i name="EFERMI">      0.00000000</i>
  </separator>
  <separator name="writing" >
   <i type="int" name="NWRITE">     2</i>
   <i type="logical" name="LWAVE"> T  </i>
   <i type="logical" name="LCHARG"> T  </i>
   <i type="logical" name="LPARD"> F  </i>
   <i type="logical" name="LVTOT"> F  </i>
   <i type="logical" name="LVHAR"> F  </i>
   <i type="logical" name="LELF"> F  </i>
   <i type="logical" name="LOPTICS"> F  </i>
   <v name="STM">      0.00000000      0.00000000      0.00000000      0.00000000      0.00000000      0.00000000      0.00000000</v>
  </separator>
  <separator name="performance" >
   <i type="int" name="NPAR">    16</i>
   <i type="int" name="NSIM">     4</i>
   <i type="int" name="NBLK">    -1</i>
   <i type="logical" name="LPLANE"> T  </i>
   <i type="logical" name="LSCALAPACK"> T  </i>
   <i type="logical" name="LSCAAWARE"> F  </i>
   <i type="logical" name="LSCALU"> F  </i>
   <i type="logical" name="LASYNC"> F  </i>
   <i type="logical" name="LORBITALREAL"> F  </i>
  </separator>
  <separator name="miscellaneous" >
   <i type="int" name="IDIOT">     3</i>
   <i type="logical" name="LMUSIC"> F  </i>
   <v name="POMASS">     63.54600000     72.61000000     32.06600000</v>
   <v name="DARWINR">      0.00000000      0.00000000      0.00000000</v>
   <v name="DARWINV">      1.00000000      1.00000000      1.00000000</v>
   <i type="logical" name="LCORR"> T  </i>
  </separator>
  <i type="logical" name="GGA_COMPAT"> T  </i>
  <i type="logical" name="LBERRY"> F  </i>
  <i type="int" name="ICORELEVEL">     0</i>
  <i type="logical" name="LDAU"> F  </i>
  <i type="int" name="I_CONSTRAINED_M">     0</i>
  <separator name="electronic exchange-correlation" >
   <i type="string" name="GGA">PE</i>
   <i type="int" name="VOSKOWN">     0</i>
   <i type="logical" name="LHFCALC"> T  </i>
   <i type="string" name="PRECFOCK">fast</i>
   <i type="logical" name="LSYMGRAD"> F  </i>
   <i type="logical" name="LHFONE"> F  </i>
   <i type="logical" name="LRHFCALC"> F  </i>
   <i type="logical" name="LTHOMAS"> F  </i>
   <i type="logical" name="LMODELHF"> F  </i>
   <i name="ENCUT4O">     -1.00000000</i>
   <i type="int" name="EXXOEP">     0</i>
   <i type="int" name="FOURORBIT">     0</i>
   <i name="AEXX">      0.25000000</i>
   <i name="HFALPHA">     -1.00000000</i>
   <i name="MCALPHA">      0.00000000</i>
   <i name="ALDAX">      0.75000000</i>
   <i name="AGGAX">      0.75000000</i>
   <i name="ALDAC">      1.00000000</i>
   <i name="AGGAC">      1.00000000</i>
   <i type="int" name="NKREDX">     1</i>
   <i type="int" name="NKREDY">     1</i>
   <i type="int" name="NKREDZ">     1</i>
   <i type="logical" name="SHIFTRED"> F  </i>
   <i type="logical" name="ODDONLY"> F  </i>
   <i type="logical" name="EVENONLY"> F  </i>
   <i type="int" name="LMAXFOCK">     4</i>
   <i type="int" name="NMAXFOCKAE">     1</i>
   <i type="logical" name="LFOCKAEDFT"> F  </i>
   <i name="HFSCREEN">      0.20000000</i>
   <i name="HFSCREENC">      0.20000000</i>
   <i type="int" name="NBANDSGWLOW">     1</i>
  </separator>
  <separator name="vdW DFT" >
   <i type="logical" name="LUSE_VDW"> F  </i>
   <i name="Zab_VDW">     -0.84910000</i>
   <i name="PARAM1">      0.12340000</i>
   <i name="PARAM2">      1.00000000</i>
   <i name="PARAM3">      0.00000000</i>
  </separator>
  <separator name="model GW" >
   <i type="int" name="MODEL_GW">     0</i>
   <i name="MODEL_EPS0">     11.09505304</i>
   <i name="MODEL_ALPHA">      1.00000000</i>
  </separator>
  <separator name="linear response parameters" >
   <i type="logical" name="LEPSILON"> F  </i>
   <i type="logical" name="LRPA"> F  </i>
   <i type="logical" name="LNABLA"> F  </i>
   <i type="logical" name="LVEL"> F  </i>
   <i type="int" name="KINTER">     0</i>
   <i name="CSHIFT">      0.10000000</i>
   <i name="OMEGAMAX">     -1.00000000</i>
   <i name="DEG_THRESHOLD">      0.00200000</i>
  </separator>
  <separator name="orbital magnetization" >
   <i type="logical" name="NUCIND"> F  </i>
   <v name="MAGPOS">      0.00000000      0.00000000      0.00000000</v>
   <i type="logical" name="LNICSALL"> T  </i>
   <i type="logical" name="ORBITALMAG"> F  </i>
   <i type="logical" name="LMAGBLOCH"> F  </i>
   <i type="logical" name="LCHIMAG"> F  </i>
   <i type="logical" name="LGAUGE"> T  </i>
   <i type="int" name="MAGATOM">     0</i>
   <v name="MAGDIPOL">      0.00000000      0.00000000      0.00000000</v>
   <v name="AVECCONST">      0.00000000      0.00000000      0.00000000</v>
  </separator>
  <separator name="response functions" >
   <i type="logical" name="LADDER"> F  </i>
   <i type="logical" name="LFXC"> F  </i>
   <i type="logical" name="LHARTREE"> T  </i>
   <i type="int" name="IBSE">     0</i>
   <i type="logical" name="LTCTE"> F  </i>
   <i type="logical" name="LTETE"> F  </i>
   <i type="logical" name="LTRIPLET"> F  </i>
   <i type="logical" name="LFXCEPS"> F  </i>
   <i type="logical" name="L2ORDER"> F  </i>
   <i type="logical" name="LUSEW"> F  </i>
   <i name="ENCUTGW">     -2.00000000</i>
   <i name="ENCUTGWSOFT">     -2.00000000</i>
   <i name="ENCUTLF">     -1.00000000</i>
   <i type="int" name="LMAXMP2">    -1</i>
   <i name="SCISSOR">      0.00000000</i>
   <i type="int" name="NOMEGA">     0</i>
   <i type="int" name="NOMEGAR">     0</i>
   <i type="int" name="NBANDSGW">    -1</i>
   <i type="int" name="NBANDSO">    -1</i>
   <i type="int" name="NBANDSV">    -1</i>
   <i type="int" name="NELM">     1</i>
   <i type="int" name="DIM">     3</i>
   <i type="int" name="ANTIRES">     0</i>
   <i name="OMEGAMAX">    -30.00000000</i>
   <i name="OMEGATL">   -200.00000000</i>
   <i type="int" name="OMEGAGRID">     0</i>
   <i name="CSHIFT">     -0.10000000</i>
   <i type="logical" name="SELFENERGY"> F  </i>
   <i type="logical" name="LSPECTRAL"> F  </i>
   <i type="logical" name="ODDONLYGW"> F  </i>
   <i type="logical" name="EVENONLYGW"> F  </i>
   <i type="int" name="NKREDLFX">     1</i>
   <i type="int" name="NKREDLFY">     1</i>
   <i type="int" name="NKREDLFZ">     1</i>
   <i type="int" name="MAXMEM">  1800</i>
   <i type="int" name="TELESCOPE">     0</i>
  </separator>
 </parameters>
 <atominfo>
  <atoms>      12 </atoms>
  <types>       3 </types>
  <array name="atoms" >
   <dimension dim="1">ion</dimension>
   <field type="string">element</field>
   <field type="int">atomtype</field>
   <set>
    <rc><c>Cu</c><c>   1</c></rc>
    <rc><c>Cu</c><c>   1</c></rc>
    <rc><c>Cu</c><c>   1</c></rc>
    <rc><c>Cu</c><c>   1</c></rc>
    <rc><c>Ge</c><c>   2</c></rc>
    <rc><c>Ge</c><c>   2</c></rc>
    <rc><c>S </c><c>   3</c></rc>
    <rc><c>S </c><c>   3</c></rc>
    <rc><c>S </c><c>   3</c></rc>
    <rc><c>S </c><c>   3</c></rc>
    <rc><c>S </c><c>   3</c></rc>
    <rc><c>S </c><c>   3</c></rc>
   </set>
  </array>
  <array name="atomtypes" >
   <dimension dim="1">type</dimension>
   <field type="int">atomspertype</field>
   <field type="string">element</field>
   <field>mass</field>
   <field>valence</field>
   <field type="string">pseudopotential</field>
   <set>
    <rc><c>   4</c><c>Cu</c><c>     63.54600000</c><c>     17.00000000</c><c>  PAW_PBE Cu_pv 06Sep2000               </c></rc>
    <rc><c>   2</c><c>Ge</c><c>     72.61000000</c><c>      4.00000000</c><c>  PAW_PBE Ge 05Jan2001                  </c></rc>
    <rc><c>   6</c><c>S </c><c>     32.06600000</c><c>      6.00000000</c><c>  PAW_PBE S 17Jan2003                   </c></rc>
   </set>
  </array>
 </atominfo>
 <structure name="initialpos" >
  <crystal>
   <varray name="basis" >
    <v>       3.22479600      -5.64383000       0.03157200 </v>
    <v>       3.22479600       5.64383000       0.03157200 </v>
    <v>      -2.10194600       0.00000000       6.07553700 </v>
   </varray>
   <i name="volume">    221.90106089 </i>
   <varray name="rec_basis" >
    <v>       0.15452516      -0.08859232       0.05346088 </v>
    <v>       0.15452516       0.08859232       0.05346088 </v>
    <v>      -0.00160600       0.00000000       0.16403888 </v>
   </varray>
  </crystal>
  <varray name="positions" >
   <v>       0.61844300       0.12270940       0.11953300 </v>
   <v>       0.12117100       0.61844300       0.61953300 </v>
   <v>       0.96295700       0.79032200       0.11881300 </v>
   <v>       0.79032200       0.96295700       0.61881300 </v>
   <v>       0.43973200       0.26728100       0.59904700 </v>
   <v>       0.26728100       0.43973200       0.09904700 </v>
   <v>       0.07949800       0.91167500       0.49736300 </v>
   <v>       0.57140300       0.41236400       0.98018400 </v>
   <v>       0.73711100       0.25006200       0.49504900 </v>
   <v>       0.41236400       0.57140300       0.48018400 </v>
   <v>       0.91167500       0.07949800       0.99736300 </v>
   <v>       0.25006200       0.73711100       0.99504900 </v>
  </varray>
 </structure>
 <calculation>
  <scstep>
   <time name="total">  261.80  261.75</time>
   <energy>
    <i name="alphaZ">    339.31929130 </i>
    <i name="ewald">  -9065.51802131 </i>
    <i name="hartreedc">  -8066.45856441 </i>
    <i name="XCdc">    369.89476857 </i>
    <i name="pawpsdc">  16956.84637096 </i>
    <i name="pawaedc"> -17449.58199477 </i>
    <i name="eentropy">     -0.00145992 </i>
    <i name="bandstr">  -1657.22304327 </i>
    <i name="atom">  18320.98302006 </i>
    <i name="e_fr_energy">     75.70374006 </i>
    <i name="e_wo_entrp">     75.70519999 </i>
    <i name="e_0_energy">     75.70422670 </i>
   </energy>
  </scstep>
  <scstep>
   <time name="total">  268.28  268.05</time>
   <energy>
    <i name="e_fr_energy">     -8.24164935 </i>
    <i name="e_wo_entrp">     -8.24096930 </i>
    <i name="e_0_energy">     -8.24142267 </i>
   </energy>
  </scstep>
  <scstep>
   <time name="total">  265.38  265.17</time>
   <energy>
    <i name="e_fr_energy">    -14.99814360 </i>
    <i name="e_wo_entrp">    -14.99845107 </i>
    <i name="e_0_energy">    -14.99824609 </i>
   </energy>
  </scstep>
  <scstep>
   <time name="total">  267.92  267.69</time>
   <energy>
    <i name="e_fr_energy">    -22.49890929 </i>
    <i name="e_wo_entrp">    -22.49928342 </i>
    <i name="e_0_energy">    -22.49903400 </i>
   </energy>
  </scstep>
  <scstep>
   <time name="total">  268.97  268.75</time>
   <energy>
    <i name="e_fr_energy">    -60.78868716 </i>
    <i name="e_wo_entrp">    -60.78930516 </i>
    <i name="e_0_energy">    -60.78889316 </i>
   </energy>
  </scstep>
  <scstep>
   <time name="total">  268.25  268.03</time>
   <energy>
    <i name="e_fr_energy">    -65.89380457 </i>
    <i name="e_wo_entrp">    -65.89443958 </i>
    <i name="e_0_energy">    -65.89401624 </i>
   </energy>
  </scstep>
  <scstep>
   <time name="total">  268.86  268.62</time>
   <energy>
    <i name="e_fr_energy">    -67.44990792 </i>
    <i name="e_wo_entrp">    -67.45032570 </i>
    <i name="e_0_energy">    -67.45004718 </i>
   </energy>
  </scstep>
  <scstep>
   <time name="total">  268.10  267.87</time>
   <energy>
    <i name="e_fr_energy">    -69.08119320 </i>
    <i name="e_wo_entrp">    -69.08191213 </i>
    <i name="e_0_energy">    -69.08143285 </i>
   </energy>
  </scstep>
  <scstep>
   <time name="total">  267.68  267.46</time>
   <energy>
    <i name="e_fr_energy">    -69.39335728 </i>
    <i name="e_wo_entrp">    -69.39421350 </i>
    <i name="e_0_energy">    -69.39364269 </i>
   </energy>
  </scstep>
  <scstep>
   <time name="total">  267.95  267.71</time>
   <energy>
    <i name="e_fr_energy">    -69.49820904 </i>
    <i name="e_wo_entrp">    -69.49890102 </i>
    <i name="e_0_energy">    -69.49843970 </i>
   </energy>
  </scstep>
  <scstep>
   <time name="total">  267.21  267.03</time>
   <energy>
    <i name="e_fr_energy">    -69.56848870 </i>
    <i name="e_wo_entrp">    -69.56907432 </i>
    <i name="e_0_energy">    -69.56868391 </i>
   </energy>
  </scstep>
  <scstep>
   <time name="total">  268.69  268.46</time>
   <energy>
    <i name="e_fr_energy">    -69.58083225 </i>
    <i name="e_wo_entrp">    -69.58136739 </i>
    <i name="e_0_energy">    -69.58101063 </i>
   </energy>
  </scstep>
  <scstep>
   <time name="total">  266.09  265.87</time>
   <energy>
    <i name="e_fr_energy">    -69.59060041 </i>
    <i name="e_wo_entrp">    -69.59112284 </i>
    <i name="e_0_energy">    -69.59077455 </i>
   </energy>
  </scstep>
  <scstep>
   <time name="total">  265.89  265.66</time>
   <energy>
    <i name="e_fr_energy">    -69.59307459 </i>
    <i name="e_wo_entrp">    -69.59361394 </i>
    <i name="e_0_energy">    -69.59325437 </i>
   </energy>
  </scstep>
  <scstep>
   <time name="total">  266.38  266.16</time>
   <energy>
    <i name="e_fr_energy">    -69.59459783 </i>
    <i name="e_wo_entrp">    -69.59514956 </i>
    <i name="e_0_energy">    -69.59478174 </i>
   </energy>
  </scstep>
  <scstep>
   <time name="total">  265.84  265.62</time>
   <energy>
    <i name="e_fr_energy">    -69.59517581 </i>
    <i name="e_wo_entrp">    -69.59572828 </i>
    <i name="e_0_energy">    -69.59535997 </i>
   </energy>
  </scstep>
  <scstep>
   <time name="total">  266.36  266.13</time>
   <energy>
    <i name="e_fr_energy">    -69.59535107 </i>
    <i name="e_wo_entrp">    -69.59590080 </i>
    <i name="e_0_energy">    -69.59553431 </i>
   </energy>
  </scstep>
  <scstep>
   <time name="total">  268.24  268.01</time>
   <energy>
    <i name="e_fr_energy">    -69.59546958 </i>
    <i name="e_wo_entrp">    -69.59601655 </i>
    <i name="e_0_energy">    -69.59565191 </i>
   </energy>
  </scstep>
  <scstep>
   <time name="total">  266.03  265.81</time>
   <energy>
    <i name="e_fr_energy">    -69.59549896 </i>
    <i name="e_wo_entrp">    -69.59604455 </i>
    <i name="e_0_energy">    -69.59568082 </i>
   </energy>
  </scstep>
  <scstep>
   <time name="total">  266.98  266.76</time>
   <energy>
    <i name="e_fr_energy">    -69.59551909 </i>
    <i name="e_wo_entrp">    -69.59606500 </i>
    <i name="e_0_energy">    -69.59570106 </i>
   </energy>
  </scstep>
  <scstep>
   <time name="total">  263.95  263.74</time>
   <energy>
    <i name="alphaZ">    339.31929130 </i>
    <i name="ewald">  -9065.51802131 </i>
    <i name="hartreedc">  -8148.56259311 </i>
    <i name="XCdc">    372.06670902 </i>
    <i name="pawpsdc">  15921.47487570 </i>
    <i name="pawaedc"> -16406.66413616 </i>
    <i name="eentropy">      0.00054650 </i>
    <i name="bandstr">  -1742.75918462 </i>
    <i name="atom">  18320.98302006 </i>
    <i name="e_fr_energy">    -69.59552662 </i>
    <i name="e_wo_entrp">    -69.59607312 </i>
    <i name="e_0_energy">    -69.59570879 </i>
   </energy>
  </scstep>
  <structure>
   <crystal>
    <varray name="basis" >
     <v>       3.22479600      -5.64383000       0.03157200 </v>
     <v>       3.22479600       5.64383000       0.03157200 </v>
     <v>      -2.10194600       0.00000000       6.07553700 </v>
    </varray>
    <i name="volume">    221.90106089 </i>
    <varray name="rec_basis" >
     <v>       0.15452516      -0.08859232       0.05346088 </v>
     <v>       0.15452516       0.08859232       0.05346088 </v>
     <v>      -0.00160600       0.00000000       0.16403888 </v>
    </varray>
   </crystal>
   <varray name="positions" >
    <v>       0.61844300       0.12270940       0.11953300 </v>
    <v>       0.12117100       0.61844300       0.61953300 </v>
    <v>       0.96295700       0.79032200       0.11881300 </v>
    <v>       0.79032200       0.96295700       0.61881300 </v>
    <v>       0.43973200       0.26728100       0.59904700 </v>
    <v>       0.26728100       0.43973200       0.09904700 </v>
    <v>       0.07949800       0.91167500       0.49736300 </v>
    <v>       0.57140300       0.41236400       0.98018400 </v>
    <v>       0.73711100       0.25006200       0.49504900 </v>
    <v>       0.41236400       0.57140300       0.48018400 </v>
    <v>       0.91167500       0.07949800       0.99736300 </v>
    <v>       0.25006200       0.73711100       0.99504900 </v>
   </varray>
  </structure>
  <varray name="forces" >
   <v>      -0.01599843      -0.02862697      -0.00255290 </v>
   <v>      -0.00270751       0.00129662       0.00096246 </v>
   <v>       0.00364577      -0.00021057       0.00056200 </v>
   <v>       0.00280520      -0.00025721       0.00088286 </v>
   <v>       0.00012001       0.00718623      -0.00262052 </v>
   <v>      -0.00205543      -0.00118618       0.00039400 </v>
   <v>       0.00169693       0.00135106      -0.00204661 </v>
   <v>       0.00876155       0.00470770      -0.00229701 </v>
   <v>      -0.00365011       0.00157640      -0.00173972 </v>
   <v>      -0.00011814       0.00648589       0.00045894 </v>
   <v>      -0.00341347       0.01207808       0.00441606 </v>
   <v>       0.01091363      -0.00440105       0.00358043 </v>
  </varray>
  <energy>
   <i name="e_fr_energy">    -69.59552662 </i>
   <i name="e_wo_entrp">    -69.59570879 </i>
   <i name="e_0_energy">      0.00054650 </i>
  </energy>
  <time name="totalsc"> 6114.82 6112.18</time>
  <eigenvalues>
   <array>
    <dimension dim="1">band</dimension>
    <dimension dim="2">kpoint</dimension>
    <dimension dim="3">spin</dimension>
    <field>eigene</field>
    <field>occ</field>
    <set>
     <set comment="spin 1">
      <set comment="kpoint 1">
       <r>  -68.6477    1.0000 </r>
       <r>  -68.6454    1.0000 </r>
       <r>  -68.6337    1.0000 </r>
       <r>  -68.6331    1.0000 </r>
       <r>  -68.6151    1.0000 </r>
       <r>  -68.6133    1.0000 </r>
       <r>  -68.5981    1.0000 </r>
       <r>  -68.5960    1.0000 </r>
       <r>  -68.5779    1.0000 </r>
       <r>  -68.5772    1.0000 </r>
       <r>  -68.5609    1.0000 </r>
       <r>  -68.5605    1.0000 </r>
       <r>  -12.7226    1.0000 </r>
       <r>  -11.1298    1.0000 </r>
       <r>  -10.9202    1.0000 </r>
       <r>  -10.6034    1.0000 </r>
       <r>  -10.2492    1.0000 </r>
       <r>  -10.2324    1.0000 </r>
       <r>   -5.9847    1.0000 </r>
       <r>   -4.9846    1.0000 </r>
       <r>   -2.7621    1.0000 </r>
       <r>   -2.2125    1.0000 </r>
       <r>   -2.0702    1.0000 </r>
       <r>   -1.9203    1.0000 </r>
       <r>   -1.5758    1.0000 </r>
       <r>   -0.9830    1.0000 </r>
       <r>   -0.9541    1.0000 </r>
       <r>   -0.6832    1.0000 </r>
       <r>   -0.4023    1.0000 </r>
       <r>   -0.2769    1.0000 </r>
       <r>   -0.2600    1.0000 </r>
       <r>   -0.2370    1.0000 </r>
       <r>   -0.1903    1.0000 </r>
       <r>   -0.1536    1.0000 </r>
       <r>   -0.0387    1.0000 </r>
       <r>    0.0330    1.0000 </r>
       <r>    1.3496    1.0000 </r>
       <r>    1.3629    1.0000 </r>
       <r>    1.4149    1.0000 </r>
       <r>    1.4575    1.0000 </r>
       <r>    1.4714    1.0000 </r>
       <r>    1.4729    1.0000 </r>
       <r>    1.5200    1.0000 </r>
       <r>    1.5324    1.0000 </r>
       <r>    1.5738    1.0000 </r>
       <r>    1.7114    1.0000 </r>
       <r>    1.8918    1.0000 </r>
       <r>    1.9277    1.0000 </r>
       <r>    2.0596    1.0000 </r>
       <r>    2.6511    1.0000 </r>
       <r>    2.7280    1.0000 </r>
       <r>    3.0899    1.0000 </r>
       <r>    3.2179    1.0000 </r>
       <r>    4.0061    1.0047 </r>
       <r>    4.0361    1.0124 </r>
       <r>    4.1719    0.8676 </r>
       <r>    5.5365   -0.0000 </r>
       <r>    6.3578   -0.0000 </r>
       <r>    7.6297    0.0000 </r>
       <r>    7.9851    0.0000 </r>
       <r>    8.6166    0.0000 </r>
       <r>    8.7927    0.0000 </r>
       <r>    9.5711    0.0000 </r>
       <r>    9.7400    0.0000 </r>
       <r>    9.8145    0.0000 </r>
       <r>   10.4211    0.0000 </r>
       <r>   10.5821    0.0000 </r>
       <r>   10.6966    0.0000 </r>
       <r>   10.7146    0.0000 </r>
       <r>   11.2836    0.0000 </r>
       <r>   11.7120    0.0000 </r>
       <r>   12.3917    0.0000 </r>
       <r>   12.4501    0.0000 </r>
       <r>   12.7258    0.0000 </r>
       <r>   13.3215    0.0000 </r>
       <r>   13.3839    0.0000 </r>
       <r>   13.8321    0.0000 </r>
       <r>   13.8865    0.0000 </r>
       <r>   14.1416    0.0000 </r>
       <r>   14.1789    0.0000 </r>
      </set>
      <set comment="kpoint 2">
       <r>  -68.6477    1.0000 </r>
       <r>  -68.6453    1.0000 </r>
       <r>  -68.6337    1.0000 </r>
       <r>  -68.6331    1.0000 </r>
       <r>  -68.6150    1.0000 </r>
       <r>  -68.6132    1.0000 </r>
       <r>  -68.5981    1.0000 </r>
       <r>  -68.5960    1.0000 </r>
       <r>  -68.5778    1.0000 </r>
       <r>  -68.5772    1.0000 </r>
       <r>  -68.5609    1.0000 </r>
       <r>  -68.5604    1.0000 </r>
       <r>  -12.5979    1.0000 </r>
       <r>  -11.1260    1.0000 </r>
       <r>  -10.9877    1.0000 </r>
       <r>  -10.6766    1.0000 </r>
       <r>  -10.3636    1.0000 </r>
       <r>  -10.2753    1.0000 </r>
       <r>   -5.9331    1.0000 </r>
       <r>   -4.7743    1.0000 </r>
       <r>   -2.6479    1.0000 </r>
       <r>   -2.2536    1.0000 </r>
       <r>   -2.0866    1.0000 </r>
       <r>   -1.6896    1.0000 </r>
       <r>   -1.3443    1.0000 </r>
       <r>   -0.9994    1.0000 </r>
       <r>   -0.7707    1.0000 </r>
       <r>   -0.6197    1.0000 </r>
       <r>   -0.5513    1.0000 </r>
       <r>   -0.4389    1.0000 </r>
       <r>   -0.3589    1.0000 </r>
       <r>   -0.2439    1.0000 </r>
       <r>   -0.1923    1.0000 </r>
       <r>   -0.1684    1.0000 </r>
       <r>   -0.0464    1.0000 </r>
       <r>    0.0381    1.0000 </r>
       <r>    1.2791    1.0000 </r>
       <r>    1.3361    1.0000 </r>
       <r>    1.3552    1.0000 </r>
       <r>    1.3919    1.0000 </r>
       <r>    1.4267    1.0000 </r>
       <r>    1.4714    1.0000 </r>
       <r>    1.4981    1.0000 </r>
       <r>    1.5302    1.0000 </r>
       <r>    1.7238    1.0000 </r>
       <r>    1.8581    1.0000 </r>
       <r>    2.0564    1.0000 </r>
       <r>    2.0946    1.0000 </r>
       <r>    2.2317    1.0000 </r>
       <r>    2.4142    1.0000 </r>
       <r>    2.5559    1.0000 </r>
       <r>    2.8252    1.0000 </r>
       <r>    2.9467    1.0000 </r>
       <r>    3.2417    1.0000 </r>
       <r>    3.6624    1.0000 </r>
       <r>    4.0399    1.0138 </r>
       <r>    6.1687   -0.0000 </r>
       <r>    6.9066   -0.0000 </r>
       <r>    8.1360    0.0000 </r>
       <r>    8.2696    0.0000 </r>
       <r>    8.5929    0.0000 </r>
       <r>    9.0129    0.0000 </r>
       <r>    9.2427    0.0000 </r>
       <r>    9.5309    0.0000 </r>
       <r>    9.8660    0.0000 </r>
       <r>   10.3757    0.0000 </r>
       <r>   10.6329    0.0000 </r>
       <r>   10.8142    0.0000 </r>
       <r>   10.9399    0.0000 </r>
       <r>   11.1904    0.0000 </r>
       <r>   11.6540    0.0000 </r>
       <r>   11.7693    0.0000 </r>
       <r>   12.1152    0.0000 </r>
       <r>   12.4444    0.0000 </r>
       <r>   12.6199    0.0000 </r>
       <r>   13.0070    0.0000 </r>
       <r>   13.5056    0.0000 </r>
       <r>   13.8765    0.0000 </r>
       <r>   14.2109    0.0000 </r>
       <r>   14.7097    0.0000 </r>
      </set>
      <set comment="kpoint 3">
       <r>  -68.6475    1.0000 </r>
       <r>  -68.6452    1.0000 </r>
       <r>  -68.6336    1.0000 </r>
       <r>  -68.6330    1.0000 </r>
       <r>  -68.6150    1.0000 </r>
       <r>  -68.6132    1.0000 </r>
       <r>  -68.5980    1.0000 </r>
       <r>  -68.5959    1.0000 </r>
       <r>  -68.5777    1.0000 </r>
       <r>  -68.5772    1.0000 </r>
       <r>  -68.5608    1.0000 </r>
       <r>  -68.5602    1.0000 </r>
       <r>  -12.4389    1.0000 </r>
       <r>  -11.2489    1.0000 </r>
       <r>  -10.9609    1.0000 </r>
       <r>  -10.7643    1.0000 </r>
       <r>  -10.4237    1.0000 </r>
       <r>  -10.3565    1.0000 </r>
       <r>   -5.8708    1.0000 </r>
       <r>   -4.5496    1.0000 </r>
       <r>   -2.4974    1.0000 </r>
       <r>   -2.2462    1.0000 </r>
       <r>   -1.9440    1.0000 </r>
       <r>   -1.4634    1.0000 </r>
       <r>   -1.2272    1.0000 </r>
       <r>   -1.1045    1.0000 </r>
       <r>   -0.8999    1.0000 </r>
       <r>   -0.8616    1.0000 </r>
       <r>   -0.6015    1.0000 </r>
       <r>   -0.5312    1.0000 </r>
       <r>   -0.2766    1.0000 </r>
       <r>   -0.2048    1.0000 </r>
       <r>   -0.2006    1.0000 </r>
       <r>   -0.1460    1.0000 </r>
       <r>   -0.0276    1.0000 </r>
       <r>    0.0782    1.0000 </r>
       <r>    1.2538    1.0000 </r>
       <r>    1.3286    1.0000 </r>
       <r>    1.3460    1.0000 </r>
       <r>    1.3964    1.0000 </r>
       <r>    1.4703    1.0000 </r>
       <r>    1.4787    1.0000 </r>
       <r>    1.5011    1.0000 </r>
       <r>    1.5538    1.0000 </r>
       <r>    1.7524    1.0000 </r>
       <r>    1.7919    1.0000 </r>
       <r>    1.9685    1.0000 </r>
       <r>    2.1444    1.0000 </r>
       <r>    2.3191    1.0000 </r>
       <r>    2.3623    1.0000 </r>
       <r>    2.5568    1.0000 </r>
       <r>    2.6701    1.0000 </r>
       <r>    2.9338    1.0000 </r>
       <r>    3.0797    1.0000 </r>
       <r>    3.2498    1.0000 </r>
       <r>    3.8618    1.0000 </r>
       <r>    6.3837   -0.0000 </r>
       <r>    7.1000    0.0000 </r>
       <r>    7.9820    0.0000 </r>
       <r>    8.2034    0.0000 </r>
       <r>    8.5180    0.0000 </r>
       <r>    8.8211    0.0000 </r>
       <r>    9.3254    0.0000 </r>
       <r>    9.8886    0.0000 </r>
       <r>   10.0103    0.0000 </r>
       <r>   10.5205    0.0000 </r>
       <r>   10.6890    0.0000 </r>
       <r>   10.7910    0.0000 </r>
       <r>   11.1399    0.0000 </r>
       <r>   11.4066    0.0000 </r>
       <r>   11.6102    0.0000 </r>
       <r>   11.7748    0.0000 </r>
       <r>   11.9436    0.0000 </r>
       <r>   12.5023    0.0000 </r>
       <r>   12.7761    0.0000 </r>
       <r>   13.0027    0.0000 </r>
       <r>   13.3999    0.0000 </r>
       <r>   13.5421    0.0000 </r>
       <r>   13.9394    0.0000 </r>
       <r>   14.2701    0.0000 </r>
      </set>
      <set comment="kpoint 4">
       <r>  -68.6477    1.0000 </r>
       <r>  -68.6454    1.0000 </r>
       <r>  -68.6337    1.0000 </r>
       <r>  -68.6331    1.0000 </r>
       <r>  -68.6150    1.0000 </r>
       <r>  -68.6132    1.0000 </r>
       <r>  -68.5981    1.0000 </r>
       <r>  -68.5960    1.0000 </r>
       <r>  -68.5778    1.0000 </r>
       <r>  -68.5772    1.0000 </r>
       <r>  -68.5609    1.0000 </r>
       <r>  -68.5604    1.0000 </r>
       <r>  -12.5980    1.0000 </r>
       <r>  -11.1270    1.0000 </r>
       <r>  -10.9858    1.0000 </r>
       <r>  -10.6764    1.0000 </r>
       <r>  -10.3649    1.0000 </r>
       <r>  -10.2751    1.0000 </r>
       <r>   -5.9330    1.0000 </r>
       <r>   -4.7744    1.0000 </r>
       <r>   -2.6477    1.0000 </r>
       <r>   -2.2540    1.0000 </r>
       <r>   -2.0866    1.0000 </r>
       <r>   -1.6897    1.0000 </r>
       <r>   -1.3421    1.0000 </r>
       <r>   -0.9994    1.0000 </r>
       <r>   -0.7677    1.0000 </r>
       <r>   -0.6226    1.0000 </r>
       <r>   -0.5585    1.0000 </r>
       <r>   -0.4392    1.0000 </r>
       <r>   -0.3566    1.0000 </r>
       <r>   -0.2421    1.0000 </r>
       <r>   -0.1918    1.0000 </r>
       <r>   -0.1685    1.0000 </r>
       <r>   -0.0467    1.0000 </r>
       <r>    0.0396    1.0000 </r>
       <r>    1.2788    1.0000 </r>
       <r>    1.3360    1.0000 </r>
       <r>    1.3544    1.0000 </r>
       <r>    1.3925    1.0000 </r>
       <r>    1.4270    1.0000 </r>
       <r>    1.4720    1.0000 </r>
       <r>    1.4976    1.0000 </r>
       <r>    1.5301    1.0000 </r>
       <r>    1.7250    1.0000 </r>
       <r>    1.8588    1.0000 </r>
       <r>    2.0574    1.0000 </r>
       <r>    2.0932    1.0000 </r>
       <r>    2.2315    1.0000 </r>
       <r>    2.4135    1.0000 </r>
       <r>    2.5552    1.0000 </r>
       <r>    2.8252    1.0000 </r>
       <r>    2.9473    1.0000 </r>
       <r>    3.2430    1.0000 </r>
       <r>    3.6616    1.0000 </r>
       <r>    4.0388    1.0134 </r>
       <r>    6.1687   -0.0000 </r>
       <r>    6.9052   -0.0000 </r>
       <r>    8.1368    0.0000 </r>
       <r>    8.2676    0.0000 </r>
       <r>    8.5944    0.0000 </r>
       <r>    9.0125    0.0000 </r>
       <r>    9.2439    0.0000 </r>
       <r>    9.5322    0.0000 </r>
       <r>    9.8661    0.0000 </r>
       <r>   10.3767    0.0000 </r>
       <r>   10.6317    0.0000 </r>
       <r>   10.8135    0.0000 </r>
       <r>   10.9388    0.0000 </r>
       <r>   11.1914    0.0000 </r>
       <r>   11.6548    0.0000 </r>
       <r>   11.7678    0.0000 </r>
       <r>   12.1170    0.0000 </r>
       <r>   12.4428    0.0000 </r>
       <r>   12.6201    0.0000 </r>
       <r>   13.0069    0.0000 </r>
       <r>   13.5178    0.0000 </r>
       <r>   13.9000    0.0000 </r>
       <r>   14.2714    0.0000 </r>
       <r>   14.8401    0.0000 </r>
      </set>
      <set comment="kpoint 5">
       <r>  -68.6477    1.0000 </r>
       <r>  -68.6454    1.0000 </r>
       <r>  -68.6336    1.0000 </r>
       <r>  -68.6330    1.0000 </r>
       <r>  -68.6152    1.0000 </r>
       <r>  -68.6134    1.0000 </r>
       <r>  -68.5980    1.0000 </r>
       <r>  -68.5959    1.0000 </r>
       <r>  -68.5779    1.0000 </r>
       <r>  -68.5773    1.0000 </r>
       <r>  -68.5608    1.0000 </r>
       <r>  -68.5605    1.0000 </r>
       <r>  -12.4429    1.0000 </r>
       <r>  -11.1908    1.0000 </r>
       <r>  -10.9467    1.0000 </r>
       <r>  -10.8765    1.0000 </r>
       <r>  -10.3881    1.0000 </r>
       <r>  -10.3492    1.0000 </r>
       <r>   -5.8758    1.0000 </r>
       <r>   -4.5231    1.0000 </r>
       <r>   -2.4211    1.0000 </r>
       <r>   -2.2469    1.0000 </r>
       <r>   -1.7915    1.0000 </r>
       <r>   -1.6830    1.0000 </r>
       <r>   -1.3550    1.0000 </r>
       <r>   -1.2976    1.0000 </r>
       <r>   -1.0791    1.0000 </r>
       <r>   -0.6845    1.0000 </r>
       <r>   -0.5243    1.0000 </r>
       <r>   -0.2940    1.0000 </r>
       <r>   -0.2836    1.0000 </r>
       <r>   -0.2242    1.0000 </r>
       <r>   -0.1849    1.0000 </r>
       <r>   -0.1292    1.0000 </r>
       <r>   -0.0896    1.0000 </r>
       <r>    0.0777    1.0000 </r>
       <r>    1.2928    1.0000 </r>
       <r>    1.3112    1.0000 </r>
       <r>    1.4155    1.0000 </r>
       <r>    1.4262    1.0000 </r>
       <r>    1.4631    1.0000 </r>
       <r>    1.4825    1.0000 </r>
       <r>    1.4949    1.0000 </r>
       <r>    1.5701    1.0000 </r>
       <r>    1.6709    1.0000 </r>
       <r>    1.8802    1.0000 </r>
       <r>    1.9400    1.0000 </r>
       <r>    2.1336    1.0000 </r>
       <r>    2.2788    1.0000 </r>
       <r>    2.3200    1.0000 </r>
       <r>    2.5615    1.0000 </r>
       <r>    2.6507    1.0000 </r>
       <r>    2.9026    1.0000 </r>
       <r>    2.9437    1.0000 </r>
       <r>    3.6981    1.0000 </r>
       <r>    3.8322    1.0000 </r>
       <r>    6.1702   -0.0000 </r>
       <r>    6.9910    0.0000 </r>
       <r>    8.0050    0.0000 </r>
       <r>    8.3271    0.0000 </r>
       <r>    8.4336    0.0000 </r>
       <r>    8.5701    0.0000 </r>
       <r>    9.1461    0.0000 </r>
       <r>    9.2475    0.0000 </r>
       <r>   10.3609    0.0000 </r>
       <r>   10.4946    0.0000 </r>
       <r>   10.9204    0.0000 </r>
       <r>   11.1848    0.0000 </r>
       <r>   11.3281    0.0000 </r>
       <r>   11.5577    0.0000 </r>
       <r>   11.8133    0.0000 </r>
       <r>   11.9629    0.0000 </r>
       <r>   12.3138    0.0000 </r>
       <r>   12.5042    0.0000 </r>
       <r>   12.7115    0.0000 </r>
       <r>   12.9127    0.0000 </r>
       <r>   13.3408    0.0000 </r>
       <r>   13.4456    0.0000 </r>
       <r>   14.2587    0.0000 </r>
       <r>   14.3659    0.0000 </r>
      </set>
      <set comment="kpoint 6">
       <r>  -68.6474    1.0000 </r>
       <r>  -68.6452    1.0000 </r>
       <r>  -68.6336    1.0000 </r>
       <r>  -68.6331    1.0000 </r>
       <r>  -68.6149    1.0000 </r>
       <r>  -68.6131    1.0000 </r>
       <r>  -68.5980    1.0000 </r>
       <r>  -68.5959    1.0000 </r>
       <r>  -68.5775    1.0000 </r>
       <r>  -68.5773    1.0000 </r>
       <r>  -68.5604    1.0000 </r>
       <r>  -68.5606    1.0000 </r>
       <r>  -12.4431    1.0000 </r>
       <r>  -11.3539    1.0000 </r>
       <r>  -10.9417    1.0000 </r>
       <r>  -10.7368    1.0000 </r>
       <r>  -10.3881    1.0000 </r>
       <r>  -10.2687    1.0000 </r>
       <r>   -5.9476    1.0000 </r>
       <r>   -4.6433    1.0000 </r>
       <r>   -2.3940    1.0000 </r>
       <r>   -2.2289    1.0000 </r>
       <r>   -2.0574    1.0000 </r>
       <r>   -1.6399    1.0000 </r>
       <r>   -1.3625    1.0000 </r>
       <r>   -1.2823    1.0000 </r>
       <r>   -1.0203    1.0000 </r>
       <r>   -0.5106    1.0000 </r>
       <r>   -0.4816    1.0000 </r>
       <r>   -0.3298    1.0000 </r>
       <r>   -0.2825    1.0000 </r>
       <r>   -0.2192    1.0000 </r>
       <r>   -0.1505    1.0000 </r>
       <r>   -0.1313    1.0000 </r>
       <r>   -0.0095    1.0000 </r>
       <r>    0.1104    1.0000 </r>
       <r>    1.2452    1.0000 </r>
       <r>    1.3153    1.0000 </r>
       <r>    1.3831    1.0000 </r>
       <r>    1.4363    1.0000 </r>
       <r>    1.4617    1.0000 </r>
       <r>    1.4920    1.0000 </r>
       <r>    1.4962    1.0000 </r>
       <r>    1.5502    1.0000 </r>
       <r>    1.7471    1.0000 </r>
       <r>    1.8267    1.0000 </r>
       <r>    1.9225    1.0000 </r>
       <r>    2.1334    1.0000 </r>
       <r>    2.2218    1.0000 </r>
       <r>    2.3853    1.0000 </r>
       <r>    2.5599    1.0000 </r>
       <r>    2.7902    1.0000 </r>
       <r>    2.9780    1.0000 </r>
       <r>    3.3126    1.0000 </r>
       <r>    3.6035    1.0000 </r>
       <r>    3.7488    1.0000 </r>
       <r>    6.0859   -0.0000 </r>
       <r>    6.9401   -0.0000 </r>
       <r>    7.6108    0.0000 </r>
       <r>    8.0688    0.0000 </r>
       <r>    8.4107    0.0000 </r>
       <r>    8.6153    0.0000 </r>
       <r>    8.9835    0.0000 </r>
       <r>    9.1513    0.0000 </r>
       <r>   10.0875    0.0000 </r>
       <r>   10.3352    0.0000 </r>
       <r>   10.7328    0.0000 </r>
       <r>   11.1072    0.0000 </r>
       <r>   11.4596    0.0000 </r>
       <r>   11.5967    0.0000 </r>
       <r>   11.7997    0.0000 </r>
       <r>   12.0841    0.0000 </r>
       <r>   12.4787    0.0000 </r>
       <r>   12.9211    0.0000 </r>
       <r>   13.0337    0.0000 </r>
       <r>   13.8341    0.0000 </r>
       <r>   14.1969    0.0000 </r>
       <r>   14.6479    0.0000 </r>
       <r>   15.4365    0.0000 </r>
       <r>   15.6436    0.0000 </r>
      </set>
      <set comment="kpoint 7">
       <r>  -68.6477    1.0000 </r>
       <r>  -68.6454    1.0000 </r>
       <r>  -68.6337    1.0000 </r>
       <r>  -68.6331    1.0000 </r>
       <r>  -68.6150    1.0000 </r>
       <r>  -68.6132    1.0000 </r>
       <r>  -68.5981    1.0000 </r>
       <r>  -68.5959    1.0000 </r>
       <r>  -68.5778    1.0000 </r>
       <r>  -68.5771    1.0000 </r>
       <r>  -68.5609    1.0000 </r>
       <r>  -68.5604    1.0000 </r>
       <r>  -12.6008    1.0000 </r>
       <r>  -11.2507    1.0000 </r>
       <r>  -10.9954    1.0000 </r>
       <r>  -10.5696    1.0000 </r>
       <r>  -10.3654    1.0000 </r>
       <r>  -10.1776    1.0000 </r>
       <r>   -6.0100    1.0000 </r>
       <r>   -4.8955    1.0000 </r>
       <r>   -2.6479    1.0000 </r>
       <r>   -2.3165    1.0000 </r>
       <r>   -1.9739    1.0000 </r>
       <r>   -1.6450    1.0000 </r>
       <r>   -1.4946    1.0000 </r>
       <r>   -1.1832    1.0000 </r>
       <r>   -0.7903    1.0000 </r>
       <r>   -0.5828    1.0000 </r>
       <r>   -0.4468    1.0000 </r>
       <r>   -0.3370    1.0000 </r>
       <r>   -0.2929    1.0000 </r>
       <r>   -0.2311    1.0000 </r>
       <r>   -0.1745    1.0000 </r>
       <r>   -0.1319    1.0000 </r>
       <r>   -0.0073    1.0000 </r>
       <r>    0.0708    1.0000 </r>
       <r>    1.2588    1.0000 </r>
       <r>    1.3200    1.0000 </r>
       <r>    1.3650    1.0000 </r>
       <r>    1.4234    1.0000 </r>
       <r>    1.4303    1.0000 </r>
       <r>    1.4751    1.0000 </r>
       <r>    1.5037    1.0000 </r>
       <r>    1.5428    1.0000 </r>
       <r>    1.7248    1.0000 </r>
       <r>    1.8121    1.0000 </r>
       <r>    1.9948    1.0000 </r>
       <r>    2.0715    1.0000 </r>
       <r>    2.4179    1.0000 </r>
       <r>    2.4619    1.0000 </r>
       <r>    2.5298    1.0000 </r>
       <r>    2.8723    1.0000 </r>
       <r>    3.1418    1.0000 </r>
       <r>    3.2279    1.0000 </r>
       <r>    3.7842    1.0000 </r>
       <r>    4.0678    1.0260 </r>
       <r>    5.9777   -0.0000 </r>
       <r>    6.6888   -0.0000 </r>
       <r>    7.5336    0.0000 </r>
       <r>    8.2228    0.0000 </r>
       <r>    8.6166    0.0000 </r>
       <r>    8.9135    0.0000 </r>
       <r>    9.3071    0.0000 </r>
       <r>    9.4315    0.0000 </r>
       <r>    9.8047    0.0000 </r>
       <r>   10.2691    0.0000 </r>
       <r>   10.5449    0.0000 </r>
       <r>   10.8349    0.0000 </r>
       <r>   10.9728    0.0000 </r>
       <r>   11.3784    0.0000 </r>
       <r>   11.4732    0.0000 </r>
       <r>   11.7313    0.0000 </r>
       <r>   12.1023    0.0000 </r>
       <r>   12.6622    0.0000 </r>
       <r>   12.9428    0.0000 </r>
       <r>   13.1002    0.0000 </r>
       <r>   13.3515    0.0000 </r>
       <r>   13.5178    0.0000 </r>
       <r>   14.4763    0.0000 </r>
       <r>   14.7552    0.0000 </r>
      </set>
      <set comment="kpoint 8">
       <r>  -68.6475    1.0000 </r>
       <r>  -68.6452    1.0000 </r>
       <r>  -68.6336    1.0000 </r>
       <r>  -68.6330    1.0000 </r>
       <r>  -68.6150    1.0000 </r>
       <r>  -68.6132    1.0000 </r>
       <r>  -68.5980    1.0000 </r>
       <r>  -68.5959    1.0000 </r>
       <r>  -68.5778    1.0000 </r>
       <r>  -68.5771    1.0000 </r>
       <r>  -68.5605    1.0000 </r>
       <r>  -68.5605    1.0000 </r>
       <r>  -12.4392    1.0000 </r>
       <r>  -11.2486    1.0000 </r>
       <r>  -10.9601    1.0000 </r>
       <r>  -10.7625    1.0000 </r>
       <r>  -10.4274    1.0000 </r>
       <r>  -10.3554    1.0000 </r>
       <r>   -5.8706    1.0000 </r>
       <r>   -4.5498    1.0000 </r>
       <r>   -2.4965    1.0000 </r>
       <r>   -2.2457    1.0000 </r>
       <r>   -1.9462    1.0000 </r>
       <r>   -1.4631    1.0000 </r>
       <r>   -1.2263    1.0000 </r>
       <r>   -1.1013    1.0000 </r>
       <r>   -0.9043    1.0000 </r>
       <r>   -0.8595    1.0000 </r>
       <r>   -0.6016    1.0000 </r>
       <r>   -0.5363    1.0000 </r>
       <r>   -0.2704    1.0000 </r>
       <r>   -0.2062    1.0000 </r>
       <r>   -0.2004    1.0000 </r>
       <r>   -0.1463    1.0000 </r>
       <r>   -0.0276    1.0000 </r>
       <r>    0.0783    1.0000 </r>
       <r>    1.2534    1.0000 </r>
       <r>    1.3280    1.0000 </r>
       <r>    1.3469    1.0000 </r>
       <r>    1.3973    1.0000 </r>
       <r>    1.4717    1.0000 </r>
       <r>    1.4779    1.0000 </r>
       <r>    1.4994    1.0000 </r>
       <r>    1.5532    1.0000 </r>
       <r>    1.7516    1.0000 </r>
       <r>    1.7910    1.0000 </r>
       <r>    1.9674    1.0000 </r>
       <r>    2.1478    1.0000 </r>
       <r>    2.3217    1.0000 </r>
       <r>    2.3586    1.0000 </r>
       <r>    2.5539    1.0000 </r>
       <r>    2.6708    1.0000 </r>
       <r>    2.9379    1.0000 </r>
       <r>    3.0805    1.0000 </r>
       <r>    3.2509    1.0000 </r>
       <r>    3.8600    1.0000 </r>
       <r>    6.3837   -0.0000 </r>
       <r>    7.0967    0.0000 </r>
       <r>    7.9812    0.0000 </r>
       <r>    8.2027    0.0000 </r>
       <r>    8.5180    0.0000 </r>
       <r>    8.8201    0.0000 </r>
       <r>    9.3266    0.0000 </r>
       <r>    9.8893    0.0000 </r>
       <r>   10.0109    0.0000 </r>
       <r>   10.5187    0.0000 </r>
       <r>   10.6913    0.0000 </r>
       <r>   10.7917    0.0000 </r>
       <r>   11.1420    0.0000 </r>
       <r>   11.4089    0.0000 </r>
       <r>   11.6096    0.0000 </r>
       <r>   11.7747    0.0000 </r>
       <r>   11.9445    0.0000 </r>
       <r>   12.5014    0.0000 </r>
       <r>   12.8193    0.0000 </r>
       <r>   13.0279    0.0000 </r>
       <r>   13.5246    0.0000 </r>
       <r>   13.6692    0.0000 </r>
       <r>   14.5534    0.0000 </r>
       <r>   15.2567    0.0000 </r>
      </set>
      <set comment="kpoint 9">
       <r>  -68.6475    1.0000 </r>
       <r>  -68.6452    1.0000 </r>
       <r>  -68.6335    1.0000 </r>
       <r>  -68.6332    1.0000 </r>
       <r>  -68.6149    1.0000 </r>
       <r>  -68.6132    1.0000 </r>
       <r>  -68.5980    1.0000 </r>
       <r>  -68.5959    1.0000 </r>
       <r>  -68.5775    1.0000 </r>
       <r>  -68.5773    1.0000 </r>
       <r>  -68.5605    1.0000 </r>
       <r>  -68.5605    1.0000 </r>
       <r>  -12.4432    1.0000 </r>
       <r>  -11.3536    1.0000 </r>
       <r>  -10.9416    1.0000 </r>
       <r>  -10.7362    1.0000 </r>
       <r>  -10.3882    1.0000 </r>
       <r>  -10.2694    1.0000 </r>
       <r>   -5.9475    1.0000 </r>
       <r>   -4.6434    1.0000 </r>
       <r>   -2.3937    1.0000 </r>
       <r>   -2.2284    1.0000 </r>
       <r>   -2.0588    1.0000 </r>
       <r>   -1.6389    1.0000 </r>
       <r>   -1.3613    1.0000 </r>
       <r>   -1.2817    1.0000 </r>
       <r>   -1.0219    1.0000 </r>
       <r>   -0.5111    1.0000 </r>
       <r>   -0.4855    1.0000 </r>
       <r>   -0.3289    1.0000 </r>
       <r>   -0.2835    1.0000 </r>
       <r>   -0.2149    1.0000 </r>
       <r>   -0.1514    1.0000 </r>
       <r>   -0.1324    1.0000 </r>
       <r>   -0.0085    1.0000 </r>
       <r>    0.1111    1.0000 </r>
       <r>    1.2456    1.0000 </r>
       <r>    1.3153    1.0000 </r>
       <r>    1.3812    1.0000 </r>
       <r>    1.4379    1.0000 </r>
       <r>    1.4613    1.0000 </r>
       <r>    1.4915    1.0000 </r>
       <r>    1.4967    1.0000 </r>
       <r>    1.5501    1.0000 </r>
       <r>    1.7493    1.0000 </r>
       <r>    1.8283    1.0000 </r>
       <r>    1.9214    1.0000 </r>
       <r>    2.1325    1.0000 </r>
       <r>    2.2208    1.0000 </r>
       <r>    2.3854    1.0000 </r>
       <r>    2.5611    1.0000 </r>
       <r>    2.7905    1.0000 </r>
       <r>    2.9785    1.0000 </r>
       <r>    3.3102    1.0000 </r>
       <r>    3.6040    1.0000 </r>
       <r>    3.7482    1.0000 </r>
       <r>    6.0861   -0.0000 </r>
       <r>    6.9393   -0.0000 </r>
       <r>    7.6111    0.0000 </r>
       <r>    8.0690    0.0000 </r>
       <r>    8.4097    0.0000 </r>
       <r>    8.6159    0.0000 </r>
       <r>    8.9827    0.0000 </r>
       <r>    9.1521    0.0000 </r>
       <r>   10.0875    0.0000 </r>
       <r>   10.3354    0.0000 </r>
       <r>   10.7323    0.0000 </r>
       <r>   11.1087    0.0000 </r>
       <r>   11.4596    0.0000 </r>
       <r>   11.5759    0.0000 </r>
       <r>   11.7856    0.0000 </r>
       <r>   12.0335    0.0000 </r>
       <r>   12.5232    0.0000 </r>
       <r>   12.6767    0.0000 </r>
       <r>   12.9165    0.0000 </r>
       <r>   13.2113    0.0000 </r>
       <r>   14.2315    0.0000 </r>
       <r>   14.7631    0.0000 </r>
       <r>   15.2461    0.0000 </r>
       <r>   15.9053    0.0000 </r>
      </set>
      <set comment="kpoint 10">
       <r>  -68.6473    1.0000 </r>
       <r>  -68.6450    1.0000 </r>
       <r>  -68.6333    1.0000 </r>
       <r>  -68.6330    1.0000 </r>
       <r>  -68.6148    1.0000 </r>
       <r>  -68.6131    1.0000 </r>
       <r>  -68.5978    1.0000 </r>
       <r>  -68.5957    1.0000 </r>
       <r>  -68.5776    1.0000 </r>
       <r>  -68.5770    1.0000 </r>
       <r>  -68.5604    1.0000 </r>
       <r>  -68.5602    1.0000 </r>
       <r>  -12.4350    1.0000 </r>
       <r>  -11.5009    1.0000 </r>
       <r>  -10.9169    1.0000 </r>
       <r>  -10.6163    1.0000 </r>
       <r>  -10.3971    1.0000 </r>
       <r>  -10.1968    1.0000 </r>
       <r>   -6.0262    1.0000 </r>
       <r>   -4.8110    1.0000 </r>
       <r>   -2.3126    1.0000 </r>
       <r>   -2.2679    1.0000 </r>
       <r>   -2.0937    1.0000 </r>
       <r>   -1.7030    1.0000 </r>
       <r>   -1.2475    1.0000 </r>
       <r>   -1.1121    1.0000 </r>
       <r>   -0.8391    1.0000 </r>
       <r>   -0.7800    1.0000 </r>
       <r>   -0.7251    1.0000 </r>
       <r>   -0.2412    1.0000 </r>
       <r>   -0.2009    1.0000 </r>
       <r>   -0.1812    1.0000 </r>
       <r>   -0.1540    1.0000 </r>
       <r>   -0.0402    1.0000 </r>
       <r>    0.0020    1.0000 </r>
       <r>    0.1826    1.0000 </r>
       <r>    1.2655    1.0000 </r>
       <r>    1.3181    1.0000 </r>
       <r>    1.3733    1.0000 </r>
       <r>    1.4137    1.0000 </r>
       <r>    1.4335    1.0000 </r>
       <r>    1.4919    1.0000 </r>
       <r>    1.5076    1.0000 </r>
       <r>    1.5498    1.0000 </r>
       <r>    1.7855    1.0000 </r>
       <r>    1.8482    1.0000 </r>
       <r>    1.9949    1.0000 </r>
       <r>    2.1507    1.0000 </r>
       <r>    2.2521    1.0000 </r>
       <r>    2.3351    1.0000 </r>
       <r>    2.5592    1.0000 </r>
       <r>    2.7608    1.0000 </r>
       <r>    2.7775    1.0000 </r>
       <r>    3.3707    1.0000 </r>
       <r>    3.7648    1.0000 </r>
       <r>    4.0051    1.0046 </r>
       <r>    5.8523   -0.0000 </r>
       <r>    6.7660   -0.0000 </r>
       <r>    7.0822    0.0000 </r>
       <r>    8.4116    0.0000 </r>
       <r>    8.5600    0.0000 </r>
       <r>    8.7703    0.0000 </r>
       <r>    9.1411    0.0000 </r>
       <r>    9.2413    0.0000 </r>
       <r>    9.9603    0.0000 </r>
       <r>   10.2863    0.0000 </r>
       <r>   10.7258    0.0000 </r>
       <r>   10.8297    0.0000 </r>
       <r>   10.8762    0.0000 </r>
       <r>   11.2725    0.0000 </r>
       <r>   11.7569    0.0000 </r>
       <r>   11.9150    0.0000 </r>
       <r>   11.9723    0.0000 </r>
       <r>   12.3664    0.0000 </r>
       <r>   12.5390    0.0000 </r>
       <r>   13.4560    0.0000 </r>
       <r>   14.2862    0.0000 </r>
       <r>   14.6725    0.0000 </r>
       <r>   16.7422    0.0000 </r>
       <r>   16.7542    0.0000 </r>
      </set>
      <set comment="kpoint 11">
       <r>  -68.6477    1.0000 </r>
       <r>  -68.6454    1.0000 </r>
       <r>  -68.6337    1.0000 </r>
       <r>  -68.6331    1.0000 </r>
       <r>  -68.6151    1.0000 </r>
       <r>  -68.6133    1.0000 </r>
       <r>  -68.5981    1.0000 </r>
       <r>  -68.5960    1.0000 </r>
       <r>  -68.5778    1.0000 </r>
       <r>  -68.5772    1.0000 </r>
       <r>  -68.5608    1.0000 </r>
       <r>  -68.5605    1.0000 </r>
       <r>  -12.6194    1.0000 </r>
       <r>  -11.4267    1.0000 </r>
       <r>  -10.7804    1.0000 </r>
       <r>  -10.6086    1.0000 </r>
       <r>  -10.2481    1.0000 </r>
       <r>  -10.2343    1.0000 </r>
       <r>   -5.8312    1.0000 </r>
       <r>   -5.0480    1.0000 </r>
       <r>   -2.6022    1.0000 </r>
       <r>   -2.3739    1.0000 </r>
       <r>   -1.9601    1.0000 </r>
       <r>   -1.7753    1.0000 </r>
       <r>   -1.4432    1.0000 </r>
       <r>   -1.1281    1.0000 </r>
       <r>   -1.0655    1.0000 </r>
       <r>   -0.7723    1.0000 </r>
       <r>   -0.4699    1.0000 </r>
       <r>   -0.2917    1.0000 </r>
       <r>   -0.2385    1.0000 </r>
       <r>   -0.2355    1.0000 </r>
       <r>   -0.1918    1.0000 </r>
       <r>   -0.1455    1.0000 </r>
       <r>   -0.0171    1.0000 </r>
       <r>    0.0254    1.0000 </r>
       <r>    1.3329    1.0000 </r>
       <r>    1.3818    1.0000 </r>
       <r>    1.4162    1.0000 </r>
       <r>    1.4385    1.0000 </r>
       <r>    1.4648    1.0000 </r>
       <r>    1.4663    1.0000 </r>
       <r>    1.5140    1.0000 </r>
       <r>    1.5460    1.0000 </r>
       <r>    1.6320    1.0000 </r>
       <r>    1.7586    1.0000 </r>
       <r>    1.7866    1.0000 </r>
       <r>    1.9503    1.0000 </r>
       <r>    2.0892    1.0000 </r>
       <r>    2.6590    1.0000 </r>
       <r>    2.7193    1.0000 </r>
       <r>    3.1941    1.0000 </r>
       <r>    3.2531    1.0000 </r>
       <r>    3.5181    1.0000 </r>
       <r>    3.8944    1.0000 </r>
       <r>    3.9764    1.0014 </r>
       <r>    6.0454   -0.0000 </r>
       <r>    6.4162   -0.0000 </r>
       <r>    7.8238    0.0000 </r>
       <r>    7.9072    0.0000 </r>
       <r>    8.3649    0.0000 </r>
       <r>    8.8181    0.0000 </r>
       <r>    9.7763    0.0000 </r>
       <r>    9.7946    0.0000 </r>
       <r>   10.0628    0.0000 </r>
       <r>   10.5867    0.0000 </r>
       <r>   10.6479    0.0000 </r>
       <r>   10.8139    0.0000 </r>
       <r>   10.8550    0.0000 </r>
       <r>   11.4942    0.0000 </r>
       <r>   11.5575    0.0000 </r>
       <r>   12.0248    0.0000 </r>
       <r>   12.5795    0.0000 </r>
       <r>   12.7753    0.0000 </r>
       <r>   12.9107    0.0000 </r>
       <r>   13.2050    0.0000 </r>
       <r>   13.5339    0.0000 </r>
       <r>   13.8230    0.0000 </r>
       <r>   14.1962    0.0000 </r>
       <r>   14.7055    0.0000 </r>
      </set>
      <set comment="kpoint 12">
       <r>  -68.6477    1.0000 </r>
       <r>  -68.6453    1.0000 </r>
       <r>  -68.6337    1.0000 </r>
       <r>  -68.6331    1.0000 </r>
       <r>  -68.6151    1.0000 </r>
       <r>  -68.6133    1.0000 </r>
       <r>  -68.5981    1.0000 </r>
       <r>  -68.5959    1.0000 </r>
       <r>  -68.5779    1.0000 </r>
       <r>  -68.5772    1.0000 </r>
       <r>  -68.5608    1.0000 </r>
       <r>  -68.5604    1.0000 </r>
       <r>  -12.4607    1.0000 </r>
       <r>  -11.4677    1.0000 </r>
       <r>  -10.8672    1.0000 </r>
       <r>  -10.6884    1.0000 </r>
       <r>  -10.3710    1.0000 </r>
       <r>  -10.2431    1.0000 </r>
       <r>   -5.7668    1.0000 </r>
       <r>   -4.8053    1.0000 </r>
       <r>   -2.4476    1.0000 </r>
       <r>   -2.2338    1.0000 </r>
       <r>   -1.8493    1.0000 </r>
       <r>   -1.7152    1.0000 </r>
       <r>   -1.4322    1.0000 </r>
       <r>   -1.1892    1.0000 </r>
       <r>   -0.8926    1.0000 </r>
       <r>   -0.7426    1.0000 </r>
       <r>   -0.6061    1.0000 </r>
       <r>   -0.5223    1.0000 </r>
       <r>   -0.3077    1.0000 </r>
       <r>   -0.2461    1.0000 </r>
       <r>   -0.1747    1.0000 </r>
       <r>   -0.1206    1.0000 </r>
       <r>   -0.0527    1.0000 </r>
       <r>    0.0603    1.0000 </r>
       <r>    1.3022    1.0000 </r>
       <r>    1.3351    1.0000 </r>
       <r>    1.3695    1.0000 </r>
       <r>    1.4315    1.0000 </r>
       <r>    1.4456    1.0000 </r>
       <r>    1.4791    1.0000 </r>
       <r>    1.5205    1.0000 </r>
       <r>    1.5470    1.0000 </r>
       <r>    1.6425    1.0000 </r>
       <r>    1.8698    1.0000 </r>
       <r>    1.9794    1.0000 </r>
       <r>    2.0477    1.0000 </r>
       <r>    2.1955    1.0000 </r>
       <r>    2.4755    1.0000 </r>
       <r>    2.5950    1.0000 </r>
       <r>    2.8379    1.0000 </r>
       <r>    2.9638    1.0000 </r>
       <r>    3.1319    1.0000 </r>
       <r>    3.5666    1.0000 </r>
       <r>    3.7253    1.0000 </r>
       <r>    6.4406   -0.0000 </r>
       <r>    6.9576    0.0000 </r>
       <r>    8.1701    0.0000 </r>
       <r>    8.2460    0.0000 </r>
       <r>    8.8336    0.0000 </r>
       <r>    9.1275    0.0000 </r>
       <r>    9.4646    0.0000 </r>
       <r>    9.7964    0.0000 </r>
       <r>   10.0843    0.0000 </r>
       <r>   10.3009    0.0000 </r>
       <r>   10.7386    0.0000 </r>
       <r>   11.0786    0.0000 </r>
       <r>   11.2898    0.0000 </r>
       <r>   11.4231    0.0000 </r>
       <r>   11.6314    0.0000 </r>
       <r>   11.7234    0.0000 </r>
       <r>   12.0863    0.0000 </r>
       <r>   12.2660    0.0000 </r>
       <r>   12.5419    0.0000 </r>
       <r>   12.6600    0.0000 </r>
       <r>   12.9556    0.0000 </r>
       <r>   13.0598    0.0000 </r>
       <r>   13.6403    0.0000 </r>
       <r>   14.6908    0.0000 </r>
      </set>
      <set comment="kpoint 13">
       <r>  -68.6474    1.0000 </r>
       <r>  -68.6452    1.0000 </r>
       <r>  -68.6335    1.0000 </r>
       <r>  -68.6331    1.0000 </r>
       <r>  -68.6150    1.0000 </r>
       <r>  -68.6132    1.0000 </r>
       <r>  -68.5980    1.0000 </r>
       <r>  -68.5958    1.0000 </r>
       <r>  -68.5776    1.0000 </r>
       <r>  -68.5773    1.0000 </r>
       <r>  -68.5604    1.0000 </r>
       <r>  -68.5606    1.0000 </r>
       <r>  -12.3585    1.0000 </r>
       <r>  -11.4150    1.0000 </r>
       <r>  -10.9543    1.0000 </r>
       <r>  -10.6846    1.0000 </r>
       <r>  -10.4767    1.0000 </r>
       <r>  -10.3314    1.0000 </r>
       <r>   -5.7520    1.0000 </r>
       <r>   -4.7235    1.0000 </r>
       <r>   -2.5242    1.0000 </r>
       <r>   -2.1863    1.0000 </r>
       <r>   -1.9531    1.0000 </r>
       <r>   -1.5349    1.0000 </r>
       <r>   -1.2996    1.0000 </r>
       <r>   -1.0975    1.0000 </r>
       <r>   -0.8685    1.0000 </r>
       <r>   -0.7598    1.0000 </r>
       <r>   -0.5498    1.0000 </r>
       <r>   -0.4451    1.0000 </r>
       <r>   -0.2894    1.0000 </r>
       <r>   -0.1806    1.0000 </r>
       <r>   -0.1426    1.0000 </r>
       <r>   -0.1071    1.0000 </r>
       <r>   -0.0442    1.0000 </r>
       <r>    0.0231    1.0000 </r>
       <r>    1.2724    1.0000 </r>
       <r>    1.2967    1.0000 </r>
       <r>    1.3505    1.0000 </r>
       <r>    1.4290    1.0000 </r>
       <r>    1.4522    1.0000 </r>
       <r>    1.4808    1.0000 </r>
       <r>    1.5014    1.0000 </r>
       <r>    1.5886    1.0000 </r>
       <r>    1.7203    1.0000 </r>
       <r>    1.9320    1.0000 </r>
       <r>    2.0763    1.0000 </r>
       <r>    2.1448    1.0000 </r>
       <r>    2.2667    1.0000 </r>
       <r>    2.4033    1.0000 </r>
       <r>    2.5680    1.0000 </r>
       <r>    2.5975    1.0000 </r>
       <r>    2.8982    1.0000 </r>
       <r>    3.0085    1.0000 </r>
       <r>    3.3579    1.0000 </r>
       <r>    3.8993    1.0000 </r>
       <r>    6.3642   -0.0000 </r>
       <r>    6.8984   -0.0000 </r>
       <r>    7.5745    0.0000 </r>
       <r>    8.0831    0.0000 </r>
       <r>    8.5499    0.0000 </r>
       <r>    8.7973    0.0000 </r>
       <r>    9.2784    0.0000 </r>
       <r>    9.6282    0.0000 </r>
       <r>    9.9300    0.0000 </r>
       <r>   10.2739    0.0000 </r>
       <r>   10.6587    0.0000 </r>
       <r>   10.9269    0.0000 </r>
       <r>   10.9736    0.0000 </r>
       <r>   11.2790    0.0000 </r>
       <r>   11.5196    0.0000 </r>
       <r>   11.7865    0.0000 </r>
       <r>   12.2467    0.0000 </r>
       <r>   12.5458    0.0000 </r>
       <r>   13.0992    0.0000 </r>
       <r>   13.5166    0.0000 </r>
       <r>   14.2967    0.0000 </r>
       <r>   14.5700    0.0000 </r>
       <r>   15.1282    0.0000 </r>
       <r>   16.2683    0.0000 </r>
      </set>
      <set comment="kpoint 14">
       <r>  -68.6477    1.0000 </r>
       <r>  -68.6454    1.0000 </r>
       <r>  -68.6337    1.0000 </r>
       <r>  -68.6331    1.0000 </r>
       <r>  -68.6151    1.0000 </r>
       <r>  -68.6133    1.0000 </r>
       <r>  -68.5981    1.0000 </r>
       <r>  -68.5960    1.0000 </r>
       <r>  -68.5779    1.0000 </r>
       <r>  -68.5772    1.0000 </r>
       <r>  -68.5609    1.0000 </r>
       <r>  -68.5604    1.0000 </r>
       <r>  -12.5432    1.0000 </r>
       <r>  -11.3393    1.0000 </r>
       <r>  -10.8740    1.0000 </r>
       <r>  -10.6074    1.0000 </r>
       <r>  -10.3967    1.0000 </r>
       <r>  -10.2799    1.0000 </r>
       <r>   -5.8248    1.0000 </r>
       <r>   -4.9759    1.0000 </r>
       <r>   -2.6671    1.0000 </r>
       <r>   -2.4538    1.0000 </r>
       <r>   -2.0375    1.0000 </r>
       <r>   -1.5781    1.0000 </r>
       <r>   -1.1711    1.0000 </r>
       <r>   -0.9820    1.0000 </r>
       <r>   -0.7975    1.0000 </r>
       <r>   -0.6544    1.0000 </r>
       <r>   -0.5162    1.0000 </r>
       <r>   -0.3883    1.0000 </r>
       <r>   -0.2714    1.0000 </r>
       <r>   -0.2546    1.0000 </r>
       <r>   -0.1905    1.0000 </r>
       <r>   -0.1428    1.0000 </r>
       <r>   -0.0469    1.0000 </r>
       <r>    0.0159    1.0000 </r>
       <r>    1.2902    1.0000 </r>
       <r>    1.3106    1.0000 </r>
       <r>    1.3888    1.0000 </r>
       <r>    1.4083    1.0000 </r>
       <r>    1.4339    1.0000 </r>
       <r>    1.4557    1.0000 </r>
       <r>    1.4920    1.0000 </r>
       <r>    1.5648    1.0000 </r>
       <r>    1.6876    1.0000 </r>
       <r>    1.9160    1.0000 </r>
       <r>    1.9854    1.0000 </r>
       <r>    2.1455    1.0000 </r>
       <r>    2.3343    1.0000 </r>
       <r>    2.5653    1.0000 </r>
       <r>    2.6157    1.0000 </r>
       <r>    2.8283    1.0000 </r>
       <r>    2.9718    1.0000 </r>
       <r>    3.2485    1.0000 </r>
       <r>    3.6825    1.0000 </r>
       <r>    3.9438    1.0003 </r>
       <r>    6.1780   -0.0000 </r>
       <r>    6.6380   -0.0000 </r>
       <r>    7.7657    0.0000 </r>
       <r>    7.9741    0.0000 </r>
       <r>    8.2144    0.0000 </r>
       <r>    8.5620    0.0000 </r>
       <r>    9.3778    0.0000 </r>
       <r>    9.5777    0.0000 </r>
       <r>    9.9078    0.0000 </r>
       <r>   10.2508    0.0000 </r>
       <r>   10.5441    0.0000 </r>
       <r>   10.7866    0.0000 </r>
       <r>   10.8455    0.0000 </r>
       <r>   11.0704    0.0000 </r>
       <r>   11.5632    0.0000 </r>
       <r>   12.0209    0.0000 </r>
       <r>   12.5256    0.0000 </r>
       <r>   12.7516    0.0000 </r>
       <r>   12.9533    0.0000 </r>
       <r>   13.3084    0.0000 </r>
       <r>   13.4128    0.0000 </r>
       <r>   13.7414    0.0000 </r>
       <r>   13.8462    0.0000 </r>
       <r>   14.7277    0.0000 </r>
      </set>
      <set comment="kpoint 15">
       <r>  -68.6476    1.0000 </r>
       <r>  -68.6453    1.0000 </r>
       <r>  -68.6337    1.0000 </r>
       <r>  -68.6331    1.0000 </r>
       <r>  -68.6151    1.0000 </r>
       <r>  -68.6133    1.0000 </r>
       <r>  -68.5981    1.0000 </r>
       <r>  -68.5959    1.0000 </r>
       <r>  -68.5779    1.0000 </r>
       <r>  -68.5772    1.0000 </r>
       <r>  -68.5608    1.0000 </r>
       <r>  -68.5604    1.0000 </r>
       <r>  -12.4608    1.0000 </r>
       <r>  -11.4683    1.0000 </r>
       <r>  -10.8631    1.0000 </r>
       <r>  -10.6912    1.0000 </r>
       <r>  -10.3715    1.0000 </r>
       <r>  -10.2434    1.0000 </r>
       <r>   -5.7665    1.0000 </r>
       <r>   -4.8056    1.0000 </r>
       <r>   -2.4473    1.0000 </r>
       <r>   -2.2343    1.0000 </r>
       <r>   -1.8509    1.0000 </r>
       <r>   -1.7144    1.0000 </r>
       <r>   -1.4301    1.0000 </r>
       <r>   -1.1882    1.0000 </r>
       <r>   -0.8884    1.0000 </r>
       <r>   -0.7483    1.0000 </r>
       <r>   -0.6042    1.0000 </r>
       <r>   -0.5279    1.0000 </r>
       <r>   -0.3087    1.0000 </r>
       <r>   -0.2440    1.0000 </r>
       <r>   -0.1712    1.0000 </r>
       <r>   -0.1226    1.0000 </r>
       <r>   -0.0531    1.0000 </r>
       <r>    0.0612    1.0000 </r>
       <r>    1.3018    1.0000 </r>
       <r>    1.3358    1.0000 </r>
       <r>    1.3691    1.0000 </r>
       <r>    1.4312    1.0000 </r>
       <r>    1.4462    1.0000 </r>
       <r>    1.4795    1.0000 </r>
       <r>    1.5205    1.0000 </r>
       <r>    1.5469    1.0000 </r>
       <r>    1.6433    1.0000 </r>
       <r>    1.8712    1.0000 </r>
       <r>    1.9793    1.0000 </r>
       <r>    2.0473    1.0000 </r>
       <r>    2.1945    1.0000 </r>
       <r>    2.4749    1.0000 </r>
       <r>    2.5936    1.0000 </r>
       <r>    2.8388    1.0000 </r>
       <r>    2.9635    1.0000 </r>
       <r>    3.1330    1.0000 </r>
       <r>    3.5681    1.0000 </r>
       <r>    3.7229    1.0000 </r>
       <r>    6.4415   -0.0000 </r>
       <r>    6.9562    0.0000 </r>
       <r>    8.1696    0.0000 </r>
       <r>    8.2460    0.0000 </r>
       <r>    8.8332    0.0000 </r>
       <r>    9.1268    0.0000 </r>
       <r>    9.4677    0.0000 </r>
       <r>    9.7958    0.0000 </r>
       <r>   10.0858    0.0000 </r>
       <r>   10.2989    0.0000 </r>
       <r>   10.7401    0.0000 </r>
       <r>   11.0772    0.0000 </r>
       <r>   11.2905    0.0000 </r>
       <r>   11.4233    0.0000 </r>
       <r>   11.6318    0.0000 </r>
       <r>   11.7239    0.0000 </r>
       <r>   12.0855    0.0000 </r>
       <r>   12.2661    0.0000 </r>
       <r>   12.5410    0.0000 </r>
       <r>   12.6611    0.0000 </r>
       <r>   12.9526    0.0000 </r>
       <r>   13.0566    0.0000 </r>
       <r>   13.6578    0.0000 </r>
       <r>   14.6948    0.0000 </r>
      </set>
      <set comment="kpoint 16">
       <r>  -68.6476    1.0000 </r>
       <r>  -68.6452    1.0000 </r>
       <r>  -68.6335    1.0000 </r>
       <r>  -68.6329    1.0000 </r>
       <r>  -68.6149    1.0000 </r>
       <r>  -68.6131    1.0000 </r>
       <r>  -68.5979    1.0000 </r>
       <r>  -68.5958    1.0000 </r>
       <r>  -68.5777    1.0000 </r>
       <r>  -68.5771    1.0000 </r>
       <r>  -68.5607    1.0000 </r>
       <r>  -68.5603    1.0000 </r>
       <r>  -12.3294    1.0000 </r>
       <r>  -11.4765    1.0000 </r>
       <r>  -10.8628    1.0000 </r>
       <r>  -10.8578    1.0000 </r>
       <r>  -10.4048    1.0000 </r>
       <r>  -10.2857    1.0000 </r>
       <r>   -5.7480    1.0000 </r>
       <r>   -4.6930    1.0000 </r>
       <r>   -2.2447    1.0000 </r>
       <r>   -2.1395    1.0000 </r>
       <r>   -1.9288    1.0000 </r>
       <r>   -1.8505    1.0000 </r>
       <r>   -1.4527    1.0000 </r>
       <r>   -1.3944    1.0000 </r>
       <r>   -1.0371    1.0000 </r>
       <r>   -0.5200    1.0000 </r>
       <r>   -0.4658    1.0000 </r>
       <r>   -0.3500    1.0000 </r>
       <r>   -0.2477    1.0000 </r>
       <r>   -0.2169    1.0000 </r>
       <r>   -0.1600    1.0000 </r>
       <r>   -0.1136    1.0000 </r>
       <r>   -0.0872    1.0000 </r>
       <r>    0.0794    1.0000 </r>
       <r>    1.2609    1.0000 </r>
       <r>    1.3469    1.0000 </r>
       <r>    1.3975    1.0000 </r>
       <r>    1.4350    1.0000 </r>
       <r>    1.4537    1.0000 </r>
       <r>    1.5100    1.0000 </r>
       <r>    1.5351    1.0000 </r>
       <r>    1.5432    1.0000 </r>
       <r>    1.7524    1.0000 </r>
       <r>    1.8180    1.0000 </r>
       <r>    2.0391    1.0000 </r>
       <r>    2.1361    1.0000 </r>
       <r>    2.2848    1.0000 </r>
       <r>    2.3105    1.0000 </r>
       <r>    2.5227    1.0000 </r>
       <r>    2.7685    1.0000 </r>
       <r>    2.8985    1.0000 </r>
       <r>    3.2618    1.0000 </r>
       <r>    3.4954    1.0000 </r>
       <r>    3.8001    1.0000 </r>
       <r>    6.1828   -0.0000 </r>
       <r>    6.8412   -0.0000 </r>
       <r>    7.8273    0.0000 </r>
       <r>    8.0436    0.0000 </r>
       <r>    8.1880    0.0000 </r>
       <r>    8.7260    0.0000 </r>
       <r>    9.1536    0.0000 </r>
       <r>    9.3067    0.0000 </r>
       <r>   10.2198    0.0000 </r>
       <r>   10.4414    0.0000 </r>
       <r>   10.5912    0.0000 </r>
       <r>   11.0065    0.0000 </r>
       <r>   11.2398    0.0000 </r>
       <r>   11.4876    0.0000 </r>
       <r>   11.8114    0.0000 </r>
       <r>   12.1727    0.0000 </r>
       <r>   12.2065    0.0000 </r>
       <r>   12.5742    0.0000 </r>
       <r>   12.6935    0.0000 </r>
       <r>   13.1114    0.0000 </r>
       <r>   13.4155    0.0000 </r>
       <r>   13.8822    0.0000 </r>
       <r>   14.0060    0.0000 </r>
       <r>   14.5238    0.0000 </r>
      </set>
      <set comment="kpoint 17">
       <r>  -68.6474    1.0000 </r>
       <r>  -68.6451    1.0000 </r>
       <r>  -68.6336    1.0000 </r>
       <r>  -68.6331    1.0000 </r>
       <r>  -68.6149    1.0000 </r>
       <r>  -68.6133    1.0000 </r>
       <r>  -68.5980    1.0000 </r>
       <r>  -68.5959    1.0000 </r>
       <r>  -68.5776    1.0000 </r>
       <r>  -68.5773    1.0000 </r>
       <r>  -68.5605    1.0000 </r>
       <r>  -68.5605    1.0000 </r>
       <r>  -12.3757    1.0000 </r>
       <r>  -11.4748    1.0000 </r>
       <r>  -10.9384    1.0000 </r>
       <r>  -10.6526    1.0000 </r>
       <r>  -10.4190    1.0000 </r>
       <r>  -10.3015    1.0000 </r>
       <r>   -5.8008    1.0000 </r>
       <r>   -4.8374    1.0000 </r>
       <r>   -2.5287    1.0000 </r>
       <r>   -2.2444    1.0000 </r>
       <r>   -1.8722    1.0000 </r>
       <r>   -1.6452    1.0000 </r>
       <r>   -1.5043    1.0000 </r>
       <r>   -1.3079    1.0000 </r>
       <r>   -0.8982    1.0000 </r>
       <r>   -0.5358    1.0000 </r>
       <r>   -0.3778    1.0000 </r>
       <r>   -0.3484    1.0000 </r>
       <r>   -0.2244    1.0000 </r>
       <r>   -0.1775    1.0000 </r>
       <r>   -0.1640    1.0000 </r>
       <r>   -0.0731    1.0000 </r>
       <r>   -0.0247    1.0000 </r>
       <r>    0.0794    1.0000 </r>
       <r>    1.1887    1.0000 </r>
       <r>    1.3637    1.0000 </r>
       <r>    1.3972    1.0000 </r>
       <r>    1.4415    1.0000 </r>
       <r>    1.4632    1.0000 </r>
       <r>    1.5064    1.0000 </r>
       <r>    1.5186    1.0000 </r>
       <r>    1.5857    1.0000 </r>
       <r>    1.7390    1.0000 </r>
       <r>    1.8182    1.0000 </r>
       <r>    2.0361    1.0000 </r>
       <r>    2.2355    1.0000 </r>
       <r>    2.2683    1.0000 </r>
       <r>    2.3637    1.0000 </r>
       <r>    2.4861    1.0000 </r>
       <r>    2.6711    1.0000 </r>
       <r>    3.0525    1.0000 </r>
       <r>    3.4113    1.0000 </r>
       <r>    3.7285    1.0000 </r>
       <r>    3.8637    1.0000 </r>
       <r>    5.9308   -0.0000 </r>
       <r>    6.6133   -0.0000 </r>
       <r>    7.3526    0.0000 </r>
       <r>    7.9426    0.0000 </r>
       <r>    8.0644    0.0000 </r>
       <r>    8.7234    0.0000 </r>
       <r>    8.9073    0.0000 </r>
       <r>    9.1388    0.0000 </r>
       <r>    9.8431    0.0000 </r>
       <r>   10.3288    0.0000 </r>
       <r>   10.5550    0.0000 </r>
       <r>   10.9257    0.0000 </r>
       <r>   11.2229    0.0000 </r>
       <r>   11.4200    0.0000 </r>
       <r>   11.7492    0.0000 </r>
       <r>   12.0044    0.0000 </r>
       <r>   12.4970    0.0000 </r>
       <r>   12.8302    0.0000 </r>
       <r>   13.2048    0.0000 </r>
       <r>   14.1850    0.0000 </r>
       <r>   14.7117    0.0000 </r>
       <r>   15.1450    0.0000 </r>
       <r>   15.9131    0.0000 </r>
       <r>   16.5676    0.0000 </r>
      </set>
      <set comment="kpoint 18">
       <r>  -68.6476    1.0000 </r>
       <r>  -68.6453    1.0000 </r>
       <r>  -68.6337    1.0000 </r>
       <r>  -68.6331    1.0000 </r>
       <r>  -68.6150    1.0000 </r>
       <r>  -68.6132    1.0000 </r>
       <r>  -68.5981    1.0000 </r>
       <r>  -68.5960    1.0000 </r>
       <r>  -68.5778    1.0000 </r>
       <r>  -68.5771    1.0000 </r>
       <r>  -68.5607    1.0000 </r>
       <r>  -68.5604    1.0000 </r>
       <r>  -12.5017    1.0000 </r>
       <r>  -11.4269    1.0000 </r>
       <r>  -10.9486    1.0000 </r>
       <r>  -10.5822    1.0000 </r>
       <r>  -10.3737    1.0000 </r>
       <r>  -10.2050    1.0000 </r>
       <r>   -5.8285    1.0000 </r>
       <r>   -4.9413    1.0000 </r>
       <r>   -2.5746    1.0000 </r>
       <r>   -2.3659    1.0000 </r>
       <r>   -1.9194    1.0000 </r>
       <r>   -1.5950    1.0000 </r>
       <r>   -1.4164    1.0000 </r>
       <r>   -1.1193    1.0000 </r>
       <r>   -0.8178    1.0000 </r>
       <r>   -0.6734    1.0000 </r>
       <r>   -0.5327    1.0000 </r>
       <r>   -0.4705    1.0000 </r>
       <r>   -0.2552    1.0000 </r>
       <r>   -0.1959    1.0000 </r>
       <r>   -0.1671    1.0000 </r>
       <r>   -0.1187    1.0000 </r>
       <r>   -0.0335    1.0000 </r>
       <r>    0.0602    1.0000 </r>
       <r>    1.2809    1.0000 </r>
       <r>    1.3236    1.0000 </r>
       <r>    1.3443    1.0000 </r>
       <r>    1.4342    1.0000 </r>
       <r>    1.4514    1.0000 </r>
       <r>    1.4678    1.0000 </r>
       <r>    1.4920    1.0000 </r>
       <r>    1.5574    1.0000 </r>
       <r>    1.7274    1.0000 </r>
       <r>    1.8417    1.0000 </r>
       <r>    1.9702    1.0000 </r>
       <r>    2.0983    1.0000 </r>
       <r>    2.3363    1.0000 </r>
       <r>    2.4486    1.0000 </r>
       <r>    2.5396    1.0000 </r>
       <r>    2.8496    1.0000 </r>
       <r>    3.0518    1.0000 </r>
       <r>    3.2654    1.0000 </r>
       <r>    3.6715    1.0000 </r>
       <r>    3.7821    1.0000 </r>
       <r>    6.2612   -0.0000 </r>
       <r>    6.7989   -0.0000 </r>
       <r>    7.8130    0.0000 </r>
       <r>    8.1358    0.0000 </r>
       <r>    8.3362    0.0000 </r>
       <r>    8.9300    0.0000 </r>
       <r>    9.3391    0.0000 </r>
[...]
       <r>   11.7057    0.0000 </r>
       <r>   11.8925    0.0000 </r>
       <r>   12.3005    0.0000 </r>
       <r>   12.6591    0.0000 </r>
       <r>   13.0118    0.0000 </r>
       <r>   13.2296    0.0000 </r>
       <r>   13.6644    0.0000 </r>
       <r>   14.0626    0.0000 </r>
       <r>   14.3932    0.0000 </r>
       <r>   16.5169    0.0000 </r>
      </set>
      <set comment="kpoint 42">
       <r>  -68.6476    1.0000 </r>
       <r>  -68.6453    1.0000 </r>
       <r>  -68.6330    1.0000 </r>
       <r>  -68.6333    1.0000 </r>
       <r>  -68.6149    1.0000 </r>
       <r>  -68.6133    1.0000 </r>
       <r>  -68.5979    1.0000 </r>
       <r>  -68.5957    1.0000 </r>
       <r>  -68.5774    1.0000 </r>
       <r>  -68.5774    1.0000 </r>
       <r>  -68.5608    1.0000 </r>
       <r>  -68.5604    1.0000 </r>
       <r>  -12.1809    1.0000 </r>
       <r>  -11.7082    1.0000 </r>
       <r>  -10.7178    1.0000 </r>
       <r>  -10.6933    1.0000 </r>
       <r>  -10.5841    1.0000 </r>
       <r>  -10.3895    1.0000 </r>
       <r>   -5.4460    1.0000 </r>
       <r>   -5.0731    1.0000 </r>
       <r>   -2.5089    1.0000 </r>
       <r>   -2.3813    1.0000 </r>
       <r>   -1.9628    1.0000 </r>
       <r>   -1.3694    1.0000 </r>
       <r>   -1.3306    1.0000 </r>
       <r>   -1.0540    1.0000 </r>
       <r>   -0.8357    1.0000 </r>
       <r>   -0.7662    1.0000 </r>
       <r>   -0.4232    1.0000 </r>
       <r>   -0.3390    1.0000 </r>
       <r>   -0.2723    1.0000 </r>
       <r>   -0.2079    1.0000 </r>
       <r>   -0.1416    1.0000 </r>
       <r>   -0.1374    1.0000 </r>
       <r>   -0.0100    1.0000 </r>
       <r>    0.0275    1.0000 </r>
       <r>    1.1727    1.0000 </r>
       <r>    1.3710    1.0000 </r>
       <r>    1.3977    1.0000 </r>
       <r>    1.4526    1.0000 </r>
       <r>    1.4542    1.0000 </r>
       <r>    1.4984    1.0000 </r>
       <r>    1.5172    1.0000 </r>
       <r>    1.5495    1.0000 </r>
       <r>    1.7444    1.0000 </r>
       <r>    1.8203    1.0000 </r>
       <r>    1.9757    1.0000 </r>
       <r>    2.2269    1.0000 </r>
       <r>    2.3964    1.0000 </r>
       <r>    2.6120    1.0000 </r>
       <r>    2.6552    1.0000 </r>
       <r>    2.9149    1.0000 </r>
       <r>    3.0684    1.0000 </r>
       <r>    3.1168    1.0000 </r>
       <r>    3.2848    1.0000 </r>
       <r>    3.5815    1.0000 </r>
       <r>    6.2907   -0.0000 </r>
       <r>    6.3792   -0.0000 </r>
       <r>    7.3588    0.0000 </r>
       <r>    7.5231    0.0000 </r>
       <r>    8.3077    0.0000 </r>
       <r>    8.3342    0.0000 </r>
       <r>    9.1045    0.0000 </r>
       <r>    9.3598    0.0000 </r>
       <r>    9.7166    0.0000 </r>
       <r>    9.9471    0.0000 </r>
       <r>   10.5273    0.0000 </r>
       <r>   10.9884    0.0000 </r>
       <r>   11.4243    0.0000 </r>
       <r>   11.5663    0.0000 </r>
       <r>   12.0180    0.0000 </r>
       <r>   12.2834    0.0000 </r>
       <r>   12.4270    0.0000 </r>
       <r>   12.4758    0.0000 </r>
       <r>   13.0340    0.0000 </r>
       <r>   13.1483    0.0000 </r>
       <r>   14.1429    0.0000 </r>
       <r>   14.4409    0.0000 </r>
       <r>   15.1692    0.0000 </r>
       <r>   15.8661    0.0000 </r>
      </set>
     </set>
    </set>
   </array>
  </eigenvalues>
  <separator name="orbital magnetization" >
   <v name="MAGDIPOLOUT">      0.00000000      0.00000000      0.00000000</v>
  </separator>
  <dos>
   <i name="efermi">      4.22144044 </i>
   <total>
    <array>
     <dimension dim="1">gridpoints</dimension>
     <dimension dim="2">spin</dimension>
     <field>energy</field>
     <field>total</field>
     <field>integrated</field>
     <set>
      <set comment="spin 1">
       <r>   -72.8301     0.0000     0.0000 </r>
       <r>   -72.5238     0.0000     0.0000 </r>
       <r>   -72.2174     0.0000     0.0000 </r>
       <r>   -71.9110     0.0000     0.0000 </r>
       <r>   -71.6046     0.0000     0.0000 </r>
       <r>   -71.2982     0.0000     0.0000 </r>
       <r>   -70.9918     0.0000     0.0000 </r>
       <r>   -70.6855     0.0000     0.0000 </r>
       <r>   -70.3791     0.0000     0.0000 </r>
       <r>   -70.0727     0.0000     0.0000 </r>
       <r>   -69.7663     0.0000     0.0000 </r>
       <r>   -69.4599    -0.0000    -0.0000 </r>
       <r>   -69.1536    -0.0000    -0.0000 </r>
       <r>   -68.8472    -0.2214    -0.0678 </r>
       <r>   -68.5408    70.3273    21.4791 </r>
       <r>   -68.2344     8.2283    24.0001 </r>
       <r>   -67.9280    -0.0004    24.0000 </r>
       <r>   -67.6217     0.0000    24.0000 </r>
       <r>   -67.3153     0.0000    24.0000 </r>
       <r>   -67.0089     0.0000    24.0000 </r>
       <r>   -66.7025     0.0000    24.0000 </r>
       <r>   -66.3961     0.0000    24.0000 </r>
       <r>   -66.0898     0.0000    24.0000 </r>
       <r>   -65.7834     0.0000    24.0000 </r>
       <r>   -65.4770     0.0000    24.0000 </r>
       <r>   -65.1706     0.0000    24.0000 </r>
       <r>   -64.8642     0.0000    24.0000 </r>
       <r>   -64.5578     0.0000    24.0000 </r>
       <r>   -64.2515     0.0000    24.0000 </r>
       <r>   -63.9451     0.0000    24.0000 </r>
       <r>   -63.6387     0.0000    24.0000 </r>
       <r>   -63.3323     0.0000    24.0000 </r>
       <r>   -63.0259     0.0000    24.0000 </r>
       <r>   -62.7196     0.0000    24.0000 </r>
       <r>   -62.4132     0.0000    24.0000 </r>
       <r>   -62.1068     0.0000    24.0000 </r>
       <r>   -61.8004     0.0000    24.0000 </r>
       <r>   -61.4940     0.0000    24.0000 </r>
       <r>   -61.1877     0.0000    24.0000 </r>
       <r>   -60.8813     0.0000    24.0000 </r>
       <r>   -60.5749     0.0000    24.0000 </r>
       <r>   -60.2685     0.0000    24.0000 </r>
       <r>   -59.9621     0.0000    24.0000 </r>
       <r>   -59.6557     0.0000    24.0000 </r>
       <r>   -59.3494     0.0000    24.0000 </r>
       <r>   -59.0430     0.0000    24.0000 </r>
       <r>   -58.7366     0.0000    24.0000 </r>
       <r>   -58.4302     0.0000    24.0000 </r>
       <r>   -58.1238     0.0000    24.0000 </r>
       <r>   -57.8175     0.0000    24.0000 </r>
       <r>   -57.5111     0.0000    24.0000 </r>
       <r>   -57.2047     0.0000    24.0000 </r>
       <r>   -56.8983     0.0000    24.0000 </r>
       <r>   -56.5919     0.0000    24.0000 </r>
       <r>   -56.2856     0.0000    24.0000 </r>
       <r>   -55.9792     0.0000    24.0000 </r>
       <r>   -55.6728     0.0000    24.0000 </r>
       <r>   -55.3664     0.0000    24.0000 </r>
       <r>   -55.0600     0.0000    24.0000 </r>
       <r>   -54.7537     0.0000    24.0000 </r>
       <r>   -54.4473     0.0000    24.0000 </r>
       <r>   -54.1409     0.0000    24.0000 </r>
       <r>   -53.8345     0.0000    24.0000 </r>
       <r>   -53.5281     0.0000    24.0000 </r>
       <r>   -53.2217     0.0000    24.0000 </r>
       <r>   -52.9154     0.0000    24.0000 </r>
       <r>   -52.6090     0.0000    24.0000 </r>
       <r>   -52.3026     0.0000    24.0000 </r>
       <r>   -51.9962     0.0000    24.0000 </r>
       <r>   -51.6898     0.0000    24.0000 </r>
       <r>   -51.3835     0.0000    24.0000 </r>
       <r>   -51.0771     0.0000    24.0000 </r>
       <r>   -50.7707     0.0000    24.0000 </r>
       <r>   -50.4643     0.0000    24.0000 </r>
       <r>   -50.1579     0.0000    24.0000 </r>
       <r>   -49.8516     0.0000    24.0000 </r>
       <r>   -49.5452     0.0000    24.0000 </r>
       <r>   -49.2388     0.0000    24.0000 </r>
       <r>   -48.9324     0.0000    24.0000 </r>
       <r>   -48.6260     0.0000    24.0000 </r>
       <r>   -48.3197     0.0000    24.0000 </r>
       <r>   -48.0133     0.0000    24.0000 </r>
       <r>   -47.7069     0.0000    24.0000 </r>
       <r>   -47.4005     0.0000    24.0000 </r>
       <r>   -47.0941     0.0000    24.0000 </r>
       <r>   -46.7877     0.0000    24.0000 </r>
       <r>   -46.4814     0.0000    24.0000 </r>
       <r>   -46.1750     0.0000    24.0000 </r>
       <r>   -45.8686     0.0000    24.0000 </r>
       <r>   -45.5622     0.0000    24.0000 </r>
       <r>   -45.2558     0.0000    24.0000 </r>
       <r>   -44.9495     0.0000    24.0000 </r>
       <r>   -44.6431     0.0000    24.0000 </r>
       <r>   -44.3367     0.0000    24.0000 </r>
       <r>   -44.0303     0.0000    24.0000 </r>
       <r>   -43.7239     0.0000    24.0000 </r>
       <r>   -43.4176     0.0000    24.0000 </r>
       <r>   -43.1112     0.0000    24.0000 </r>
       <r>   -42.8048     0.0000    24.0000 </r>
       <r>   -42.4984     0.0000    24.0000 </r>
       <r>   -42.1920     0.0000    24.0000 </r>
       <r>   -41.8856     0.0000    24.0000 </r>
       <r>   -41.5793     0.0000    24.0000 </r>
       <r>   -41.2729     0.0000    24.0000 </r>
       <r>   -40.9665     0.0000    24.0000 </r>
       <r>   -40.6601     0.0000    24.0000 </r>
       <r>   -40.3537     0.0000    24.0000 </r>
       <r>   -40.0474     0.0000    24.0000 </r>
       <r>   -39.7410     0.0000    24.0000 </r>
       <r>   -39.4346     0.0000    24.0000 </r>
       <r>   -39.1282     0.0000    24.0000 </r>
       <r>   -38.8218     0.0000    24.0000 </r>
       <r>   -38.5155     0.0000    24.0000 </r>
       <r>   -38.2091     0.0000    24.0000 </r>
       <r>   -37.9027     0.0000    24.0000 </r>
       <r>   -37.5963     0.0000    24.0000 </r>
       <r>   -37.2899     0.0000    24.0000 </r>
       <r>   -36.9836     0.0000    24.0000 </r>
       <r>   -36.6772     0.0000    24.0000 </r>
       <r>   -36.3708     0.0000    24.0000 </r>
       <r>   -36.0644     0.0000    24.0000 </r>
       <r>   -35.7580     0.0000    24.0000 </r>
       <r>   -35.4516     0.0000    24.0000 </r>
       <r>   -35.1453     0.0000    24.0000 </r>
       <r>   -34.8389     0.0000    24.0000 </r>
       <r>   -34.5325     0.0000    24.0000 </r>
       <r>   -34.2261     0.0000    24.0000 </r>
       <r>   -33.9197     0.0000    24.0000 </r>
       <r>   -33.6134     0.0000    24.0000 </r>
       <r>   -33.3070     0.0000    24.0000 </r>
       <r>   -33.0006     0.0000    24.0000 </r>
       <r>   -32.6942     0.0000    24.0000 </r>
       <r>   -32.3878     0.0000    24.0000 </r>
       <r>   -32.0815     0.0000    24.0000 </r>
       <r>   -31.7751     0.0000    24.0000 </r>
       <r>   -31.4687     0.0000    24.0000 </r>
       <r>   -31.1623     0.0000    24.0000 </r>
       <r>   -30.8559     0.0000    24.0000 </r>
       <r>   -30.5496     0.0000    24.0000 </r>
       <r>   -30.2432     0.0000    24.0000 </r>
       <r>   -29.9368     0.0000    24.0000 </r>
       <r>   -29.6304     0.0000    24.0000 </r>
       <r>   -29.3240     0.0000    24.0000 </r>
       <r>   -29.0176     0.0000    24.0000 </r>
       <r>   -28.7113     0.0000    24.0000 </r>
       <r>   -28.4049     0.0000    24.0000 </r>
       <r>   -28.0985     0.0000    24.0000 </r>
       <r>   -27.7921     0.0000    24.0000 </r>
       <r>   -27.4857     0.0000    24.0000 </r>
       <r>   -27.1794     0.0000    24.0000 </r>
       <r>   -26.8730     0.0000    24.0000 </r>
       <r>   -26.5666     0.0000    24.0000 </r>
       <r>   -26.2602     0.0000    24.0000 </r>
       <r>   -25.9538     0.0000    24.0000 </r>
       <r>   -25.6475     0.0000    24.0000 </r>
       <r>   -25.3411     0.0000    24.0000 </r>
       <r>   -25.0347     0.0000    24.0000 </r>
       <r>   -24.7283     0.0000    24.0000 </r>
       <r>   -24.4219     0.0000    24.0000 </r>
       <r>   -24.1155     0.0000    24.0000 </r>
       <r>   -23.8092     0.0000    24.0000 </r>
       <r>   -23.5028     0.0000    24.0000 </r>
       <r>   -23.1964     0.0000    24.0000 </r>
       <r>   -22.8900     0.0000    24.0000 </r>
       <r>   -22.5836     0.0000    24.0000 </r>
       <r>   -22.2773     0.0000    24.0000 </r>
       <r>   -21.9709     0.0000    24.0000 </r>
       <r>   -21.6645     0.0000    24.0000 </r>
       <r>   -21.3581     0.0000    24.0000 </r>
       <r>   -21.0517     0.0000    24.0000 </r>
       <r>   -20.7454     0.0000    24.0000 </r>
       <r>   -20.4390     0.0000    24.0000 </r>
       <r>   -20.1326     0.0000    24.0000 </r>
       <r>   -19.8262     0.0000    24.0000 </r>
       <r>   -19.5198     0.0000    24.0000 </r>
       <r>   -19.2135     0.0000    24.0000 </r>
       <r>   -18.9071     0.0000    24.0000 </r>
       <r>   -18.6007     0.0000    24.0000 </r>
       <r>   -18.2943     0.0000    24.0000 </r>
       <r>   -17.9879     0.0000    24.0000 </r>
       <r>   -17.6815     0.0000    24.0000 </r>
       <r>   -17.3752     0.0000    24.0000 </r>
       <r>   -17.0688     0.0000    24.0000 </r>
       <r>   -16.7624     0.0000    24.0000 </r>
       <r>   -16.4560     0.0000    24.0000 </r>
       <r>   -16.1496     0.0000    24.0000 </r>
       <r>   -15.8433     0.0000    24.0000 </r>
       <r>   -15.5369     0.0000    24.0000 </r>
       <r>   -15.2305     0.0000    24.0000 </r>
       <r>   -14.9241     0.0000    24.0000 </r>
       <r>   -14.6177     0.0000    24.0000 </r>
       <r>   -14.3114     0.0000    24.0000 </r>
       <r>   -14.0050     0.0000    24.0000 </r>
       <r>   -13.6986    -0.0000    24.0000 </r>
       <r>   -13.3922    -0.0000    24.0000 </r>
       <r>   -13.0858    -0.0000    24.0000 </r>
       <r>   -12.7795    -0.0038    23.9988 </r>
       <r>   -12.4731     1.5732    24.4808 </r>
       <r>   -12.1667     3.5666    25.5736 </r>
       <r>   -11.8603     1.8979    26.1551 </r>
       <r>   -11.5539     2.1361    26.8095 </r>
       <r>   -11.2475     3.1900    27.7869 </r>
       <r>   -10.9412     2.5999    28.5834 </r>
       <r>   -10.6348     9.2429    31.4153 </r>
       <r>   -10.3284     9.2857    34.2603 </r>
       <r>   -10.0220     5.6977    36.0059 </r>
       <r>    -9.7156    -0.0194    36.0000 </r>
       <r>    -9.4093    -0.0000    36.0000 </r>
       <r>    -9.1029     0.0000    36.0000 </r>
       <r>    -8.7965     0.0000    36.0000 </r>
       <r>    -8.4901     0.0000    36.0000 </r>
       <r>    -8.1837     0.0000    36.0000 </r>
       <r>    -7.8774     0.0000    36.0000 </r>
       <r>    -7.5710     0.0000    36.0000 </r>
       <r>    -7.2646     0.0000    36.0000 </r>
       <r>    -6.9582    -0.0000    36.0000 </r>
       <r>    -6.6518    -0.0000    36.0000 </r>
       <r>    -6.3454    -0.0000    36.0000 </r>
       <r>    -6.0391     0.0568    36.0174 </r>
       <r>    -5.7327     3.4937    37.0878 </r>
       <r>    -5.4263     2.0564    37.7179 </r>
       <r>    -5.1199     1.8774    38.2931 </r>
       <r>    -4.8135     3.3029    39.3050 </r>
       <r>    -4.5072     2.2057    39.9808 </r>
       <r>    -4.2008     0.0626    40.0000 </r>
       <r>    -3.8944    -0.0000    40.0000 </r>
       <r>    -3.5880    -0.0000    40.0000 </r>
       <r>    -3.2816    -0.0000    40.0000 </r>
       <r>    -2.9753    -0.0004    39.9999 </r>
       <r>    -2.6689     0.3913    40.1198 </r>
       <r>    -2.3625     6.1655    42.0088 </r>
       <r>    -2.0561     6.6788    44.0550 </r>
       <r>    -1.7497     7.3473    46.3061 </r>
       <r>    -1.4434     6.4058    48.2687 </r>
       <r>    -1.1370     8.7527    50.9504 </r>
       <r>    -0.8306     9.0722    53.7299 </r>
       <r>    -0.5242    11.4079    57.2251 </r>
       <r>    -0.2178    18.1069    62.7727 </r>
       <r>     0.0886    28.9596    71.6454 </r>
       <r>     0.3949     1.1581    72.0002 </r>
       <r>     0.7013    -0.0006    72.0000 </r>
       <r>     1.0077    -0.0205    71.9937 </r>
       <r>     1.3141     7.4549    74.2778 </r>
       <r>     1.6205    44.7934    88.0016 </r>
       <r>     1.9268    13.8138    92.2339 </r>
       <r>     2.2332    13.1717    96.2695 </r>
       <r>     2.5396    12.8588   100.2091 </r>
       <r>     2.8460    11.1629   103.6292 </r>
       <r>     3.1524     9.0680   106.4075 </r>
       <r>     3.4587     7.9216   108.8345 </r>
       <r>     3.7651     6.9345   110.9591 </r>
       <r>     4.0715     3.1570   111.9263 </r>
       <r>     4.3779     0.2410   112.0002 </r>
       <r>     4.6843    -0.0005   112.0000 </r>
       <r>     4.9907    -0.0000   112.0000 </r>
       <r>     5.2970    -0.0001   112.0000 </r>
       <r>     5.6034     0.0774   112.0237 </r>
       <r>     5.9098     0.1737   112.0769 </r>
       <r>     6.2162     2.6436   112.8868 </r>
       <r>     6.5226     4.3637   114.2238 </r>
       <r>     6.8289     3.4409   115.2780 </r>
       <r>     7.1353     2.4226   116.0203 </r>
       <r>     7.4417     1.4316   116.4589 </r>
       <r>     7.7481     3.1931   117.4372 </r>
       <r>     8.0545     5.5703   119.1438 </r>
       <r>     8.3608     5.5376   120.8404 </r>
       <r>     8.6672     4.5986   122.2494 </r>
       <r>     8.9736     4.4614   123.6163 </r>
       <r>     9.2800     5.6178   125.3375 </r>
       <r>     9.5864     5.6815   127.0782 </r>
       <r>     9.8927     4.7786   128.5422 </r>
       <r>    10.1991     4.4703   129.9118 </r>
       <r>    10.5055     6.4859   131.8990 </r>
       <r>    10.8119     8.2608   134.4300 </r>
       <r>    11.1183     8.2803   136.9669 </r>
       <r>    11.4247     7.9596   139.4056 </r>
       <r>    11.7310     7.9383   141.8377 </r>
       <r>    12.0374     6.5629   143.8485 </r>
       <r>    12.3438     5.8751   145.6485 </r>
       <r>    12.6502     6.6214   147.6772 </r>
       <r>    12.9566     5.7885   149.4506 </r>
       <r>    13.2629     6.2125   151.3540 </r>
       <r>    13.5693     5.3592   152.9960 </r>
       <r>    13.8757     4.0232   154.2286 </r>
       <r>    14.1821     3.1974   155.2082 </r>
       <r>    14.4885     4.5679   156.6077 </r>
       <r>    14.7948     3.5089   157.6828 </r>
       <r>    15.1012     1.4067   158.1138 </r>
       <r>    15.4076     1.5928   158.6018 </r>
       <r>    15.7140     1.2182   158.9750 </r>
       <r>    16.0204     1.6874   159.4920 </r>
       <r>    16.3267     0.3292   159.5929 </r>
       <r>    16.6331     0.6849   159.8027 </r>
       <r>    16.9395     0.5299   159.9650 </r>
       <r>    17.2459     0.1141   160.0000 </r>
       <r>    17.5523    -0.0000   160.0000 </r>
       <r>    17.8587     0.0000   160.0000 </r>
       <r>    18.1650     0.0000   160.0000 </r>
       <r>    18.4714     0.0000   160.0000 </r>
       <r>    18.7778     0.0000   160.0000 </r>
       <r>    19.0842     0.0000   160.0000 </r>
      </set>
     </set>
    </array>
   </total>
  </dos>
 </calculation>
 <structure name="finalpos" >
  <crystal>
   <varray name="basis" >
    <v>       3.22479600      -5.64383000       0.03157200 </v>
    <v>       3.22479600       5.64383000       0.03157200 </v>
    <v>      -2.10194600       0.00000000       6.07553700 </v>
   </varray>
   <i name="volume">    221.90106089 </i>
   <varray name="rec_basis" >
    <v>       0.15452516      -0.08859232       0.05346088 </v>
    <v>       0.15452516       0.08859232       0.05346088 </v>
    <v>      -0.00160600       0.00000000       0.16403888 </v>
   </varray>
  </crystal>
  <varray name="positions" >
   <v>       0.61844300       0.12270940       0.11953300 </v>
   <v>       0.12117100       0.61844300       0.61953300 </v>
   <v>       0.96295700       0.79032200       0.11881300 </v>
   <v>       0.79032200       0.96295700       0.61881300 </v>
   <v>       0.43973200       0.26728100       0.59904700 </v>
   <v>       0.26728100       0.43973200       0.09904700 </v>
   <v>       0.07949800       0.91167500       0.49736300 </v>
   <v>       0.57140300       0.41236400       0.98018400 </v>
   <v>       0.73711100       0.25006200       0.49504900 </v>
   <v>       0.41236400       0.57140300       0.48018400 </v>
   <v>       0.91167500       0.07949800       0.99736300 </v>
   <v>       0.25006200       0.73711100       0.99504900 </v>
  </varray>
 </structure>
</modeling>
