   12   12    1    1
  0.1849176E+02  0.6500240E-09  0.6500240E-09  0.6428867E-09  0.5000000E-15
  1.000000000000000E-004
  CAR 
 CGS                                     
  112   42   80
 
  0.0000000E+00  0.0000000E+00  0.0000000E+00  0.1250000E-01
   1      -68.645573
   2      -68.643413
   3      -68.633542
   4      -68.633437
   5      -68.613547
   6      -68.611929
   7      -68.596109
   8      -68.593924
   9      -68.577900
  10      -68.577723
  11      -68.560923
  12      -68.560930
  13      -12.719724
  14      -11.130644
  15      -10.913775
  16      -10.603138
  17      -10.253916
  18      -10.237048
  19       -5.985156
  20       -4.982891
  21       -2.759346
  22       -2.207141
  23       -2.069563
  24       -1.924485
  25       -1.577954
  26       -0.983994
  27       -0.948880
  28       -0.684128
  29       -0.400860
  30       -0.276294
  31       -0.261844
  32       -0.233015
  33       -0.188483
  34       -0.157594
  35       -0.041819
  36        0.030972
  37        1.350385
  38        1.362096
  39        1.412947
  40        1.457062
  41        1.471075
  42        1.474092
  43        1.520554
  44        1.532584
  45        1.575377
  46        1.711899
  47        1.892800
  48        1.928480
  49        2.058119
  50        2.651278
  51        2.730080
  52        3.093047
  53        3.216524
  54        4.005852
  55        4.038705
  56        4.172234
  57        5.539187
  58        6.358194
  59        7.630268
  60        7.987773
  61        8.618111
  62        8.791016
  63        9.573476
  64        9.737318
  65        9.814910
  66       10.419208
  67       10.580163
  68       10.694825
  69       10.715471
  70       11.282690
  71       11.710345
  72       12.391893
  73       12.453508
  74       12.730054
  75       13.320810
  76       13.384314
  77       13.831621
  78       13.883809
  79       14.148335
  80       14.181984
 
  0.2500000E+00  0.7372575E-17  0.1387779E-16  0.2500000E-01
   1      -68.645527
   2      -68.643392
   3      -68.633496
   4      -68.633417
   5      -68.613433
   6      -68.611822
   7      -68.596137
   8      -68.593929
   9      -68.577833
  10      -68.577668
  11      -68.560869
  12      -68.560915
  13      -12.594548
  14      -11.129621
  15      -10.977649
  16      -10.676969
  17      -10.369164
  18      -10.279740
  19       -5.933528
  20       -4.772374
  21       -2.644113
  22       -2.251574
  23       -2.086663
  24       -1.688504
  25       -1.346582
  26       -0.998396
  27       -0.765893
  28       -0.624070
  29       -0.555196
  30       -0.439449
  31       -0.360964
  32       -0.239721
  33       -0.194797
  34       -0.167831
  35       -0.047543
  36        0.040465
  37        1.279015
  38        1.335570
  39        1.354029
  40        1.392288
  41        1.427407
  42        1.472313
  43        1.498024
  44        1.530460
  45        1.725704
  46        1.860197
  47        2.057266
  48        2.093972
  49        2.231047
  50        2.413328
  51        2.556207
  52        2.826270
  53        2.948140
  54        3.243305
  55        3.661945
  56        4.039555
  57        6.171947
  58        6.905392
  59        8.138878
  60        8.267299
  61        8.594711
  62        9.013477
  63        9.243346
  64        9.531902
  65        9.863944
  66       10.376482
  67       10.634744
  68       10.812998
  69       10.938125
  70       11.190787
  71       11.658355
  72       11.771712
  73       12.118538
  74       12.440151
  75       12.616275
  76       13.009354
  77       13.506186
  78       13.873205
  79       14.214678
  80       14.711564
 
  0.5000000E+00  0.1474515E-16  0.2775558E-16  0.1250000E-01
   1      -68.645412
   2      -68.643222
   3      -68.633516
   4      -68.633240
   5      -68.613381
   6      -68.611808
   7      -68.596050
   8      -68.593866
   9      -68.577844
  10      -68.577590
  11      -68.560703
  12      -68.560796
  13      -12.434835
  14      -11.250586
  15      -10.952712
  16      -10.764493
  17      -10.431277
  18      -10.359898
  19       -5.871294
  20       -4.547223
  21       -2.491500
  22       -2.244240
  23       -1.946485
  24       -1.464368
  25       -1.224901
  26       -1.099531
  27       -0.903324
  28       -0.865911
  29       -0.597692
  30       -0.541124
  31       -0.270882
  32       -0.205563
  33       -0.202572
  34       -0.143463
  35       -0.032255
  36        0.082718
  37        1.254561
  38        1.326676
  39        1.348395
  40        1.397903
  41        1.471632
  42        1.478864
  43        1.498774
  44        1.552621
  45        1.752284
  46        1.790961
  47        1.967795
  48        2.149075
  49        2.322193
  50        2.362136
  51        2.552327
  52        2.670207
  53        2.940594
  54        3.078470
  55        3.249558
  56        3.861519
  57        6.386511
  58        7.095087
  59        7.980184
  60        8.204506
  61        8.519220
  62        8.820469
  63        9.329501
  64        9.888361
  65       10.011659
  66       10.516679
  67       10.694237
  68       10.795171
  69       11.142339
  70       11.408248
  71       11.609713
  72       11.775361
  73       11.943192
  74       12.504354
  75       12.783602
  76       12.998285
  77       13.392311
  78       13.540364
  79       13.939601
  80       14.270729
 
  0.7372575E-17  0.2500000E+00  0.1387779E-16  0.2500000E-01
   1      -68.645550
   2      -68.643364
   3      -68.633511
   4      -68.633402
   5      -68.613437
   6      -68.611820
   7      -68.596110
   8      -68.593961
   9      -68.577819
  10      -68.577682
  11      -68.560869
  12      -68.560915
  13      -12.594445
  14      -11.128643
  15      -10.979570
  16      -10.677207
  17      -10.367774
  18      -10.279983
  19       -5.933585
  20       -4.772270
  21       -2.644325
  22       -2.251155
  23       -2.086627
  24       -1.688474
  25       -1.348782
  26       -0.998469
  27       -0.768922
  28       -0.621059
  29       -0.547991
  30       -0.438726
  31       -0.363442
  32       -0.241131
  33       -0.195393
  34       -0.168357
  35       -0.047127
  36        0.039016
  37        1.279354
  38        1.335534
  39        1.354802
  40        1.391765
  41        1.427109
  42        1.471720
  43        1.498360
  44        1.530766
  45        1.724560
  46        1.859572
  47        2.056178
  48        2.095235
  49        2.231277
  50        2.413948
  51        2.556809
  52        2.826165
  53        2.947482
  54        3.242115
  55        3.662614
  56        4.040777
  57        6.171932
  58        6.906795
  59        8.138124
  60        8.269239
  61        8.593169
  62        9.013813
  63        9.242132
  64        9.530534
  65        9.863927
  66       10.375546
  67       10.635973
  68       10.813772
  69       10.939211
  70       11.189762
  71       11.657570
  72       11.773345
  73       12.116779
  74       12.441833
  75       12.615917
  76       13.009071
  77       13.517479
  78       13.898811
  79       14.271348
  80       14.828575
 
  0.2500000E+00  0.2500000E+00  0.0000000E+00  0.2500000E-01
   1      -68.645549
   2      -68.643389
   3      -68.633459
   4      -68.633241
   5      -68.613571
   6      -68.611950
   7      -68.596014
   8      -68.593837
   9      -68.577951
  10      -68.577798
  11      -68.560913
  12      -68.560906
  13      -12.438532
  14      -11.192040
  15      -10.939641
  16      -10.878964
  17      -10.393153
  18      -10.352386
  19       -5.876421
  20       -4.520522
  21       -2.415652
  22       -2.245298
  23       -1.792354
  24       -1.680300
  25       -1.356653
  26       -1.299753
  27       -1.082299
  28       -0.680757
  29       -0.526002
  30       -0.298390
  31       -0.280886
  32       -0.223983
  33       -0.188277
  34       -0.124783
  35       -0.094859
  36        0.081949
  37        1.293792
  38        1.311146
  39        1.415635
  40        1.426061
  41        1.463522
  42        1.482217
  43        1.495180
  44        1.570280
  45        1.671732
  46        1.880218
  47        1.940436
  48        2.135884
  49        2.280148
  50        2.320944
  51        2.558012
  52        2.650374
  53        2.902841
  54        2.946055
  55        3.698241
  56        3.832144
  57        6.172904
  58        6.989508
  59        8.003724
  60        8.327666
  61        8.435559
  62        8.572681
  63        9.146156
  64        9.249242
  65       10.362068
  66       10.496410
  67       10.919844
  68       11.185264
  69       11.329074
  70       11.557976
  71       11.815100
  72       11.962312
  73       12.314984
  74       12.501999
  75       12.710026
  76       12.914605
  77       13.335802
  78       13.446243
  79       14.255492
  80       14.367588
 
  0.5000000E+00  0.2500000E+00 -0.2775558E-16  0.2500000E-01
   1      -68.645257
   2      -68.643233
   3      -68.633512
   4      -68.633345
   5      -68.613331
   6      -68.611745
   7      -68.596055
   8      -68.593893
   9      -68.577723
  10      -68.577622
  11      -68.560721
  12      -68.560806
  13      -12.439002
  14      -11.355400
  15      -10.934425
  16      -10.738720
  17      -10.391013
  18      -10.274078
  19       -5.948140
  20       -4.642007
  21       -2.390235
  22       -2.224193
  23       -2.057589
  24       -1.639710
  25       -1.361881
  26       -1.281489
  27       -1.024609
  28       -0.512504
  29       -0.485882
  30       -0.330246
  31       -0.283130
  32       -0.209913
  33       -0.151984
  34       -0.137436
  35       -0.012013
  36        0.114463
  37        1.247446
  38        1.315326
  39        1.381932
  40        1.437690
  41        1.461886
  42        1.491865
  43        1.497330
  44        1.549298
  45        1.750544
  46        1.829543
  47        1.921419
  48        2.134144
  49        2.219988
  50        2.385331
  51        2.562445
  52        2.790428
  53        2.979251
  54        3.311174
  55        3.602808
  56        3.748377
  57        6.089267
  58        6.938764
  59        7.612919
  60        8.068823
  61        8.410273
  62        8.616670
  63        8.983150
  64        9.153149
  65       10.087258
  66       10.336104
  67       10.732877
  68       11.109033
  69       11.460141
  70       11.593790
  71       11.797066
  72       12.081459
  73       12.473249
  74       12.910742
  75       13.028706
  76       13.811446
  77       14.185157
  78       14.646401
  79       15.428541
  80       15.636899
 
 -0.2500000E+00  0.2500000E+00  0.0000000E+00  0.2500000E-01
   1      -68.645540
   2      -68.643380
   3      -68.633492
   4      -68.633368
   5      -68.613369
   6      -68.611752
   7      -68.596107
   8      -68.593931
   9      -68.577794
  10      -68.577604
  11      -68.560866
  12      -68.560921
  13      -12.597464
  14      -11.253274
  15      -10.987659
  16      -10.570359
  17      -10.368985
  18      -10.182175
  19       -6.010442
  20       -4.894469
  21       -2.646153
  22       -2.312261
  23       -1.970744
  24       -1.647856
  25       -1.494090
  26       -1.184835
  27       -0.788953
  28       -0.585553
  29       -0.446725
  30       -0.331493
  31       -0.294626
  32       -0.233464
  33       -0.174793
  34       -0.132627
  35       -0.010570
  36        0.071322
  37        1.259443
  38        1.321206
  39        1.364602
  40        1.422936
  41        1.431463
  42        1.476374
  43        1.503677
  44        1.543422
  45        1.724883
  46        1.812934
  47        1.995480
  48        2.073350
  49        2.415869
  50        2.464020
  51        2.527025
  52        2.873319
  53        3.142518
  54        3.228737
  55        3.783967
  56        4.070884
  57        5.980652
  58        6.689302
  59        7.534833
  60        8.222649
  61        8.618385
  62        8.913739
  63        9.306945
  64        9.431948
  65        9.803877
  66       10.273973
  67       10.541237
  68       10.827151
  69       10.970885
  70       11.383124
  71       11.469044
  72       11.735232
  73       12.099830
  74       12.664459
  75       12.941648
  76       13.104943
  77       13.350659
  78       13.521713
  79       14.476961
  80       14.755769
 
  0.1474515E-16  0.5000000E+00  0.2775558E-16  0.1250000E-01
   1      -68.645376
   2      -68.643246
   3      -68.633537
   4      -68.633220
   5      -68.613421
   6      -68.611768
   7      -68.596042
   8      -68.593879
   9      -68.577801
  10      -68.577634
  11      -68.560762
  12      -68.560743
  13      -12.434517
  14      -11.250807
  15      -10.953656
  16      -10.766167
  17      -10.427450
  18      -10.361054
  19       -5.871425
  20       -4.547024
  21       -2.492405
  22       -2.244743
  23       -1.944301
  24       -1.464704
  25       -1.225923
  26       -1.102713
  27       -0.898753
  28       -0.868142
  29       -0.597376
  30       -0.536005
  31       -0.276755
  32       -0.203589
  33       -0.203235
  34       -0.143601
  35       -0.032266
  36        0.082556
  37        1.254915
  38        1.327126
  39        1.347634
  40        1.396972
  41        1.470241
  42        1.479577
  43        1.500454
  44        1.553463
  45        1.753191
  46        1.791917
  47        1.968694
  48        2.145794
  49        2.319472
  50        2.365717
  51        2.555243
  52        2.669516
  53        2.936588
  54        3.077680
  55        3.248367
  56        3.863402
  57        6.386499
  58        7.098396
  59        7.980943
  60        8.205186
  61        8.519227
  62        8.821496
  63        9.328304
  64        9.887810
  65       10.011050
  66       10.518523
  67       10.691900
  68       10.794376
  69       11.140160
  70       11.406025
  71       11.610257
  72       11.775402
  73       11.942264
  74       12.508697
  75       12.825582
  76       13.031395
  77       13.548334
  78       13.683922
  79       14.552984
  80       15.249327
 
  0.2500000E+00  0.5000000E+00 -0.2775558E-16  0.2500000E-01
   1      -68.645300
   2      -68.643198
   3      -68.633485
   4      -68.633330
   5      -68.613312
   6      -68.611782
   7      -68.596065
   8      -68.593905
   9      -68.577715
  10      -68.577626
  11      -68.560785
  12      -68.560740
  13      -12.438843
  14      -11.355659
  15      -10.934528
  16      -10.739264
  17      -10.390843
  18      -10.273433
  19       -5.948186
  20       -4.641908
  21       -2.390481
  22       -2.224685
  23       -2.056300
  24       -1.640751
  25       -1.363221
  26       -1.281989
  27       -1.022977
  28       -0.512082
  29       -0.481938
  30       -0.331013
  31       -0.282193
  32       -0.213784
  33       -0.150772
  34       -0.137109
  35       -0.013027
  36        0.113837
  37        1.247087
  38        1.315390
  39        1.383666
  40        1.436160
  41        1.462155
  42        1.492371
  43        1.496913
  44        1.549507
  45        1.748445
  46        1.828008
  47        1.922461
  48        2.135100
  49        2.221024
  50        2.385152
  51        2.561313
  52        2.790175
  53        2.978772
  54        3.313562
  55        3.602231
  56        3.749054
  57        6.089049
  58        6.939593
  59        7.612598
  60        8.068600
  61        8.411196
  62        8.616019
  63        8.983966
  64        9.152327
  65       10.087373
  66       10.335944
  67       10.733169
  68       11.107041
  69       11.455776
  70       11.578100
  71       11.785915
  72       12.031685
  73       12.523009
  74       12.687249
  75       12.913164
  76       13.209273
  77       14.228649
  78       14.779360
  79       15.253778
  80       15.909396
 
  0.5000000E+00  0.5000000E+00  0.0000000E+00  0.1250000E-01
   1      -68.645149
   2      -68.643005
   3      -68.633351
   4      -68.633114
   5      -68.613133
   6      -68.611737
   7      -68.595834
   8      -68.593735
   9      -68.577672
  10      -68.577486
  11      -68.560500
  12      -68.560623
  13      -12.430789
  14      -11.503016
  15      -10.909653
  16      -10.618640
  17      -10.399725
  18      -10.201315
  19       -6.026682
  20       -4.810713
  21       -2.310702
  22       -2.261739
  23       -2.093748
  24       -1.702084
  25       -1.245975
  26       -1.108702
  27       -0.845110
  28       -0.781597
  29       -0.729088
  30       -0.244788
  31       -0.198234
  32       -0.179167
  33       -0.149788
  34       -0.042022
  35       -0.006450
  36        0.185825
  37        1.266416
  38        1.317399
  39        1.377282
  40        1.413984
  41        1.432877
  42        1.492693
  43        1.508828
  44        1.549114
  45        1.788606
  46        1.846572
  47        1.996861
  48        2.150591
  49        2.252634
  50        2.338425
  51        2.560085
  52        2.764279
  53        2.772104
  54        3.367269
  55        3.763974
  56        4.008303
  57        5.856107
  58        6.766266
  59        7.084616
  60        8.412028
  61        8.562168
  62        8.770126
  63        9.142681
  64        9.241064
  65        9.958032
  66       10.283530
  67       10.726745
  68       10.822118
  69       10.876093
  70       11.276940
  71       11.754648
  72       11.916173
  73       11.974019
  74       12.367896
  75       12.541203
  76       13.463222
  77       14.279852
  78       14.681725
  79       16.746441
  80       16.756990
 
 -0.2168404E-18 -0.2168404E-18  0.2000000E+00  0.2500000E-01
   1      -68.645577
   2      -68.643413
   3      -68.633509
   4      -68.633407
   5      -68.613464
   6      -68.611846
   7      -68.596131
   8      -68.593956
   9      -68.577873
  10      -68.577696
  11      -68.560928
  12      -68.560929
  13      -12.616535
  14      -11.424715
  15      -10.776967
  16      -10.608145
  17      -10.252800
  18      -10.238956
  19       -5.831431
  20       -5.046322
  21       -2.598895
  22       -2.370341
  23       -1.963590
  24       -1.775039
  25       -1.445556
  26       -1.123495
  27       -1.064245
  28       -0.771109
  29       -0.470828
  30       -0.294220
  31       -0.238507
  32       -0.233692
  33       -0.191054
  34       -0.148020
  35       -0.018554
  36        0.023355
  37        1.333372
  38        1.381315
  39        1.415997
  40        1.440288
  41        1.464796
  42        1.466347
  43        1.514800
  44        1.545352
  45        1.633162
  46        1.758849
  47        1.787271
  48        1.951061
  49        2.087508
  50        2.660419
  51        2.718893
  52        3.197159
  53        3.252362
  54        3.521922
  55        3.894548
  56        3.976664
  57        6.046304
  58        6.416760
  59        7.825204
  60        7.908441
  61        8.365868
  62        8.819708
  63        9.775314
  64        9.795080
  65       10.062276
  66       10.584223
  67       10.642074
  68       10.814377
  69       10.856596
  70       11.493553
  71       11.557575
  72       12.028395
  73       12.579519
  74       12.775990
  75       12.914106
  76       13.204927
  77       13.535405
  78       13.821277
  79       14.197911
  80       14.703675
 
  0.2500000E+00  0.1517883E-17  0.2000000E+00  0.2500000E-01
   1      -68.645512
   2      -68.643351
   3      -68.633496
   4      -68.633392
   5      -68.613507
   6      -68.611893
   7      -68.596088
   8      -68.593908
   9      -68.577866
  10      -68.577723
  11      -68.560845
  12      -68.560886
  13      -12.457180
  14      -11.466458
  15      -10.861498
  16      -10.690232
  17      -10.375960
  18      -10.247596
  19       -5.766918
  20       -4.803429
  21       -2.442930
  22       -2.232431
  23       -1.851733
  24       -1.711640
  25       -1.434572
  26       -1.187739
  27       -0.887431
  28       -0.748986
  29       -0.605891
  30       -0.523773
  31       -0.314270
  32       -0.241506
  33       -0.171901
  34       -0.124077
  35       -0.053770
  36        0.062198
  37        1.301868
  38        1.337044
  39        1.369228
  40        1.431593
  41        1.446769
  42        1.479177
  43        1.521547
  44        1.546572
  45        1.643919
  46        1.872360
  47        1.977991
  48        2.048141
  49        2.194205
  50        2.475483
  51        2.595063
  52        2.839440
  53        2.963086
  54        3.133964
  55        3.568607
  56        3.723762
  57        6.442611
  58        6.956834
  59        8.171742
  60        8.246679
  61        8.834002
  62        9.129319
  63        9.465450
  64        9.795941
  65       10.084854
  66       10.297161
  67       10.742052
  68       11.077700
  69       11.290666
  70       11.425248
  71       11.633780
  72       11.725021
  73       12.085271
  74       12.267001
  75       12.542040
  76       12.656868
  77       12.953818
  78       13.060951
  79       13.639187
  80       14.691126
 
  0.5000000E+00  0.9107298E-17  0.2000000E+00  0.2500000E-01
   1      -68.645299
   2      -68.643205
   3      -68.633451
   4      -68.633287
   5      -68.613354
   6      -68.611758
   7      -68.595985
   8      -68.593845
   9      -68.577732
  10      -68.577661
  11      -68.560756
  12      -68.560833
  13      -12.354630
  14      -11.412753
  15      -10.952018
  16      -10.684290
  17      -10.480018
  18      -10.337615
  19       -5.752168
  20       -4.721164
  21       -2.521051
  22       -2.184098
  23       -1.952520
  24       -1.534794
  25       -1.302350
  26       -1.097733
  27       -0.871855
  28       -0.753492
  29       -0.548959
  30       -0.446011
  31       -0.290551
  32       -0.179382
  33       -0.147169
  34       -0.105121
  35       -0.045326
  36        0.022638
  37        1.272224
  38        1.298761
  39        1.352549
  40        1.429549
  41        1.452689
  42        1.479621
  43        1.501057
  44        1.587259
  45        1.718323
  46        1.931548
  47        2.076522
  48        2.147192
  49        2.267818
  50        2.403550
  51        2.568433
  52        2.597714
  53        2.899136
  54        3.010160
  55        3.359920
  56        3.899399
  57        6.366477
  58        6.895781
  59        7.573923
  60        8.084890
  61        8.546645
  62        8.798188
  63        9.279832
  64        9.629257
  65        9.931721
  66       10.276749
  67       10.658564
  68       10.929883
  69       10.970523
  70       11.281603
  71       11.519640
  72       11.788758
  73       12.248544
  74       12.545282
  75       13.096452
  76       13.516499
  77       14.297154
  78       14.567630
  79       15.124515
  80       16.268248
 
 -0.2500000E+00 -0.4098284E-16  0.2000000E+00  0.2500000E-01
   1      -68.645571
   2      -68.643405
   3      -68.633480
   4      -68.633387
   5      -68.613467
   6      -68.611855
   7      -68.596119
   8      -68.593942
   9      -68.577878
  10      -68.577726
  11      -68.560906
  12      -68.560938
  13      -12.540082
  14      -11.336033
  15      -10.873383
  16      -10.605229
  17      -10.400414
  18      -10.286045
  19       -5.825017
  20       -4.973999
  21       -2.663764
  22       -2.452753
  23       -2.039103
  24       -1.575927
  25       -1.170803
  26       -0.984991
  27       -0.790836
  28       -0.656820
  29       -0.516335
  30       -0.390549
  31       -0.267025
  32       -0.254320
  33       -0.192061
  34       -0.145858
  35       -0.046018
  36        0.012379
  37        1.289719
  38        1.310956
  39        1.389024
  40        1.408958
  41        1.434135
  42        1.455537
  43        1.492076
  44        1.565120
  45        1.687613
  46        1.915435
  47        1.987311
  48        2.145075
  49        2.334900
  50        2.564660
  51        2.617934
  52        2.830186
  53        2.974076
  54        3.248236
  55        3.683599
  56        3.944122
  57        6.179886
  58        6.638122
  59        7.767329
  60        7.971834
  61        8.215283
  62        8.563158
  63        9.381197
  64        9.577092
  65        9.907322
  66       10.250843
  67       10.544087
  68       10.788787
  69       10.837430
  70       11.067252
  71       11.568455
  72       12.022320
  73       12.530876
  74       12.752680
  75       12.953072
  76       13.308398
  77       13.411850
  78       13.739771
  79       13.848778
  80       14.724557
 
  0.1517883E-17  0.2500000E+00  0.2000000E+00  0.2500000E-01
   1      -68.645514
   2      -68.643352
   3      -68.633498
   4      -68.633390
   5      -68.613502
   6      -68.611897
   7      -68.596095
   8      -68.593898
   9      -68.577875
  10      -68.577715
  11      -68.560836
  12      -68.560895
  13      -12.457072
  14      -11.465881
  15      -10.865658
  16      -10.687481
  17      -10.375428
  18      -10.247291
  19       -5.767162
  20       -4.803191
  21       -2.443256
  22       -2.231850
  23       -1.850105
  24       -1.712413
  25       -1.436696
  26       -1.188714
  27       -0.891658
  28       -0.743338
  29       -0.607801
  30       -0.518254
  31       -0.312972
  32       -0.243782
  33       -0.175515
  34       -0.122107
  35       -0.053187
  36        0.061182
  37        1.302186
  38        1.336368
  39        1.369693
  40        1.431835
  41        1.446193
  42        1.478712
  43        1.521694
  44        1.546670
  45        1.643173
  46        1.871160
  47        1.977843
  48        2.048666
  49        2.195237
  50        2.475974
  51        2.596404
  52        2.838587
  53        2.963465
  54        3.132868
  55        3.567005
  56        3.726230
  57        6.441722
  58        6.958248
  59        8.172303
  60        8.246704
  61        8.834395
  62        9.129935
  63        9.462401
  64        9.796497
  65       10.083450
  66       10.299115
  67       10.740505
  68       11.079046
  69       11.289873
  70       11.424822
  71       11.633452
  72       11.724509
  73       12.085931
  74       12.266471
  75       12.542694
  76       12.654650
  77       12.955915
  78       13.059893
  79       13.655191
  80       14.697450
 
  0.2500000E+00  0.2500000E+00  0.2000000E+00  0.2500000E-01
   1      -68.645421
   2      -68.643261
   3      -68.633399
   4      -68.633187
   5      -68.613345
   6      -68.611728
   7      -68.595966
   8      -68.593791
   9      -68.577785
  10      -68.577544
  11      -68.560833
  12      -68.560719
  13      -12.324887
  14      -11.474662
  15      -10.864765
  16      -10.855632
  17      -10.408771
  18      -10.288730
  19       -5.748248
  20       -4.690638
  21       -2.239193
  22       -2.137593
  23       -1.927696
  24       -1.850361
  25       -1.454692
  26       -1.397345
  27       -1.041765
  28       -0.520365
  29       -0.458234
  30       -0.347854
  31       -0.251035
  32       -0.217251
  33       -0.161307
  34       -0.111215
  35       -0.092237
  36        0.081232
  37        1.262481
  38        1.347946
  39        1.397549
  40        1.435443
  41        1.452035
  42        1.510051
  43        1.535878
  44        1.543557
  45        1.753912
  46        1.817801
  47        2.041676
  48        2.133484
  49        2.285481
  50        2.310781
  51        2.519715
  52        2.769918
  53        2.898722
  54        3.262203
  55        3.496917
  56        3.801181
  57        6.184284
  58        6.841067
  59        7.826682
  60        8.046002
  61        8.190384
  62        8.728128
  63        9.153720
  64        9.306076
  65       10.219782
  66       10.441370
  67       10.592200
  68       11.005144
  69       11.238682
  70       11.489088
  71       11.813683
  72       12.170766
  73       12.208092
  74       12.574882
  75       12.690159
  76       13.115708
  77       13.416839
  78       13.880362
  79       14.004402
  80       14.527327
 
  0.5000000E+00  0.2500000E+00  0.2000000E+00  0.2500000E-01
   1      -68.645238
   2      -68.643170
   3      -68.633449
   4      -68.633372
   5      -68.613233
   6      -68.611889
   7      -68.596028
   8      -68.593861
   9      -68.577782
  10      -68.577602
  11      -68.560726
  12      -68.560761
  13      -12.371875
  14      -11.473315
  15      -10.935686
  16      -10.653793
  17      -10.419837
  18      -10.307976
  19       -5.801028
  20       -4.836003
  21       -2.525044
  22       -2.244129
  23       -1.872103
  24       -1.641425
  25       -1.505017
  26       -1.307526
  27       -0.903718
  28       -0.531742
  29       -0.378460
  30       -0.350167
  31       -0.222332
  32       -0.180573
  33       -0.156296
  34       -0.080810
  35       -0.027423
  36        0.080310
  37        1.190731
  38        1.364012
  39        1.397707
  40        1.442750
  41        1.463307
  42        1.506549
  43        1.519159
  44        1.584882
  45        1.740696
  46        1.818060
  47        2.037740
  48        2.235174
  49        2.270179
  50        2.362057
  51        2.488030
  52        2.670497
  53        3.052955
  54        3.410995
  55        3.728266
  56        3.864875
  57        5.932918
  58        6.613555
  59        7.354483
  60        7.942724
  61        8.067128
  62        8.724831
  63        8.905229
  64        9.138430
  65        9.845516
  66       10.326817
  67       10.556407
  68       10.927169
  69       11.223515
  70       11.412860
  71       11.750308
  72       12.001580
  73       12.496721
  74       12.832202
  75       13.206618
  76       14.180647
  77       14.717740
  78       15.157845
  79       15.918780
  80       16.565568
 
 -0.2500000E+00  0.2500000E+00  0.2000000E+00  0.2500000E-01
   1      -68.645476
   2      -68.643355
   3      -68.633550
   4      -68.633426
   5      -68.613441