<?xml version="1.0" encoding="ISO-8859-1"?>
<modeling>
 <generator>
  <i name="program" type="string">vasp </i>
  <i name="version" type="string">5.3.3  </i>
  <i name="subversion" type="string">18Dez12 (build Nov 13 2015 09:58:40) complex                          parallel </i>
  <i name="platform" type="string">LinuxIFC </i>
  <i name="date" type="string">2017 10 18 </i>
  <i name="time" type="string">13:04:00 </i>
 </generator>
 <incar>
  <i type="string" name="SYSTEM"> CGS</i>
  <i type="string" name="PREC">normal</i>
  <i type="string" name="ALGO"> D</i>
  <i type="logical" name="LDIAG"> T  </i>
  <i name="EDIFF">      0.00001000</i>
  <i name="ENCUT">    400.00000000</i>
  <i name="TIME">      0.40000000</i>
  <i type="int" name="ISMEAR">     1</i>
  <i name="SIGMA">      0.10000000</i>
  <i type="logical" name="LHFCALC"> T  </i>
  <i type="string" name="GGA"> PE</i>
  <i name="HFSCREEN">      0.20000000</i>
  <i name="AEXX">      0.25000000</i>
  <i type="string" name="PRECFOCK">fast</i>
 </incar>
 <kpoints>
  <generation param="Gamma">
   <v type="int" name="divisions">       4        4        5 </v>
   <v name="usershift">      0.00000000       0.00000000       0.00000000 </v>
   <v name="genvec1">      0.25000000       0.00000000       0.00000000 </v>
   <v name="genvec2">      0.00000000       0.25000000       0.00000000 </v>
   <v name="genvec3">      0.00000000       0.00000000       0.20000000 </v>
   <v name="shift">      0.00000000       0.00000000       0.00000000 </v>
  </generation>
  <varray name="kpointlist" >
   <v>       0.00000000       0.00000000       0.00000000 </v>
   <v>       0.25000000       0.00000000       0.00000000 </v>
   <v>       0.50000000       0.00000000       0.00000000 </v>
   <v>       0.00000000       0.25000000       0.00000000 </v>
   <v>       0.25000000       0.25000000       0.00000000 </v>
   <v>       0.50000000       0.25000000      -0.00000000 </v>
   <v>      -0.25000000       0.25000000       0.00000000 </v>
   <v>       0.00000000       0.50000000       0.00000000 </v>
   <v>       0.25000000       0.50000000      -0.00000000 </v>
   <v>       0.50000000       0.50000000       0.00000000 </v>
   <v>      -0.00000000      -0.00000000       0.20000000 </v>
   <v>       0.25000000       0.00000000       0.20000000 </v>
   <v>       0.50000000       0.00000000       0.20000000 </v>
   <v>      -0.25000000      -0.00000000       0.20000000 </v>
   <v>       0.00000000       0.25000000       0.20000000 </v>
   <v>       0.25000000       0.25000000       0.20000000 </v>
   <v>       0.50000000       0.25000000       0.20000000 </v>
   <v>      -0.25000000       0.25000000       0.20000000 </v>
   <v>       0.00000000       0.50000000       0.20000000 </v>
   <v>       0.25000000       0.50000000       0.20000000 </v>
   <v>       0.50000000       0.50000000       0.20000000 </v>
   <v>      -0.25000000       0.50000000       0.20000000 </v>
   <v>      -0.00000000      -0.25000000       0.20000000 </v>
   <v>       0.25000000      -0.25000000       0.20000000 </v>
   <v>       0.50000000      -0.25000000       0.20000000 </v>
   <v>      -0.25000000      -0.25000000       0.20000000 </v>
   <v>      -0.00000000      -0.00000000       0.40000000 </v>
   <v>       0.25000000       0.00000000       0.40000000 </v>
   <v>       0.50000000       0.00000000       0.40000000 </v>
   <v>      -0.25000000       0.00000000       0.40000000 </v>
   <v>       0.00000000       0.25000000       0.40000000 </v>
   <v>       0.25000000       0.25000000       0.40000000 </v>
   <v>       0.50000000       0.25000000       0.40000000 </v>
   <v>      -0.25000000       0.25000000       0.40000000 </v>
   <v>       0.00000000       0.50000000       0.40000000 </v>
   <v>       0.25000000       0.50000000       0.40000000 </v>
   <v>       0.50000000       0.50000000       0.40000000 </v>
   <v>      -0.25000000       0.50000000       0.40000000 </v>
   <v>       0.00000000      -0.25000000       0.40000000 </v>
   <v>       0.25000000      -0.25000000       0.40000000 </v>
   <v>       0.50000000      -0.25000000       0.40000000 </v>
   <v>      -0.25000000      -0.25000000       0.40000000 </v>
  </varray>
  <varray name="weights" >
   <v>       0.01250000 </v>
   <v>       0.02500000 </v>
   <v>       0.01250000 </v>
   <v>       0.02500000 </v>
   <v>       0.02500000 </v>
   <v>       0.02500000 </v>
   <v>       0.02500000 </v>
   <v>       0.01250000 </v>
   <v>       0.02500000 </v>
   <v>       0.01250000 </v>
   <v>       0.02500000 </v>
   <v>       0.02500000 </v>
   <v>       0.02500000 </v>
   <v>       0.02500000 </v>
   <v>       0.02500000 </v>
   <v>       0.02500000 </v>
   <v>       0.02500000 </v>
   <v>       0.02500000 </v>
   <v>       0.02500000 </v>
   <v>       0.02500000 </v>
   <v>       0.02500000 </v>
   <v>       0.02500000 </v>
   <v>       0.02500000 </v>
   <v>       0.02500000 </v>
   <v>       0.02500000 </v>
   <v>       0.02500000 </v>
   <v>       0.02500000 </v>
   <v>       0.02500000 </v>
   <v>       0.02500000 </v>
   <v>       0.02500000 </v>
   <v>       0.02500000 </v>
   <v>       0.02500000 </v>
   <v>       0.02500000 </v>
   <v>       0.02500000 </v>
   <v>       0.02500000 </v>
   <v>       0.02500000 </v>
   <v>       0.02500000 </v>
   <v>       0.02500000 </v>
   <v>       0.02500000 </v>
   <v>       0.02500000 </v>
   <v>       0.02500000 </v>
   <v>       0.02500000 </v>
  </varray>
 </kpoints>
 <parameters>
  <separator name="general" >
   <i type="string" name="SYSTEM">CGS</i>
   <i type="logical" name="LCOMPAT"> F  </i>
  </separator>
  <separator name="electronic" >
   <i type="string" name="PREC">normal</i>
   <i name="ENMAX">    400.00000000</i>
   <i name="ENAUG">    758.23300000</i>
   <i name="EDIFF">      0.00001000</i>
   <i type="int" name="IALGO">    53</i>
   <i type="int" name="IWAVPR">    10</i>
   <i type="int" name="NBANDS">    80</i>
   <i name="NELECT">    112.00000000</i>
   <i type="int" name="TURBO">     0</i>
   <i type="int" name="IRESTART">     0</i>
   <i type="int" name="NREBOOT">     0</i>
   <i type="int" name="NMIN">     0</i>
   <i name="EREF">      0.00000000</i>
   <separator name="electronic smearing" >
    <i type="int" name="ISMEAR">     1</i>
    <i name="SIGMA">      0.10000000</i>
    <i name="KSPACING">      0.50000000</i>
    <i type="logical" name="KGAMMA"> T  </i>
   </separator>
   <separator name="electronic projectors" >
    <i type="logical" name="LREAL"> F  </i>
    <v name="ROPT">      0.00000000      0.00000000      0.00000000</v>
    <i type="int" name="LMAXPAW">  -100</i>
    <i type="int" name="LMAXMIX">     2</i>
    <i type="logical" name="NLSPLINE"> F  </i>
   </separator>
   <separator name="electronic startup" >
    <i type="int" name="ISTART">     1</i>
    <i type="int" name="ICHARG">     0</i>
    <i type="int" name="INIWAV">     1</i>
   </separator>
   <separator name="electronic spin" >
    <i type="int" name="ISPIN">     1</i>
    <i type="logical" name="LNONCOLLINEAR"> F  </i>
    <v name="MAGMOM">      1.00000000      1.00000000      1.00000000      1.00000000      1.00000000      1.00000000      1.00000000      1.00000000      1.00000000      1.00000000      1.00000000      1.00000000</v>
    <i name="NUPDOWN">     -1.00000000</i>
    <i type="logical" name="LSORBIT"> F  </i>
    <v name="SAXIS">      0.00000000      0.00000000      1.00000000</v>
    <i type="logical" name="LSPIRAL"> F  </i>
    <v name="QSPIRAL">      0.00000000      0.00000000      0.00000000</v>
    <i type="logical" name="LZEROZ"> F  </i>
   </separator>
   <separator name="electronic exchange-correlation" >
    <i type="logical" name="LASPH"> F  </i>
    <i type="logical" name="LMETAGGA"> F  </i>
   </separator>
   <separator name="electronic convergence" >
    <i type="int" name="NELM">    60</i>
    <i type="int" name="NELMDL">     0</i>
    <i type="int" name="NELMIN">     2</i>
    <i name="ENINI">    400.00000000</i>
    <separator name="electronic convergence detail" >
     <i type="logical" name="LDIAG"> T  </i>
     <i type="logical" name="LSUBROT"> T  </i>
     <i name="WEIMIN">      0.00000000</i>
     <i name="EBREAK">      0.00000003</i>
     <i name="DEPER">      0.30000000</i>
     <i type="int" name="NRMM">     4</i>
     <i name="TIME">      0.40000000</i>
    </separator>
   </separator>
   <separator name="electronic mixer" >
    <i name="AMIX">      0.40000000</i>
    <i name="BMIX">      1.00000000</i>
    <i name="AMIN">      0.10000000</i>
    <i name="AMIX_MAG">      1.60000000</i>
    <i name="BMIX_MAG">      1.00000000</i>
    <separator name="electronic mixer details" >
     <i type="int" name="IMIX">     4</i>
     <i type="int" name="MAXMIX">   -45</i>
     <i name="WC">    100.00000000</i>
     <i type="int" name="INIMIX">     1</i>
     <i type="int" name="MIXPRE">     1</i>
     <i type="int" name="MREMOVE">     5</i>
    </separator>
   </separator>
   <separator name="electronic dipolcorrection" >
    <i type="logical" name="LDIPOL"> F  </i>
    <i type="logical" name="LMONO"> F  </i>
    <i type="int" name="IDIPOL">     0</i>
    <i name="EPSILON">      1.00000000</i>
    <v name="DIPOL">   -100.00000000   -100.00000000   -100.00000000</v>
    <i name="EFIELD">      0.00000000</i>
   </separator>
  </separator>
  <separator name="grids" >
   <i type="int" name="NGX">    32</i>
   <i type="int" name="NGY">    32</i>
   <i type="int" name="NGZ">    32</i>
   <i type="int" name="NGXF">    64</i>
   <i type="int" name="NGYF">    64</i>
   <i type="int" name="NGZF">    64</i>
   <i type="logical" name="ADDGRID"> F  </i>
  </separator>
  <separator name="ionic" >
   <i type="int" name="NSW">     0</i>
   <i type="int" name="IBRION">    -1</i>
   <i type="int" name="ISIF">     0</i>
   <i name="PSTRESS">      0.00000000</i>
   <i name="EDIFFG">      0.00010000</i>
   <i type="int" name="NFREE">     0</i>
   <i name="POTIM">      0.50000000</i>
   <i name="SMASS">     -3.00000000</i>
   <i name="SCALEE">      1.00000000</i>
  </separator>
  <separator name="ionic md" >
   <i name="TEBEG">      0.00010000</i>
   <i name="TEEND">      0.00010000</i>
   <i type="int" name="NBLOCK">     1</i>
   <i type="int" name="KBLOCK">     1</i>
   <i type="int" name="NPACO">   256</i>
   <i name="APACO">     16.00000000</i>
  </separator>
  <separator name="symmetry" >
   <i type="int" name="ISYM">     3</i>
   <i name="SYMPREC">      0.00001000</i>
  </separator>
  <separator name="dos" >
   <i type="logical" name="LORBIT"> F  </i>
   <v name="RWIGS">     -1.00000000     -1.00000000     -1.00000000</v>
   <i type="int" name="NEDOS">   301</i>
   <i name="EMIN">     10.00000000</i>
   <i name="EMAX">    -10.00000000</i>
   <i name="EFERMI">      0.00000000</i>
  </separator>
  <separator name="writing" >
   <i type="int" name="NWRITE">     2</i>
   <i type="logical" name="LWAVE"> T  </i>
   <i type="logical" name="LCHARG"> T  </i>
   <i type="logical" name="LPARD"> F  </i>
   <i type="logical" name="LVTOT"> F  </i>
   <i type="logical" name="LVHAR"> F  </i>
   <i type="logical" name="LELF"> F  </i>
   <i type="logical" name="LOPTICS"> F  </i>
   <v name="STM">      0.00000000      0.00000000      0.00000000      0.00000000      0.00000000      0.00000000      0.00000000</v>
  </separator>
  <separator name="performance" >
   <i type="int" name="NPAR">    16</i>
   <i type="int" name="NSIM">     4</i>
   <i type="int" name="NBLK">    -1</i>
   <i type="logical" name="LPLANE"> T  </i>
   <i type="logical" name="LSCALAPACK"> T  </i>
   <i type="logical" name="LSCAAWARE"> F  </i>
   <i type="logical" name="LSCALU"> F  </i>
   <i type="logical" name="LASYNC"> F  </i>
   <i type="logical" name="LORBITALREAL"> F  </i>
  </separator>
  <separator name="miscellaneous" >
   <i type="int" name="IDIOT">     3</i>
   <i type="logical" name="LMUSIC"> F  </i>
   <v name="POMASS">     63.54600000     72.61000000     32.06600000</v>
   <v name="DARWINR">      0.00000000      0.00000000      0.00000000</v>
   <v name="DARWINV">      1.00000000      1.00000000      1.00000000</v>
   <i type="logical" name="LCORR"> T  </i>
  </separator>
  <i type="logical" name="GGA_COMPAT"> T  </i>
  <i type="logical" name="LBERRY"> F  </i>
  <i type="int" name="ICORELEVEL">     0</i>
  <i type="logical" name="LDAU"> F  </i>
  <i type="int" name="I_CONSTRAINED_M">     0</i>
  <separator name="electronic exchange-correlation" >
   <i type="string" name="GGA">PE</i>
   <i type="int" name="VOSKOWN">     0</i>
   <i type="logical" name="LHFCALC"> T  </i>
   <i type="string" name="PRECFOCK">fast</i>
   <i type="logical" name="LSYMGRAD"> F  </i>
   <i type="logical" name="LHFONE"> F  </i>
   <i type="logical" name="LRHFCALC"> F  </i>
   <i type="logical" name="LTHOMAS"> F  </i>
   <i type="logical" name="LMODELHF"> F  </i>
   <i name="ENCUT4O">     -1.00000000</i>
   <i type="int" name="EXXOEP">     0</i>
   <i type="int" name="FOURORBIT">     0</i>
   <i name="AEXX">      0.25000000</i>
   <i name="HFALPHA">     -1.00000000</i>
   <i name="MCALPHA">      0.00000000</i>
   <i name="ALDAX">      0.75000000</i>
   <i name="AGGAX">      0.75000000</i>
   <i name="ALDAC">      1.00000000</i>
   <i name="AGGAC">      1.00000000</i>
   <i type="int" name="NKREDX">     1</i>
   <i type="int" name="NKREDY">     1</i>
   <i type="int" name="NKREDZ">     1</i>
   <i type="logical" name="SHIFTRED"> F  </i>
   <i type="logical" name="ODDONLY"> F  </i>
   <i type="logical" name="EVENONLY"> F  </i>
   <i type="int" name="LMAXFOCK">     4</i>
   <i type="int" name="NMAXFOCKAE">     1</i>
   <i type="logical" name="LFOCKAEDFT"> F  </i>
   <i name="HFSCREEN">      0.20000000</i>
   <i name="HFSCREENC">      0.20000000</i>
   <i type="int" name="NBANDSGWLOW">     1</i>
  </separator>
  <separator name="vdW DFT" >
   <i type="logical" name="LUSE_VDW"> F  </i>
   <i name="Zab_VDW">     -0.84910000</i>
   <i name="PARAM1">      0.12340000</i>
   <i name="PARAM2">      1.00000000</i>
   <i name="PARAM3">      0.00000000</i>
  </separator>
  <separator name="model GW" >
   <i type="int" name="MODEL_GW">     0</i>
   <i name="MODEL_EPS0">     11.09505304</i>
   <i name="MODEL_ALPHA">      1.00000000</i>
  </separator>
  <separator name="linear response parameters" >
   <i type="logical" name="LEPSILON"> F  </i>
   <i type="logical" name="LRPA"> F  </i>
   <i type="logical" name="LNABLA"> F  </i>
   <i type="logical" name="LVEL"> F  </i>
   <i type="int" name="KINTER">     0</i>
   <i name="CSHIFT">      0.10000000</i>
   <i name="OMEGAMAX">     -1.00000000</i>
   <i name="DEG_THRESHOLD">      0.00200000</i>
  </separator>
  <separator name="orbital magnetization" >
   <i type="logical" name="NUCIND"> F  </i>
   <v name="MAGPOS">      0.00000000      0.00000000      0.00000000</v>
   <i type="logical" name="LNICSALL"> T  </i>
   <i type="logical" name="ORBITALMAG"> F  </i>
   <i type="logical" name="LMAGBLOCH"> F  </i>
   <i type="logical" name="LCHIMAG"> F  </i>
   <i type="logical" name="LGAUGE"> T  </i>
   <i type="int" name="MAGATOM">     0</i>
   <v name="MAGDIPOL">      0.00000000      0.00000000      0.00000000</v>
   <v name="AVECCONST">      0.00000000      0.00000000      0.00000000</v>
  </separator>
  <separator name="response functions" >
   <i type="logical" name="LADDER"> F  </i>
   <i type="logical" name="LFXC"> F  </i>
   <i type="logical" name="LHARTREE"> T  </i>
   <i type="int" name="IBSE">     0</i>
   <i type="logical" name="LTCTE"> F  </i>
   <i type="logical" name="LTETE"> F  </i>
   <i type="logical" name="LTRIPLET"> F  </i>
   <i type="logical" name="LFXCEPS"> F  </i>
   <i type="logical" name="L2ORDER"> F  </i>
   <i type="logical" name="LUSEW"> F  </i>
   <i name="ENCUTGW">     -2.00000000</i>
   <i name="ENCUTGWSOFT">     -2.00000000</i>
   <i name="ENCUTLF">     -1.00000000</i>
   <i type="int" name="LMAXMP2">    -1</i>
   <i name="SCISSOR">      0.00000000</i>
   <i type="int" name="NOMEGA">     0</i>
   <i type="int" name="NOMEGAR">     0</i>
   <i type="int" name="NBANDSGW">    -1</i>
   <i type="int" name="NBANDSO">    -1</i>
   <i type="int" name="NBANDSV">    -1</i>
   <i type="int" name="NELM">     1</i>
   <i type="int" name="DIM">     3</i>
   <i type="int" name="ANTIRES">     0</i>
   <i name="OMEGAMAX">    -30.00000000</i>
   <i name="OMEGATL">   -200.00000000</i>
   <i type="int" name="OMEGAGRID">     0</i>
   <i name="CSHIFT">     -0.10000000</i>
   <i type="logical" name="SELFENERGY"> F  </i>
   <i type="logical" name="LSPECTRAL"> F  </i>
   <i type="logical" name="ODDONLYGW"> F  </i>
   <i type="logical" name="EVENONLYGW"> F  </i>
   <i type="int" name="NKREDLFX">     1</i>
   <i type="int" name="NKREDLFY">     1</i>
   <i type="int" name="NKREDLFZ">     1</i>
   <i type="int" name="MAXMEM">  1800</i>
   <i type="int" name="TELESCOPE">     0</i>
  </separator>
 </parameters>
 <atominfo>
  <atoms>      12 </atoms>
  <types>       3 </types>
  <array name="atoms" >
   <dimension dim="1">ion</dimension>
   <field type="string">element</field>
   <field type="int">atomtype</field>
   <set>
    <rc><c>Cu</c><c>   1</c></rc>
    <rc><c>Cu</c><c>   1</c></rc>
    <rc><c>Cu</c><c>   1</c></rc>
    <rc><c>Cu</c><c>   1</c></rc>
    <rc><c>Ge</c><c>   2</c></rc>
    <rc><c>Ge</c><c>   2</c></rc>
    <rc><c>S </c><c>   3</c></rc>
    <rc><c>S </c><c>   3</c></rc>
    <rc><c>S </c><c>   3</c></rc>
    <rc><c>S </c><c>   3</c></rc>
    <rc><c>S </c><c>   3</c></rc>
    <rc><c>S </c><c>   3</c></rc>
   </set>
  </array>
  <array name="atomtypes" >
   <dimension dim="1">type</dimension>
   <field type="int">atomspertype</field>
   <field type="string">element</field>
   <field>mass</field>
   <field>valence</field>
   <field type="string">pseudopotential</field>
   <set>
    <rc><c>   4</c><c>Cu</c><c>     63.54600000</c><c>     17.00000000</c><c>  PAW_PBE Cu_pv 06Sep2000               </c></rc>
    <rc><c>   2</c><c>Ge</c><c>     72.61000000</c><c>      4.00000000</c><c>  PAW_PBE Ge 05Jan2001                  </c></rc>
    <rc><c>   6</c><c>S </c><c>     32.06600000</c><c>      6.00000000</c><c>  PAW_PBE S 17Jan2003                   </c></rc>
   </set>
  </array>
 </atominfo>
 <structure name="initialpos" >
  <crystal>
   <varray name="basis" >
    <v>       3.22479600      -5.64383000       0.03157200 </v>
    <v>       3.22479600       5.64383000       0.03157200 </v>
    <v>      -2.10194600       0.00000000       6.07553700 </v>
   </varray>
   <i name="volume">    221.90106089 </i>
   <varray name="rec_basis" >
    <v>       0.15452516      -0.08859232       0.05346088 </v>
    <v>       0.15452516       0.08859232       0.05346088 </v>
    <v>      -0.00160600       0.00000000       0.16403888 </v>
   </varray>
  </crystal>
  <varray name="positions" >
   <v>       0.61844300       0.11963260       0.11953300 </v>
   <v>       0.12117100       0.61844300       0.61953300 </v>
   <v>       0.96295700       0.79032200       0.11881300 </v>
   <v>       0.79032200       0.96295700       0.61881300 </v>
   <v>       0.43973200       0.26728100       0.59904700 </v>
   <v>       0.26728100       0.43973200       0.09904700 </v>
   <v>       0.07949800       0.91167500       0.49736300 </v>
   <v>       0.57140300       0.41236400       0.98018400 </v>
   <v>       0.73711100       0.25006200       0.49504900 </v>
   <v>       0.41236400       0.57140300       0.48018400 </v>
   <v>       0.91167500       0.07949800       0.99736300 </v>
   <v>       0.25006200       0.73711100       0.99504900 </v>
  </varray>
 </structure>
 <calculation>
  <scstep>
   <time name="total">  243.67  244.64</time>
   <energy>
    <i name="alphaZ">    339.31929130 </i>
    <i name="ewald">  -9063.74120398 </i>
    <i name="hartreedc">  -8067.52153734 </i>
    <i name="XCdc">    369.89257134 </i>
    <i name="pawpsdc">  16958.56484478 </i>
    <i name="pawaedc"> -17451.30712995 </i>
    <i name="eentropy">     -0.00145492 </i>
    <i name="bandstr">  -1657.90470803 </i>
    <i name="atom">  18320.98302006 </i>
    <i name="e_fr_energy">     75.72409547 </i>
    <i name="e_wo_entrp">     75.72555038 </i>
    <i name="e_0_energy">     75.72458044 </i>
   </energy>
  </scstep>
  <scstep>
   <time name="total">  248.95  249.82</time>
   <energy>
    <i name="e_fr_energy">     -8.24167842 </i>
    <i name="e_wo_entrp">     -8.23990710 </i>
    <i name="e_0_energy">     -8.24108798 </i>
   </energy>
  </scstep>
  <scstep>
   <time name="total">  245.51  245.44</time>
   <energy>
    <i name="e_fr_energy">    -14.81983660 </i>
    <i name="e_wo_entrp">    -14.82000251 </i>
    <i name="e_0_energy">    -14.81989190 </i>
   </energy>
  </scstep>
  <scstep>
   <time name="total">  253.12  252.92</time>
   <energy>
    <i name="e_fr_energy">    -22.24796466 </i>
    <i name="e_wo_entrp">    -22.24833947 </i>
    <i name="e_0_energy">    -22.24808960 </i>
   </energy>
  </scstep>
  <scstep>
   <time name="total">  248.45  248.28</time>
   <energy>
    <i name="e_fr_energy">    -60.72777124 </i>
    <i name="e_wo_entrp">    -60.72837285 </i>
    <i name="e_0_energy">    -60.72797178 </i>
   </energy>
  </scstep>
  <scstep>
   <time name="total">  250.13  249.95</time>
   <energy>
    <i name="e_fr_energy">    -65.86840282 </i>
    <i name="e_wo_entrp">    -65.86905460 </i>
    <i name="e_0_energy">    -65.86862008 </i>
   </energy>
  </scstep>
  <scstep>
   <time name="total">  250.81  250.65</time>
   <energy>
    <i name="e_fr_energy">    -67.43133698 </i>
    <i name="e_wo_entrp">    -67.43177775 </i>
    <i name="e_0_energy">    -67.43148390 </i>
   </energy>
  </scstep>
  <scstep>
   <time name="total">  251.31  251.23</time>
   <energy>
    <i name="e_fr_energy">    -69.07488021 </i>
    <i name="e_wo_entrp">    -69.07561835 </i>
    <i name="e_0_energy">    -69.07512626 </i>
   </energy>
  </scstep>
  <scstep>
   <time name="total">  250.56  250.42</time>
   <energy>
    <i name="e_fr_energy">    -69.39253354 </i>
    <i name="e_wo_entrp">    -69.39340177 </i>
    <i name="e_0_energy">    -69.39282295 </i>
   </energy>
  </scstep>
  <scstep>
   <time name="total">  250.69  250.51</time>
   <energy>
    <i name="e_fr_energy">    -69.49749480 </i>
    <i name="e_wo_entrp">    -69.49823013 </i>
    <i name="e_0_energy">    -69.49773991 </i>
   </energy>
  </scstep>
  <scstep>
   <time name="total">  251.31  251.14</time>
   <energy>
    <i name="e_fr_energy">    -69.56839220 </i>
    <i name="e_wo_entrp">    -69.56901386 </i>
    <i name="e_0_energy">    -69.56859942 </i>
   </energy>
  </scstep>
  <scstep>
   <time name="total">  248.42  248.22</time>
   <energy>
    <i name="e_fr_energy">    -69.58078048 </i>
    <i name="e_wo_entrp">    -69.58134849 </i>
    <i name="e_0_energy">    -69.58096982 </i>
   </energy>
  </scstep>
  <scstep>
   <time name="total">  248.95  248.92</time>
   <energy>
    <i name="e_fr_energy">    -69.59061129 </i>
    <i name="e_wo_entrp">    -69.59116750 </i>
    <i name="e_0_energy">    -69.59079669 </i>
   </energy>
  </scstep>
  <scstep>
   <time name="total">  248.79  248.61</time>
   <energy>
    <i name="e_fr_energy">    -69.59312026 </i>
    <i name="e_wo_entrp">    -69.59369635 </i>
    <i name="e_0_energy">    -69.59331229 </i>
   </energy>
  </scstep>
  <scstep>
   <time name="total">  250.88  250.73</time>
   <energy>
    <i name="e_fr_energy">    -69.59465930 </i>
    <i name="e_wo_entrp">    -69.59524862 </i>
    <i name="e_0_energy">    -69.59485574 </i>
   </energy>
  </scstep>
  <scstep>
   <time name="total">  244.76  244.57</time>
   <energy>
    <i name="e_fr_energy">    -69.59524710 </i>
    <i name="e_wo_entrp">    -69.59583653 </i>
    <i name="e_0_energy">    -69.59544358 </i>
   </energy>
  </scstep>
  <scstep>
   <time name="total">  255.39  255.20</time>
   <energy>
    <i name="e_fr_energy">    -69.59542577 </i>
    <i name="e_wo_entrp">    -69.59601197 </i>
    <i name="e_0_energy">    -69.59562117 </i>
   </energy>
  </scstep>
  <scstep>
   <time name="total">  256.07  256.00</time>
   <energy>
    <i name="e_fr_energy">    -69.59554632 </i>
    <i name="e_wo_entrp">    -69.59612957 </i>
    <i name="e_0_energy">    -69.59574073 </i>
   </energy>
  </scstep>
  <scstep>
   <time name="total">  255.95  255.93</time>
   <energy>
    <i name="e_fr_energy">    -69.59557665 </i>
    <i name="e_wo_entrp">    -69.59615852 </i>
    <i name="e_0_energy">    -69.59577061 </i>
   </energy>
  </scstep>
  <scstep>
   <time name="total">  254.65  254.47</time>
   <energy>
    <i name="e_fr_energy">    -69.59559735 </i>
    <i name="e_wo_entrp">    -69.59617967 </i>
    <i name="e_0_energy">    -69.59579146 </i>
   </energy>
  </scstep>
  <scstep>
   <time name="total">  253.97  253.78</time>
   <energy>
    <i name="alphaZ">    339.31929130 </i>
    <i name="ewald">  -9063.74120398 </i>
    <i name="hartreedc">  -8150.38429077 </i>
    <i name="XCdc">    372.06923933 </i>
    <i name="pawpsdc">  15922.21645732 </i>
    <i name="pawaedc"> -16407.41023451 </i>
    <i name="eentropy">      0.00058298 </i>
    <i name="bandstr">  -1742.71519788 </i>
    <i name="atom">  18320.98302006 </i>
    <i name="e_fr_energy">    -69.59560517 </i>
    <i name="e_wo_entrp">    -69.59618815 </i>
    <i name="e_0_energy">    -69.59579950 </i>
   </energy>
  </scstep>
  <structure>
   <crystal>
    <varray name="basis" >
     <v>       3.22479600      -5.64383000       0.03157200 </v>
     <v>       3.22479600       5.64383000       0.03157200 </v>
     <v>      -2.10194600       0.00000000       6.07553700 </v>
    </varray>
    <i name="volume">    221.90106089 </i>
    <varray name="rec_basis" >
     <v>       0.15452516      -0.08859232       0.05346088 </v>
     <v>       0.15452516       0.08859232       0.05346088 </v>
     <v>      -0.00160600       0.00000000       0.16403888 </v>
    </varray>
   </crystal>
   <varray name="positions" >
    <v>       0.61844300       0.11963260       0.11953300 </v>
    <v>       0.12117100       0.61844300       0.61953300 </v>
    <v>       0.96295700       0.79032200       0.11881300 </v>
    <v>       0.79032200       0.96295700       0.61881300 </v>
    <v>       0.43973200       0.26728100       0.59904700 </v>
    <v>       0.26728100       0.43973200       0.09904700 </v>
    <v>       0.07949800       0.91167500       0.49736300 </v>
    <v>       0.57140300       0.41236400       0.98018400 </v>
    <v>       0.73711100       0.25006200       0.49504900 </v>
    <v>       0.41236400       0.57140300       0.48018400 </v>
    <v>       0.91167500       0.07949800       0.99736300 </v>
    <v>       0.25006200       0.73711100       0.99504900 </v>
   </varray>
  </structure>
  <varray name="forces" >
   <v>       0.01605950       0.03394444       0.00362030 </v>
   <v>      -0.00349203       0.00075568      -0.00059323 </v>
   <v>       0.00026595      -0.00170119       0.00113672 </v>
   <v>       0.00239945      -0.00109283       0.00091155 </v>
   <v>       0.00028780       0.00590996       0.00576620 </v>
   <v>       0.00246164      -0.01290003       0.00265325 </v>
   <v>       0.00141881       0.00061733      -0.00202597 </v>
   <v>      -0.00939041      -0.01836794       0.00311978 </v>
   <v>      -0.00045365       0.00264248      -0.00069836 </v>
   <v>      -0.00097329       0.00681443       0.00097627 </v>
   <v>       0.00698993      -0.01563785      -0.00870282 </v>
   <v>      -0.01557370      -0.00098449      -0.00616368 </v>
  </varray>
  <energy>
   <i name="e_fr_energy">    -69.59560517 </i>
   <i name="e_wo_entrp">    -69.59579950 </i>
   <i name="e_0_energy">      0.00058298 </i>
  </energy>
  <time name="totalsc"> 5766.15 5767.77</time>
  <eigenvalues>
   <array>
    <dimension dim="1">band</dimension>
    <dimension dim="2">kpoint</dimension>
    <dimension dim="3">spin</dimension>
    <field>eigene</field>
    <field>occ</field>
    <set>
     <set comment="spin 1">
      <set comment="kpoint 1">
       <r>  -68.6456    1.0000 </r>
       <r>  -68.6434    1.0000 </r>
       <r>  -68.6335    1.0000 </r>
       <r>  -68.6334    1.0000 </r>
       <r>  -68.6135    1.0000 </r>
       <r>  -68.6119    1.0000 </r>
       <r>  -68.5961    1.0000 </r>
       <r>  -68.5939    1.0000 </r>
       <r>  -68.5779    1.0000 </r>
       <r>  -68.5777    1.0000 </r>
       <r>  -68.5609    1.0000 </r>
       <r>  -68.5609    1.0000 </r>
       <r>  -12.7197    1.0000 </r>
       <r>  -11.1306    1.0000 </r>
       <r>  -10.9138    1.0000 </r>
       <r>  -10.6031    1.0000 </r>
       <r>  -10.2539    1.0000 </r>
       <r>  -10.2370    1.0000 </r>
       <r>   -5.9852    1.0000 </r>
       <r>   -4.9829    1.0000 </r>
       <r>   -2.7593    1.0000 </r>
       <r>   -2.2071    1.0000 </r>
       <r>   -2.0696    1.0000 </r>
       <r>   -1.9245    1.0000 </r>
       <r>   -1.5780    1.0000 </r>
       <r>   -0.9840    1.0000 </r>
       <r>   -0.9489    1.0000 </r>
       <r>   -0.6841    1.0000 </r>
       <r>   -0.4009    1.0000 </r>
       <r>   -0.2763    1.0000 </r>
       <r>   -0.2618    1.0000 </r>
       <r>   -0.2330    1.0000 </r>
       <r>   -0.1885    1.0000 </r>
       <r>   -0.1576    1.0000 </r>
       <r>   -0.0418    1.0000 </r>
       <r>    0.0310    1.0000 </r>
       <r>    1.3504    1.0000 </r>
       <r>    1.3621    1.0000 </r>
       <r>    1.4129    1.0000 </r>
       <r>    1.4571    1.0000 </r>
       <r>    1.4711    1.0000 </r>
       <r>    1.4741    1.0000 </r>
       <r>    1.5206    1.0000 </r>
       <r>    1.5326    1.0000 </r>
       <r>    1.5754    1.0000 </r>
       <r>    1.7119    1.0000 </r>
       <r>    1.8928    1.0000 </r>
       <r>    1.9285    1.0000 </r>
       <r>    2.0581    1.0000 </r>
       <r>    2.6513    1.0000 </r>
       <r>    2.7301    1.0000 </r>
       <r>    3.0930    1.0000 </r>
       <r>    3.2165    1.0000 </r>
       <r>    4.0059    1.0050 </r>
       <r>    4.0387    1.0140 </r>
       <r>    4.1722    0.8563 </r>
       <r>    5.5392   -0.0000 </r>
       <r>    6.3582   -0.0000 </r>
       <r>    7.6303    0.0000 </r>
       <r>    7.9878    0.0000 </r>
       <r>    8.6181    0.0000 </r>
       <r>    8.7910    0.0000 </r>
       <r>    9.5735    0.0000 </r>
       <r>    9.7373    0.0000 </r>
       <r>    9.8149    0.0000 </r>
       <r>   10.4192    0.0000 </r>
       <r>   10.5802    0.0000 </r>
       <r>   10.6948    0.0000 </r>
       <r>   10.7155    0.0000 </r>
       <r>   11.2827    0.0000 </r>
       <r>   11.7103    0.0000 </r>
       <r>   12.3919    0.0000 </r>
       <r>   12.4535    0.0000 </r>
       <r>   12.7301    0.0000 </r>
       <r>   13.3208    0.0000 </r>
       <r>   13.3843    0.0000 </r>
       <r>   13.8316    0.0000 </r>
       <r>   13.8838    0.0000 </r>
       <r>   14.1483    0.0000 </r>
       <r>   14.1820    0.0000 </r>
      </set>
      <set comment="kpoint 2">
       <r>  -68.6455    1.0000 </r>
       <r>  -68.6434    1.0000 </r>
       <r>  -68.6335    1.0000 </r>
       <r>  -68.6334    1.0000 </r>
       <r>  -68.6134    1.0000 </r>
       <r>  -68.6118    1.0000 </r>
       <r>  -68.5961    1.0000 </r>
       <r>  -68.5939    1.0000 </r>
       <r>  -68.5778    1.0000 </r>
       <r>  -68.5777    1.0000 </r>
       <r>  -68.5609    1.0000 </r>
       <r>  -68.5609    1.0000 </r>
       <r>  -12.5945    1.0000 </r>
       <r>  -11.1296    1.0000 </r>
       <r>  -10.9776    1.0000 </r>
       <r>  -10.6770    1.0000 </r>
       <r>  -10.3692    1.0000 </r>
       <r>  -10.2797    1.0000 </r>
       <r>   -5.9335    1.0000 </r>
       <r>   -4.7724    1.0000 </r>
       <r>   -2.6441    1.0000 </r>
       <r>   -2.2516    1.0000 </r>
       <r>   -2.0867    1.0000 </r>
       <r>   -1.6885    1.0000 </r>
       <r>   -1.3466    1.0000 </r>
       <r>   -0.9984    1.0000 </r>
       <r>   -0.7659    1.0000 </r>
       <r>   -0.6241    1.0000 </r>
       <r>   -0.5552    1.0000 </r>
       <r>   -0.4394    1.0000 </r>
       <r>   -0.3610    1.0000 </r>
       <r>   -0.2397    1.0000 </r>
       <r>   -0.1948    1.0000 </r>
       <r>   -0.1678    1.0000 </r>
       <r>   -0.0475    1.0000 </r>
       <r>    0.0405    1.0000 </r>
       <r>    1.2790    1.0000 </r>
       <r>    1.3356    1.0000 </r>
       <r>    1.3540    1.0000 </r>
       <r>    1.3923    1.0000 </r>
       <r>    1.4274    1.0000 </r>
       <r>    1.4723    1.0000 </r>
       <r>    1.4980    1.0000 </r>
       <r>    1.5305    1.0000 </r>
       <r>    1.7257    1.0000 </r>
       <r>    1.8602    1.0000 </r>
       <r>    2.0573    1.0000 </r>
       <r>    2.0940    1.0000 </r>
       <r>    2.2310    1.0000 </r>
       <r>    2.4133    1.0000 </r>
       <r>    2.5562    1.0000 </r>
       <r>    2.8263    1.0000 </r>
       <r>    2.9481    1.0000 </r>
       <r>    3.2433    1.0000 </r>
       <r>    3.6619    1.0000 </r>
       <r>    4.0396    1.0143 </r>
       <r>    6.1719   -0.0000 </r>
       <r>    6.9054   -0.0000 </r>
       <r>    8.1389    0.0000 </r>
       <r>    8.2673    0.0000 </r>
       <r>    8.5947    0.0000 </r>
       <r>    9.0135    0.0000 </r>
       <r>    9.2433    0.0000 </r>
       <r>    9.5319    0.0000 </r>
       <r>    9.8639    0.0000 </r>
       <r>   10.3765    0.0000 </r>
       <r>   10.6347    0.0000 </r>
       <r>   10.8130    0.0000 </r>
       <r>   10.9381    0.0000 </r>
       <r>   11.1908    0.0000 </r>
       <r>   11.6584    0.0000 </r>
       <r>   11.7717    0.0000 </r>
       <r>   12.1185    0.0000 </r>
       <r>   12.4402    0.0000 </r>
       <r>   12.6163    0.0000 </r>
       <r>   13.0094    0.0000 </r>
       <r>   13.5062    0.0000 </r>
       <r>   13.8732    0.0000 </r>
       <r>   14.2147    0.0000 </r>
       <r>   14.7116    0.0000 </r>
      </set>
      <set comment="kpoint 3">
       <r>  -68.6454    1.0000 </r>
       <r>  -68.6432    1.0000 </r>
       <r>  -68.6335    1.0000 </r>
       <r>  -68.6332    1.0000 </r>
       <r>  -68.6134    1.0000 </r>
       <r>  -68.6118    1.0000 </r>
       <r>  -68.5960    1.0000 </r>
       <r>  -68.5939    1.0000 </r>
       <r>  -68.5778    1.0000 </r>
       <r>  -68.5776    1.0000 </r>
       <r>  -68.5607    1.0000 </r>
       <r>  -68.5608    1.0000 </r>
       <r>  -12.4348    1.0000 </r>
       <r>  -11.2506    1.0000 </r>
       <r>  -10.9527    1.0000 </r>
       <r>  -10.7645    1.0000 </r>
       <r>  -10.4313    1.0000 </r>
       <r>  -10.3599    1.0000 </r>
       <r>   -5.8713    1.0000 </r>
       <r>   -4.5472    1.0000 </r>
       <r>   -2.4915    1.0000 </r>
       <r>   -2.2442    1.0000 </r>
       <r>   -1.9465    1.0000 </r>
       <r>   -1.4644    1.0000 </r>
       <r>   -1.2249    1.0000 </r>
       <r>   -1.0995    1.0000 </r>
       <r>   -0.9033    1.0000 </r>
       <r>   -0.8659    1.0000 </r>
       <r>   -0.5977    1.0000 </r>
       <r>   -0.5411    1.0000 </r>
       <r>   -0.2709    1.0000 </r>
       <r>   -0.2056    1.0000 </r>
       <r>   -0.2026    1.0000 </r>
       <r>   -0.1435    1.0000 </r>
       <r>   -0.0323    1.0000 </r>
       <r>    0.0827    1.0000 </r>
       <r>    1.2546    1.0000 </r>
       <r>    1.3267    1.0000 </r>
       <r>    1.3484    1.0000 </r>
       <r>    1.3979    1.0000 </r>
       <r>    1.4716    1.0000 </r>
       <r>    1.4789    1.0000 </r>
       <r>    1.4988    1.0000 </r>
       <r>    1.5526    1.0000 </r>
       <r>    1.7523    1.0000 </r>
       <r>    1.7910    1.0000 </r>
       <r>    1.9678    1.0000 </r>
       <r>    2.1491    1.0000 </r>
       <r>    2.3222    1.0000 </r>
       <r>    2.3621    1.0000 </r>
       <r>    2.5523    1.0000 </r>
       <r>    2.6702    1.0000 </r>
       <r>    2.9406    1.0000 </r>
       <r>    3.0785    1.0000 </r>
       <r>    3.2496    1.0000 </r>
       <r>    3.8615    1.0000 </r>
       <r>    6.3865   -0.0000 </r>
       <r>    7.0951    0.0000 </r>
       <r>    7.9802    0.0000 </r>
       <r>    8.2045    0.0000 </r>
       <r>    8.5192    0.0000 </r>
       <r>    8.8205    0.0000 </r>
       <r>    9.3295    0.0000 </r>
       <r>    9.8884    0.0000 </r>
       <r>   10.0117    0.0000 </r>
       <r>   10.5167    0.0000 </r>
       <r>   10.6942    0.0000 </r>
       <r>   10.7952    0.0000 </r>
       <r>   11.1423    0.0000 </r>
       <r>   11.4082    0.0000 </r>
       <r>   11.6097    0.0000 </r>
       <r>   11.7754    0.0000 </r>
       <r>   11.9432    0.0000 </r>
       <r>   12.5044    0.0000 </r>
       <r>   12.7836    0.0000 </r>
       <r>   12.9983    0.0000 </r>
       <r>   13.3923    0.0000 </r>
       <r>   13.5404    0.0000 </r>
       <r>   13.9396    0.0000 </r>
       <r>   14.2707    0.0000 </r>
      </set>
      <set comment="kpoint 4">
       <r>  -68.6455    1.0000 </r>
       <r>  -68.6434    1.0000 </r>
       <r>  -68.6335    1.0000 </r>
       <r>  -68.6334    1.0000 </r>
       <r>  -68.6134    1.0000 </r>
       <r>  -68.6118    1.0000 </r>
       <r>  -68.5961    1.0000 </r>
       <r>  -68.5940    1.0000 </r>
       <r>  -68.5778    1.0000 </r>
       <r>  -68.5777    1.0000 </r>
       <r>  -68.5609    1.0000 </r>
       <r>  -68.5609    1.0000 </r>
       <r>  -12.5944    1.0000 </r>
       <r>  -11.1286    1.0000 </r>
       <r>  -10.9796    1.0000 </r>
       <r>  -10.6772    1.0000 </r>
       <r>  -10.3678    1.0000 </r>
       <r>  -10.2800    1.0000 </r>
       <r>   -5.9336    1.0000 </r>
       <r>   -4.7723    1.0000 </r>
       <r>   -2.6443    1.0000 </r>
       <r>   -2.2512    1.0000 </r>
       <r>   -2.0866    1.0000 </r>
       <r>   -1.6885    1.0000 </r>
       <r>   -1.3488    1.0000 </r>
       <r>   -0.9985    1.0000 </r>
       <r>   -0.7689    1.0000 </r>
       <r>   -0.6211    1.0000 </r>
       <r>   -0.5480    1.0000 </r>
       <r>   -0.4387    1.0000 </r>
       <r>   -0.3634    1.0000 </r>
       <r>   -0.2411    1.0000 </r>
       <r>   -0.1954    1.0000 </r>
       <r>   -0.1684    1.0000 </r>
       <r>   -0.0471    1.0000 </r>
       <r>    0.0390    1.0000 </r>
       <r>    1.2794    1.0000 </r>
       <r>    1.3355    1.0000 </r>
       <r>    1.3548    1.0000 </r>
       <r>    1.3918    1.0000 </r>
       <r>    1.4271    1.0000 </r>
       <r>    1.4717    1.0000 </r>
       <r>    1.4984    1.0000 </r>
       <r>    1.5308    1.0000 </r>
       <r>    1.7246    1.0000 </r>
       <r>    1.8596    1.0000 </r>
       <r>    2.0562    1.0000 </r>
       <r>    2.0952    1.0000 </r>
       <r>    2.2313    1.0000 </r>
       <r>    2.4139    1.0000 </r>
       <r>    2.5568    1.0000 </r>
       <r>    2.8262    1.0000 </r>
       <r>    2.9475    1.0000 </r>
       <r>    3.2421    1.0000 </r>
       <r>    3.6626    1.0000 </r>
       <r>    4.0408    1.0148 </r>
       <r>    6.1719   -0.0000 </r>
       <r>    6.9068   -0.0000 </r>
       <r>    8.1381    0.0000 </r>
       <r>    8.2692    0.0000 </r>
       <r>    8.5932    0.0000 </r>
       <r>    9.0138    0.0000 </r>
       <r>    9.2421    0.0000 </r>
       <r>    9.5305    0.0000 </r>
       <r>    9.8639    0.0000 </r>
       <r>   10.3755    0.0000 </r>
       <r>   10.6360    0.0000 </r>
       <r>   10.8138    0.0000 </r>
       <r>   10.9392    0.0000 </r>
       <r>   11.1898    0.0000 </r>
       <r>   11.6576    0.0000 </r>
       <r>   11.7733    0.0000 </r>
       <r>   12.1168    0.0000 </r>
       <r>   12.4418    0.0000 </r>
       <r>   12.6159    0.0000 </r>
       <r>   13.0091    0.0000 </r>
       <r>   13.5175    0.0000 </r>
       <r>   13.8988    0.0000 </r>
       <r>   14.2713    0.0000 </r>
       <r>   14.8286    0.0000 </r>
      </set>
      <set comment="kpoint 5">
       <r>  -68.6455    1.0000 </r>
       <r>  -68.6434    1.0000 </r>
       <r>  -68.6335    1.0000 </r>
       <r>  -68.6332    1.0000 </r>
       <r>  -68.6136    1.0000 </r>
       <r>  -68.6119    1.0000 </r>
       <r>  -68.5960    1.0000 </r>
       <r>  -68.5938    1.0000 </r>
       <r>  -68.5780    1.0000 </r>
       <r>  -68.5778    1.0000 </r>
       <r>  -68.5609    1.0000 </r>
       <r>  -68.5609    1.0000 </r>
       <r>  -12.4385    1.0000 </r>
       <r>  -11.1920    1.0000 </r>
       <r>  -10.9396    1.0000 </r>
       <r>  -10.8790    1.0000 </r>
       <r>  -10.3932    1.0000 </r>
       <r>  -10.3524    1.0000 </r>
       <r>   -5.8764    1.0000 </r>
       <r>   -4.5205    1.0000 </r>
       <r>   -2.4157    1.0000 </r>
       <r>   -2.2453    1.0000 </r>
       <r>   -1.7924    1.0000 </r>
       <r>   -1.6803    1.0000 </r>
       <r>   -1.3567    1.0000 </r>
       <r>   -1.2998    1.0000 </r>
       <r>   -1.0823    1.0000 </r>
       <r>   -0.6808    1.0000 </r>
       <r>   -0.5260    1.0000 </r>
       <r>   -0.2984    1.0000 </r>
       <r>   -0.2809    1.0000 </r>
       <r>   -0.2240    1.0000 </r>
       <r>   -0.1883    1.0000 </r>
       <r>   -0.1248    1.0000 </r>
       <r>   -0.0949    1.0000 </r>
       <r>    0.0819    1.0000 </r>
       <r>    1.2938    1.0000 </r>
       <r>    1.3111    1.0000 </r>
       <r>    1.4156    1.0000 </r>
       <r>    1.4261    1.0000 </r>
       <r>    1.4635    1.0000 </r>
       <r>    1.4822    1.0000 </r>
       <r>    1.4952    1.0000 </r>
       <r>    1.5703    1.0000 </r>
       <r>    1.6717    1.0000 </r>
       <r>    1.8802    1.0000 </r>
       <r>    1.9404    1.0000 </r>
       <r>    2.1359    1.0000 </r>
       <r>    2.2801    1.0000 </r>
       <r>    2.3209    1.0000 </r>
       <r>    2.5580    1.0000 </r>
       <r>    2.6504    1.0000 </r>
       <r>    2.9028    1.0000 </r>
       <r>    2.9461    1.0000 </r>
       <r>    3.6982    1.0000 </r>
       <r>    3.8321    1.0000 </r>
       <r>    6.1729   -0.0000 </r>
       <r>    6.9895    0.0000 </r>
       <r>    8.0037    0.0000 </r>
       <r>    8.3277    0.0000 </r>
       <r>    8.4356    0.0000 </r>
       <r>    8.5727    0.0000 </r>
       <r>    9.1462    0.0000 </r>
       <r>    9.2492    0.0000 </r>
       <r>   10.3621    0.0000 </r>
       <r>   10.4964    0.0000 </r>
       <r>   10.9198    0.0000 </r>
       <r>   11.1853    0.0000 </r>
       <r>   11.3291    0.0000 </r>
       <r>   11.5580    0.0000 </r>
       <r>   11.8151    0.0000 </r>
       <r>   11.9623    0.0000 </r>
       <r>   12.3150    0.0000 </r>
       <r>   12.5020    0.0000 </r>
       <r>   12.7100    0.0000 </r>
       <r>   12.9146    0.0000 </r>
       <r>   13.3358    0.0000 </r>
       <r>   13.4462    0.0000 </r>
       <r>   14.2555    0.0000 </r>
       <r>   14.3676    0.0000 </r>
      </set>
      <set comment="kpoint 6">
       <r>  -68.6453    1.0000 </r>
       <r>  -68.6432    1.0000 </r>
       <r>  -68.6335    1.0000 </r>
       <r>  -68.6333    1.0000 </r>
       <r>  -68.6133    1.0000 </r>
       <r>  -68.6117    1.0000 </r>
       <r>  -68.5961    1.0000 </r>
       <r>  -68.5939    1.0000 </r>
       <r>  -68.5777    1.0000 </r>
       <r>  -68.5776    1.0000 </r>
       <r>  -68.5607    1.0000 </r>
       <r>  -68.5608    1.0000 </r>
       <r>  -12.4390    1.0000 </r>
       <r>  -11.3554    1.0000 </r>
       <r>  -10.9344    1.0000 </r>
       <r>  -10.7387    1.0000 </r>
       <r>  -10.3910    1.0000 </r>
       <r>  -10.2741    1.0000 </r>
       <r>   -5.9481    1.0000 </r>
       <r>   -4.6420    1.0000 </r>
       <r>   -2.3902    1.0000 </r>
       <r>   -2.2242    1.0000 </r>
       <r>   -2.0576    1.0000 </r>
       <r>   -1.6397    1.0000 </r>
       <r>   -1.3619    1.0000 </r>
       <r>   -1.2815    1.0000 </r>
       <r>   -1.0246    1.0000 </r>
       <r>   -0.5125    1.0000 </r>
       <r>   -0.4859    1.0000 </r>
       <r>   -0.3302    1.0000 </r>
       <r>   -0.2831    1.0000 </r>
       <r>   -0.2099    1.0000 </r>
       <r>   -0.1520    1.0000 </r>
       <r>   -0.1374    1.0000 </r>
       <r>   -0.0120    1.0000 </r>
       <r>    0.1145    1.0000 </r>
       <r>    1.2474    1.0000 </r>
       <r>    1.3153    1.0000 </r>
       <r>    1.3819    1.0000 </r>
       <r>    1.4377    1.0000 </r>
       <r>    1.4619    1.0000 </r>
       <r>    1.4919    1.0000 </r>
       <r>    1.4973    1.0000 </r>
       <r>    1.5493    1.0000 </r>
       <r>    1.7505    1.0000 </r>
       <r>    1.8295    1.0000 </r>
       <r>    1.9214    1.0000 </r>
       <r>    2.1341    1.0000 </r>
       <r>    2.2200    1.0000 </r>
       <r>    2.3853    1.0000 </r>
       <r>    2.5624    1.0000 </r>
       <r>    2.7904    1.0000 </r>
       <r>    2.9793    1.0000 </r>
       <r>    3.3112    1.0000 </r>
       <r>    3.6028    1.0000 </r>
       <r>    3.7484    1.0000 </r>
       <r>    6.0893   -0.0000 </r>
       <r>    6.9388   -0.0000 </r>
       <r>    7.6129    0.0000 </r>
       <r>    8.0688    0.0000 </r>
       <r>    8.4103    0.0000 </r>
       <r>    8.6167    0.0000 </r>
       <r>    8.9832    0.0000 </r>
       <r>    9.1531    0.0000 </r>
       <r>   10.0873    0.0000 </r>
       <r>   10.3361    0.0000 </r>
       <r>   10.7329    0.0000 </r>
       <r>   11.1090    0.0000 </r>
       <r>   11.4601    0.0000 </r>
       <r>   11.5938    0.0000 </r>
       <r>   11.7971    0.0000 </r>
       <r>   12.0815    0.0000 </r>
       <r>   12.4732    0.0000 </r>
       <r>   12.9107    0.0000 </r>
       <r>   13.0287    0.0000 </r>
       <r>   13.8114    0.0000 </r>
       <r>   14.1852    0.0000 </r>
       <r>   14.6464    0.0000 </r>
       <r>   15.4285    0.0000 </r>
       <r>   15.6369    0.0000 </r>
      </set>
      <set comment="kpoint 7">
       <r>  -68.6455    1.0000 </r>
       <r>  -68.6434    1.0000 </r>
       <r>  -68.6335    1.0000 </r>
       <r>  -68.6334    1.0000 </r>
       <r>  -68.6134    1.0000 </r>
       <r>  -68.6118    1.0000 </r>
       <r>  -68.5961    1.0000 </r>
       <r>  -68.5939    1.0000 </r>
       <r>  -68.5778    1.0000 </r>
       <r>  -68.5776    1.0000 </r>
       <r>  -68.5609    1.0000 </r>
       <r>  -68.5609    1.0000 </r>
       <r>  -12.5975    1.0000 </r>
       <r>  -11.2533    1.0000 </r>
       <r>  -10.9877    1.0000 </r>
       <r>  -10.5704    1.0000 </r>
       <r>  -10.3690    1.0000 </r>
       <r>  -10.1822    1.0000 </r>
       <r>   -6.0104    1.0000 </r>
       <r>   -4.8945    1.0000 </r>
       <r>   -2.6462    1.0000 </r>
       <r>   -2.3123    1.0000 </r>
       <r>   -1.9707    1.0000 </r>
       <r>   -1.6479    1.0000 </r>
       <r>   -1.4941    1.0000 </r>
       <r>   -1.1848    1.0000 </r>
       <r>   -0.7890    1.0000 </r>
       <r>   -0.5856    1.0000 </r>
       <r>   -0.4467    1.0000 </r>
       <r>   -0.3315    1.0000 </r>
       <r>   -0.2946    1.0000 </r>
       <r>   -0.2335    1.0000 </r>
       <r>   -0.1748    1.0000 </r>
       <r>   -0.1326    1.0000 </r>
       <r>   -0.0106    1.0000 </r>
       <r>    0.0713    1.0000 </r>
       <r>    1.2594    1.0000 </r>
       <r>    1.3212    1.0000 </r>
       <r>    1.3646    1.0000 </r>
       <r>    1.4229    1.0000 </r>
       <r>    1.4315    1.0000 </r>
       <r>    1.4764    1.0000 </r>
       <r>    1.5037    1.0000 </r>
       <r>    1.5434    1.0000 </r>
       <r>    1.7249    1.0000 </r>
       <r>    1.8129    1.0000 </r>
       <r>    1.9955    1.0000 </r>
       <r>    2.0734    1.0000 </r>
       <r>    2.4159    1.0000 </r>
       <r>    2.4640    1.0000 </r>
       <r>    2.5270    1.0000 </r>
       <r>    2.8733    1.0000 </r>
       <r>    3.1425    1.0000 </r>
       <r>    3.2287    1.0000 </r>
       <r>    3.7840    1.0000 </r>
       <r>    4.0709    1.0281 </r>
       <r>    5.9807   -0.0000 </r>
       <r>    6.6893   -0.0000 </r>
       <r>    7.5348    0.0000 </r>
       <r>    8.2226    0.0000 </r>
       <r>    8.6184    0.0000 </r>
       <r>    8.9137    0.0000 </r>
       <r>    9.3069    0.0000 </r>
       <r>    9.4319    0.0000 </r>
       <r>    9.8039    0.0000 </r>
       <r>   10.2740    0.0000 </r>
       <r>   10.5412    0.0000 </r>
       <r>   10.8272    0.0000 </r>
       <r>   10.9709    0.0000 </r>
       <r>   11.3831    0.0000 </r>
       <r>   11.4690    0.0000 </r>
       <r>   11.7352    0.0000 </r>
       <r>   12.0998    0.0000 </r>
       <r>   12.6645    0.0000 </r>
       <r>   12.9416    0.0000 </r>
       <r>   13.1049    0.0000 </r>
       <r>   13.3507    0.0000 </r>
       <r>   13.5217    0.0000 </r>
       <r>   14.4770    0.0000 </r>
       <r>   14.7558    0.0000 </r>
      </set>
      <set comment="kpoint 8">
       <r>  -68.6454    1.0000 </r>
       <r>  -68.6432    1.0000 </r>
       <r>  -68.6335    1.0000 </r>
       <r>  -68.6332    1.0000 </r>
       <r>  -68.6134    1.0000 </r>
       <r>  -68.6118    1.0000 </r>
       <r>  -68.5960    1.0000 </r>
       <r>  -68.5939    1.0000 </r>
       <r>  -68.5778    1.0000 </r>
       <r>  -68.5776    1.0000 </r>
       <r>  -68.5608    1.0000 </r>
       <r>  -68.5607    1.0000 </r>
       <r>  -12.4345    1.0000 </r>
       <r>  -11.2508    1.0000 </r>
       <r>  -10.9537    1.0000 </r>
       <r>  -10.7662    1.0000 </r>
       <r>  -10.4275    1.0000 </r>
       <r>  -10.3611    1.0000 </r>
       <r>   -5.8714    1.0000 </r>
       <r>   -4.5470    1.0000 </r>
       <r>   -2.4924    1.0000 </r>
       <r>   -2.2447    1.0000 </r>
       <r>   -1.9443    1.0000 </r>
       <r>   -1.4647    1.0000 </r>
       <r>   -1.2259    1.0000 </r>
       <r>   -1.1027    1.0000 </r>
       <r>   -0.8988    1.0000 </r>
       <r>   -0.8681    1.0000 </r>
       <r>   -0.5974    1.0000 </r>
       <r>   -0.5360    1.0000 </r>
       <r>   -0.2768    1.0000 </r>
       <r>   -0.2036    1.0000 </r>
       <r>   -0.2032    1.0000 </r>
       <r>   -0.1436    1.0000 </r>
       <r>   -0.0323    1.0000 </r>
       <r>    0.0826    1.0000 </r>
       <r>    1.2549    1.0000 </r>
       <r>    1.3271    1.0000 </r>
       <r>    1.3476    1.0000 </r>
       <r>    1.3970    1.0000 </r>
       <r>    1.4702    1.0000 </r>
       <r>    1.4796    1.0000 </r>
       <r>    1.5005    1.0000 </r>
       <r>    1.5535    1.0000 </r>
       <r>    1.7532    1.0000 </r>
       <r>    1.7919    1.0000 </r>
       <r>    1.9687    1.0000 </r>
       <r>    2.1458    1.0000 </r>
       <r>    2.3195    1.0000 </r>
       <r>    2.3657    1.0000 </r>
       <r>    2.5552    1.0000 </r>
       <r>    2.6695    1.0000 </r>
       <r>    2.9366    1.0000 </r>
       <r>    3.0777    1.0000 </r>
       <r>    3.2484    1.0000 </r>
       <r>    3.8634    1.0000 </r>
       <r>    6.3865   -0.0000 </r>
       <r>    7.0984    0.0000 </r>
       <r>    7.9809    0.0000 </r>
       <r>    8.2052    0.0000 </r>
       <r>    8.5192    0.0000 </r>
       <r>    8.8215    0.0000 </r>
       <r>    9.3283    0.0000 </r>
       <r>    9.8878    0.0000 </r>
       <r>   10.0111    0.0000 </r>
       <r>   10.5185    0.0000 </r>
       <r>   10.6919    0.0000 </r>
       <r>   10.7944    0.0000 </r>
       <r>   11.1402    0.0000 </r>
       <r>   11.4060    0.0000 </r>
       <r>   11.6103    0.0000 </r>
       <r>   11.7754    0.0000 </r>
       <r>   11.9423    0.0000 </r>
       <r>   12.5087    0.0000 </r>
       <r>   12.8256    0.0000 </r>
       <r>   13.0314    0.0000 </r>
       <r>   13.5483    0.0000 </r>
       <r>   13.6839    0.0000 </r>
       <r>   14.5530    0.0000 </r>
       <r>   15.2493    0.0000 </r>
      </set>
      <set comment="kpoint 9">
       <r>  -68.6453    1.0000 </r>
       <r>  -68.6432    1.0000 </r>
       <r>  -68.6335    1.0000 </r>
       <r>  -68.6333    1.0000 </r>
       <r>  -68.6133    1.0000 </r>
       <r>  -68.6118    1.0000 </r>
       <r>  -68.5961    1.0000 </r>
       <r>  -68.5939    1.0000 </r>
       <r>  -68.5777    1.0000 </r>
       <r>  -68.5776    1.0000 </r>
       <r>  -68.5608    1.0000 </r>
       <r>  -68.5607    1.0000 </r>
       <r>  -12.4388    1.0000 </r>
       <r>  -11.3557    1.0000 </r>
       <r>  -10.9345    1.0000 </r>
       <r>  -10.7393    1.0000 </r>
       <r>  -10.3908    1.0000 </r>
       <r>  -10.2734    1.0000 </r>
       <r>   -5.9482    1.0000 </r>
       <r>   -4.6419    1.0000 </r>
       <r>   -2.3905    1.0000 </r>
       <r>   -2.2247    1.0000 </r>
       <r>   -2.0563    1.0000 </r>
       <r>   -1.6408    1.0000 </r>
       <r>   -1.3632    1.0000 </r>
       <r>   -1.2820    1.0000 </r>
       <r>   -1.0230    1.0000 </r>
       <r>   -0.5121    1.0000 </r>
       <r>   -0.4819    1.0000 </r>
       <r>   -0.3310    1.0000 </r>
       <r>   -0.2822    1.0000 </r>
       <r>   -0.2138    1.0000 </r>
       <r>   -0.1508    1.0000 </r>
       <r>   -0.1371    1.0000 </r>
       <r>   -0.0130    1.0000 </r>
       <r>    0.1138    1.0000 </r>
       <r>    1.2471    1.0000 </r>
       <r>    1.3154    1.0000 </r>
       <r>    1.3837    1.0000 </r>
       <r>    1.4362    1.0000 </r>
       <r>    1.4622    1.0000 </r>
       <r>    1.4924    1.0000 </r>
       <r>    1.4969    1.0000 </r>
       <r>    1.5495    1.0000 </r>
       <r>    1.7484    1.0000 </r>
       <r>    1.8280    1.0000 </r>
       <r>    1.9225    1.0000 </r>
       <r>    2.1351    1.0000 </r>
       <r>    2.2210    1.0000 </r>
       <r>    2.3852    1.0000 </r>
       <r>    2.5613    1.0000 </r>
       <r>    2.7902    1.0000 </r>
       <r>    2.9788    1.0000 </r>
       <r>    3.3136    1.0000 </r>
       <r>    3.6022    1.0000 </r>
       <r>    3.7491    1.0000 </r>
       <r>    6.0890   -0.0000 </r>
       <r>    6.9396   -0.0000 </r>
       <r>    7.6126    0.0000 </r>
       <r>    8.0686    0.0000 </r>
       <r>    8.4112    0.0000 </r>
       <r>    8.6160    0.0000 </r>
       <r>    8.9840    0.0000 </r>
       <r>    9.1523    0.0000 </r>
       <r>   10.0874    0.0000 </r>
       <r>   10.3359    0.0000 </r>
       <r>   10.7332    0.0000 </r>
       <r>   11.1070    0.0000 </r>
       <r>   11.4558    0.0000 </r>
       <r>   11.5781    0.0000 </r>
       <r>   11.7859    0.0000 </r>
       <r>   12.0317    0.0000 </r>
       <r>   12.5230    0.0000 </r>
       <r>   12.6872    0.0000 </r>
       <r>   12.9132    0.0000 </r>
       <r>   13.2093    0.0000 </r>
       <r>   14.2286    0.0000 </r>
       <r>   14.7794    0.0000 </r>
       <r>   15.2538    0.0000 </r>
       <r>   15.9094    0.0000 </r>
      </set>
      <set comment="kpoint 10">
       <r>  -68.6451    1.0000 </r>
       <r>  -68.6430    1.0000 </r>
       <r>  -68.6334    1.0000 </r>
       <r>  -68.6331    1.0000 </r>
       <r>  -68.6131    1.0000 </r>
       <r>  -68.6117    1.0000 </r>
       <r>  -68.5958    1.0000 </r>
       <r>  -68.5937    1.0000 </r>
       <r>  -68.5777    1.0000 </r>
       <r>  -68.5775    1.0000 </r>
       <r>  -68.5605    1.0000 </r>
       <r>  -68.5606    1.0000 </r>
       <r>  -12.4308    1.0000 </r>
       <r>  -11.5030    1.0000 </r>
       <r>  -10.9097    1.0000 </r>
       <r>  -10.6186    1.0000 </r>
       <r>  -10.3997    1.0000 </r>
       <r>  -10.2013    1.0000 </r>
       <r>   -6.0267    1.0000 </r>
       <r>   -4.8107    1.0000 </r>
       <r>   -2.3107    1.0000 </r>
       <r>   -2.2617    1.0000 </r>
       <r>   -2.0937    1.0000 </r>
       <r>   -1.7021    1.0000 </r>
       <r>   -1.2460    1.0000 </r>
       <r>   -1.1087    1.0000 </r>
       <r>   -0.8451    1.0000 </r>
       <r>   -0.7816    1.0000 </r>
       <r>   -0.7291    1.0000 </r>
       <r>   -0.2448    1.0000 </r>
       <r>   -0.1982    1.0000 </r>
       <r>   -0.1792    1.0000 </r>
       <r>   -0.1498    1.0000 </r>
       <r>   -0.0420    1.0000 </r>
       <r>   -0.0064    1.0000 </r>
       <r>    0.1858    1.0000 </r>
       <r>    1.2664    1.0000 </r>
       <r>    1.3174    1.0000 </r>
       <r>    1.3773    1.0000 </r>
       <r>    1.4140    1.0000 </r>
       <r>    1.4329    1.0000 </r>
       <r>    1.4927    1.0000 </r>
       <r>    1.5088    1.0000 </r>
       <r>    1.5491    1.0000 </r>
       <r>    1.7886    1.0000 </r>
       <r>    1.8466    1.0000 </r>
       <r>    1.9969    1.0000 </r>
       <r>    2.1506    1.0000 </r>
       <r>    2.2526    1.0000 </r>
       <r>    2.3384    1.0000 </r>
       <r>    2.5601    1.0000 </r>
       <r>    2.7643    1.0000 </r>
       <r>    2.7721    1.0000 </r>
       <r>    3.3673    1.0000 </r>
       <r>    3.7640    1.0000 </r>
       <r>    4.0083    1.0055 </r>
       <r>    5.8561   -0.0000 </r>
       <r>    6.7663   -0.0000 </r>
       <r>    7.0846    0.0000 </r>
       <r>    8.4120    0.0000 </r>
       <r>    8.5622    0.0000 </r>
       <r>    8.7701    0.0000 </r>
       <r>    9.1427    0.0000 </r>
       <r>    9.2411    0.0000 </r>
       <r>    9.9580    0.0000 </r>
       <r>   10.2835    0.0000 </r>
       <r>   10.7267    0.0000 </r>
       <r>   10.8221    0.0000 </r>
       <r>   10.8761    0.0000 </r>
       <r>   11.2769    0.0000 </r>
       <r>   11.7546    0.0000 </r>
       <r>   11.9162    0.0000 </r>
       <r>   11.9740    0.0000 </r>
       <r>   12.3679    0.0000 </r>
       <r>   12.5412    0.0000 </r>
       <r>   13.4632    0.0000 </r>
       <r>   14.2799    0.0000 </r>
       <r>   14.6817    0.0000 </r>
       <r>   16.7464    0.0000 </r>
       <r>   16.7570    0.0000 </r>
      </set>
      <set comment="kpoint 11">
       <r>  -68.6456    1.0000 </r>
       <r>  -68.6434    1.0000 </r>
       <r>  -68.6335    1.0000 </r>
       <r>  -68.6334    1.0000 </r>
       <r>  -68.6135    1.0000 </r>
       <r>  -68.6118    1.0000 </r>
       <r>  -68.5961    1.0000 </r>
       <r>  -68.5940    1.0000 </r>
       <r>  -68.5779    1.0000 </r>
       <r>  -68.5777    1.0000 </r>
       <r>  -68.5609    1.0000 </r>
       <r>  -68.5609    1.0000 </r>
       <r>  -12.6165    1.0000 </r>
       <r>  -11.4247    1.0000 </r>
       <r>  -10.7770    1.0000 </r>
       <r>  -10.6081    1.0000 </r>
       <r>  -10.2528    1.0000 </r>
       <r>  -10.2390    1.0000 </r>
       <r>   -5.8314    1.0000 </r>
       <r>   -5.0463    1.0000 </r>
       <r>   -2.5989    1.0000 </r>
       <r>   -2.3703    1.0000 </r>
       <r>   -1.9636    1.0000 </r>
       <r>   -1.7750    1.0000 </r>
       <r>   -1.4456    1.0000 </r>
       <r>   -1.1235    1.0000 </r>
       <r>   -1.0642    1.0000 </r>
       <r>   -0.7711    1.0000 </r>
       <r>   -0.4708    1.0000 </r>
       <r>   -0.2942    1.0000 </r>
       <r>   -0.2385    1.0000 </r>
       <r>   -0.2337    1.0000 </r>
       <r>   -0.1911    1.0000 </r>
       <r>   -0.1480    1.0000 </r>
       <r>   -0.0186    1.0000 </r>
       <r>    0.0234    1.0000 </r>
       <r>    1.3334    1.0000 </r>
       <r>    1.3813    1.0000 </r>
       <r>    1.4160    1.0000 </r>
       <r>    1.4403    1.0000 </r>
       <r>    1.4648    1.0000 </r>
       <r>    1.4663    1.0000 </r>
       <r>    1.5148    1.0000 </r>
       <r>    1.5454    1.0000 </r>
       <r>    1.6332    1.0000 </r>
       <r>    1.7588    1.0000 </r>
       <r>    1.7873    1.0000 </r>
       <r>    1.9511    1.0000 </r>
       <r>    2.0875    1.0000 </r>
       <r>    2.6604    1.0000 </r>
       <r>    2.7189    1.0000 </r>
       <r>    3.1972    1.0000 </r>
       <r>    3.2524    1.0000 </r>
       <r>    3.5219    1.0000 </r>
       <r>    3.8945    1.0000 </r>
       <r>    3.9767    1.0016 </r>
       <r>    6.0463   -0.0000 </r>
       <r>    6.4168   -0.0000 </r>
       <r>    7.8252    0.0000 </r>
       <r>    7.9084    0.0000 </r>
       <r>    8.3659    0.0000 </r>
       <r>    8.8197    0.0000 </r>
       <r>    9.7753    0.0000 </r>
       <r>    9.7951    0.0000 </r>
       <r>   10.0623    0.0000 </r>
       <r>   10.5842    0.0000 </r>
       <r>   10.6421    0.0000 </r>
       <r>   10.8144    0.0000 </r>
       <r>   10.8566    0.0000 </r>
       <r>   11.4936    0.0000 </r>
       <r>   11.5576    0.0000 </r>
       <r>   12.0284    0.0000 </r>
       <r>   12.5795    0.0000 </r>
       <r>   12.7760    0.0000 </r>
       <r>   12.9141    0.0000 </r>
       <r>   13.2049    0.0000 </r>
       <r>   13.5354    0.0000 </r>
       <r>   13.8213    0.0000 </r>
       <r>   14.1979    0.0000 </r>
       <r>   14.7037    0.0000 </r>
      </set>
      <set comment="kpoint 12">
       <r>  -68.6455    1.0000 </r>
       <r>  -68.6434    1.0000 </r>
       <r>  -68.6335    1.0000 </r>
       <r>  -68.6334    1.0000 </r>
       <r>  -68.6135    1.0000 </r>
       <r>  -68.6119    1.0000 </r>
       <r>  -68.5961    1.0000 </r>
       <r>  -68.5939    1.0000 </r>
       <r>  -68.5779    1.0000 </r>
       <r>  -68.5777    1.0000 </r>
       <r>  -68.5608    1.0000 </r>
       <r>  -68.5609    1.0000 </r>
       <r>  -12.4572    1.0000 </r>
       <r>  -11.4665    1.0000 </r>
       <r>  -10.8615    1.0000 </r>
       <r>  -10.6902    1.0000 </r>
       <r>  -10.3760    1.0000 </r>
       <r>  -10.2476    1.0000 </r>
       <r>   -5.7669    1.0000 </r>
       <r>   -4.8034    1.0000 </r>
       <r>   -2.4429    1.0000 </r>
       <r>   -2.2324    1.0000 </r>
       <r>   -1.8517    1.0000 </r>
       <r>   -1.7116    1.0000 </r>
       <r>   -1.4346    1.0000 </r>
       <r>   -1.1877    1.0000 </r>
       <r>   -0.8874    1.0000 </r>
       <r>   -0.7490    1.0000 </r>
       <r>   -0.6059    1.0000 </r>
       <r>   -0.5238    1.0000 </r>
       <r>   -0.3143    1.0000 </r>
       <r>   -0.2415    1.0000 </r>
       <r>   -0.1719    1.0000 </r>
       <r>   -0.1241    1.0000 </r>
       <r>   -0.0538    1.0000 </r>
       <r>    0.0622    1.0000 </r>
       <r>    1.3019    1.0000 </r>
       <r>    1.3370    1.0000 </r>
       <r>    1.3692    1.0000 </r>
       <r>    1.4316    1.0000 </r>
       <r>    1.4468    1.0000 </r>
       <r>    1.4792    1.0000 </r>
       <r>    1.5215    1.0000 </r>
       <r>    1.5466    1.0000 </r>
       <r>    1.6439    1.0000 </r>
       <r>    1.8724    1.0000 </r>
       <r>    1.9780    1.0000 </r>
       <r>    2.0481    1.0000 </r>
       <r>    2.1942    1.0000 </r>
       <r>    2.4755    1.0000 </r>
       <r>    2.5951    1.0000 </r>
       <r>    2.8394    1.0000 </r>
       <r>    2.9631    1.0000 </r>
       <r>    3.1340    1.0000 </r>
       <r>    3.5686    1.0000 </r>
       <r>    3.7238    1.0000 </r>
       <r>    6.4426   -0.0000 </r>
       <r>    6.9568    0.0000 </r>
       <r>    8.1717    0.0000 </r>
       <r>    8.2467    0.0000 </r>
       <r>    8.8340    0.0000 </r>
       <r>    9.1293    0.0000 </r>
       <r>    9.4654    0.0000 </r>
       <r>    9.7959    0.0000 </r>
       <r>   10.0849    0.0000 </r>
       <r>   10.2972    0.0000 </r>
       <r>   10.7421    0.0000 </r>
       <r>   11.0777    0.0000 </r>
       <r>   11.2907    0.0000 </r>
       <r>   11.4252    0.0000 </r>
       <r>   11.6338    0.0000 </r>
       <r>   11.7250    0.0000 </r>
       <r>   12.0853    0.0000 </r>
       <r>   12.2670    0.0000 </r>
       <r>   12.5420    0.0000 </r>
       <r>   12.6569    0.0000 </r>
       <r>   12.9538    0.0000 </r>
       <r>   13.0610    0.0000 </r>
       <r>   13.6392    0.0000 </r>
       <r>   14.6911    0.0000 </r>
      </set>
      <set comment="kpoint 13">
       <r>  -68.6453    1.0000 </r>
       <r>  -68.6432    1.0000 </r>
       <r>  -68.6335    1.0000 </r>
       <r>  -68.6333    1.0000 </r>
       <r>  -68.6134    1.0000 </r>
       <r>  -68.6118    1.0000 </r>
       <r>  -68.5960    1.0000 </r>
       <r>  -68.5938    1.0000 </r>
       <r>  -68.5777    1.0000 </r>
       <r>  -68.5777    1.0000 </r>
       <r>  -68.5608    1.0000 </r>
       <r>  -68.5608    1.0000 </r>
       <r>  -12.3546    1.0000 </r>
       <r>  -11.4128    1.0000 </r>
       <r>  -10.9520    1.0000 </r>
       <r>  -10.6843    1.0000 </r>
       <r>  -10.4800    1.0000 </r>
       <r>  -10.3376    1.0000 </r>
       <r>   -5.7522    1.0000 </r>
       <r>   -4.7212    1.0000 </r>
       <r>   -2.5211    1.0000 </r>
       <r>   -2.1841    1.0000 </r>
       <r>   -1.9525    1.0000 </r>
       <r>   -1.5348    1.0000 </r>
       <r>   -1.3024    1.0000 </r>
       <r>   -1.0977    1.0000 </r>
       <r>   -0.8719    1.0000 </r>
       <r>   -0.7535    1.0000 </r>
       <r>   -0.5490    1.0000 </r>
       <r>   -0.4460    1.0000 </r>
       <r>   -0.2906    1.0000 </r>
       <r>   -0.1794    1.0000 </r>
       <r>   -0.1472    1.0000 </r>
       <r>   -0.1051    1.0000 </r>
       <r>   -0.0453    1.0000 </r>
       <r>    0.0226    1.0000 </r>
       <r>    1.2722    1.0000 </r>
       <r>    1.2988    1.0000 </r>
       <r>    1.3525    1.0000 </r>
       <r>    1.4295    1.0000 </r>
       <r>    1.4527    1.0000 </r>
       <r>    1.4796    1.0000 </r>
       <r>    1.5011    1.0000 </r>
       <r>    1.5873    1.0000 </r>
       <r>    1.7183    1.0000 </r>
       <r>    1.9315    1.0000 </r>
       <r>    2.0765    1.0000 </r>
       <r>    2.1472    1.0000 </r>
       <r>    2.2678    1.0000 </r>
       <r>    2.4036    1.0000 </r>
       <r>    2.5684    1.0000 </r>
       <r>    2.5977    1.0000 </r>
       <r>    2.8991    1.0000 </r>
       <r>    3.0102    1.0000 </r>
       <r>    3.3599    1.0000 </r>
       <r>    3.8994    1.0000 </r>
       <r>    6.3665   -0.0000 </r>
       <r>    6.8958   -0.0000 </r>
       <r>    7.5739    0.0000 </r>
       <r>    8.0849    0.0000 </r>
       <r>    8.5466    0.0000 </r>
       <r>    8.7982    0.0000 </r>
       <r>    9.2798    0.0000 </r>
       <r>    9.6293    0.0000 </r>
       <r>    9.9317    0.0000 </r>
       <r>   10.2767    0.0000 </r>
       <r>   10.6586    0.0000 </r>
       <r>   10.9299    0.0000 </r>
       <r>   10.9705    0.0000 </r>
       <r>   11.2816    0.0000 </r>
       <r>   11.5196    0.0000 </r>
       <r>   11.7888    0.0000 </r>
       <r>   12.2485    0.0000 </r>
       <r>   12.5453    0.0000 </r>
       <r>   13.0965    0.0000 </r>
       <r>   13.5165    0.0000 </r>
       <r>   14.2972    0.0000 </r>
       <r>   14.5676    0.0000 </r>
       <r>   15.1245    0.0000 </r>
       <r>   16.2682    0.0000 </r>
      </set>
      <set comment="kpoint 14">
       <r>  -68.6456    1.0000 </r>
       <r>  -68.6434    1.0000 </r>
       <r>  -68.6335    1.0000 </r>
       <r>  -68.6334    1.0000 </r>
       <r>  -68.6135    1.0000 </r>
       <r>  -68.6119    1.0000 </r>
       <r>  -68.5961    1.0000 </r>
       <r>  -68.5939    1.0000 </r>
       <r>  -68.5779    1.0000 </r>
       <r>  -68.5777    1.0000 </r>
       <r>  -68.5609    1.0000 </r>
       <r>  -68.5609    1.0000 </r>
       <r>  -12.5401    1.0000 </r>
       <r>  -11.3360    1.0000 </r>
       <r>  -10.8734    1.0000 </r>
       <r>  -10.6052    1.0000 </r>
       <r>  -10.4004    1.0000 </r>
       <r>  -10.2860    1.0000 </r>
       <r>   -5.8250    1.0000 </r>
       <r>   -4.9740    1.0000 </r>
       <r>   -2.6638    1.0000 </r>
       <r>   -2.4528    1.0000 </r>
       <r>   -2.0391    1.0000 </r>
       <r>   -1.5759    1.0000 </r>
       <r>   -1.1708    1.0000 </r>
       <r>   -0.9850    1.0000 </r>
       <r>   -0.7908    1.0000 </r>
       <r>   -0.6568    1.0000 </r>
       <r>   -0.5163    1.0000 </r>
       <r>   -0.3905    1.0000 </r>
       <r>   -0.2670    1.0000 </r>
       <r>   -0.2543    1.0000 </r>
       <r>   -0.1921    1.0000 </r>
       <r>   -0.1459    1.0000 </r>
       <r>   -0.0460    1.0000 </r>
       <r>    0.0124    1.0000 </r>
       <r>    1.2897    1.0000 </r>
       <r>    1.3110    1.0000 </r>
       <r>    1.3890    1.0000 </r>
       <r>    1.4090    1.0000 </r>
       <r>    1.4341    1.0000 </r>
       <r>    1.4555    1.0000 </r>
       <r>    1.4921    1.0000 </r>
       <r>    1.5651    1.0000 </r>
       <r>    1.6876    1.0000 </r>
       <r>    1.9154    1.0000 </r>
       <r>    1.9873    1.0000 </r>
       <r>    2.1451    1.0000 </r>
       <r>    2.3349    1.0000 </r>
       <r>    2.5647    1.0000 </r>
       <r>    2.6179    1.0000 </r>
       <r>    2.8302    1.0000 </r>
       <r>    2.9741    1.0000 </r>
       <r>    3.2482    1.0000 </r>
       <r>    3.6836    1.0000 </r>
       <r>    3.9441    1.0003 </r>
       <r>    6.1799   -0.0000 </r>
       <r>    6.6381   -0.0000 </r>
       <r>    7.7673    0.0000 </r>
       <r>    7.9718    0.0000 </r>
       <r>    8.2153    0.0000 </r>
       <r>    8.5632    0.0000 </r>
       <r>    9.3812    0.0000 </r>
       <r>    9.5771    0.0000 </r>
       <r>    9.9073    0.0000 </r>
       <r>   10.2508    0.0000 </r>
       <r>   10.5441    0.0000 </r>
       <r>   10.7888    0.0000 </r>
       <r>   10.8374    0.0000 </r>
       <r>   11.0673    0.0000 </r>
       <r>   11.5685    0.0000 </r>
       <r>   12.0223    0.0000 </r>
       <r>   12.5309    0.0000 </r>
       <r>   12.7527    0.0000 </r>
       <r>   12.9531    0.0000 </r>
       <r>   13.3084    0.0000 </r>
       <r>   13.4118    0.0000 </r>
       <r>   13.7398    0.0000 </r>
       <r>   13.8488    0.0000 </r>
       <r>   14.7246    0.0000 </r>
      </set>
      <set comment="kpoint 15">
       <r>  -68.6455    1.0000 </r>
       <r>  -68.6434    1.0000 </r>
       <r>  -68.6335    1.0000 </r>
       <r>  -68.6334    1.0000 </r>
       <r>  -68.6135    1.0000 </r>
       <r>  -68.6119    1.0000 </r>
       <r>  -68.5961    1.0000 </r>
       <r>  -68.5939    1.0000 </r>
       <r>  -68.5779    1.0000 </r>
       <r>  -68.5777    1.0000 </r>
       <r>  -68.5608    1.0000 </r>
       <r>  -68.5609    1.0000 </r>
       <r>  -12.4571    1.0000 </r>
       <r>  -11.4659    1.0000 </r>
       <r>  -10.8657    1.0000 </r>
       <r>  -10.6875    1.0000 </r>
       <r>  -10.3754    1.0000 </r>
       <r>  -10.2473    1.0000 </r>
       <r>   -5.7672    1.0000 </r>
       <r>   -4.8032    1.0000 </r>
       <r>   -2.4433    1.0000 </r>
       <r>   -2.2319    1.0000 </r>
       <r>   -1.8501    1.0000 </r>
       <r>   -1.7124    1.0000 </r>
       <r>   -1.4367    1.0000 </r>
       <r>   -1.1887    1.0000 </r>
       <r>   -0.8917    1.0000 </r>
       <r>   -0.7433    1.0000 </r>
       <r>   -0.6078    1.0000 </r>
       <r>   -0.5183    1.0000 </r>
       <r>   -0.3130    1.0000 </r>
       <r>   -0.2438    1.0000 </r>
       <r>   -0.1755    1.0000 </r>
       <r>   -0.1221    1.0000 </r>
       <r>   -0.0532    1.0000 </r>
       <r>    0.0612    1.0000 </r>
       <r>    1.3022    1.0000 </r>
       <r>    1.3364    1.0000 </r>
       <r>    1.3697    1.0000 </r>
       <r>    1.4318    1.0000 </r>
       <r>    1.4462    1.0000 </r>
       <r>    1.4787    1.0000 </r>
       <r>    1.5217    1.0000 </r>
       <r>    1.5467    1.0000 </r>
       <r>    1.6432    1.0000 </r>
       <r>    1.8712    1.0000 </r>
       <r>    1.9778    1.0000 </r>
       <r>    2.0487    1.0000 </r>
       <r>    2.1952    1.0000 </r>
       <r>    2.4760    1.0000 </r>
       <r>    2.5964    1.0000 </r>
       <r>    2.8386    1.0000 </r>
       <r>    2.9635    1.0000 </r>
       <r>    3.1329    1.0000 </r>
       <r>    3.5670    1.0000 </r>
       <r>    3.7262    1.0000 </r>
       <r>    6.4417   -0.0000 </r>
       <r>    6.9582    0.0000 </r>
       <r>    8.1723    0.0000 </r>
       <r>    8.2467    0.0000 </r>
       <r>    8.8344    0.0000 </r>
       <r>    9.1299    0.0000 </r>
       <r>    9.4624    0.0000 </r>
       <r>    9.7965    0.0000 </r>
       <r>   10.0835    0.0000 </r>
       <r>   10.2991    0.0000 </r>
       <r>   10.7405    0.0000 </r>
       <r>   11.0790    0.0000 </r>
       <r>   11.2899    0.0000 </r>
       <r>   11.4248    0.0000 </r>
       <r>   11.6335    0.0000 </r>
       <r>   11.7245    0.0000 </r>
       <r>   12.0859    0.0000 </r>
       <r>   12.2665    0.0000 </r>
       <r>   12.5427    0.0000 </r>
       <r>   12.6546    0.0000 </r>
       <r>   12.9559    0.0000 </r>
       <r>   13.0599    0.0000 </r>
       <r>   13.6552    0.0000 </r>
       <r>   14.6975    0.0000 </r>
      </set>
      <set comment="kpoint 16">
       <r>  -68.6454    1.0000 </r>
       <r>  -68.6433    1.0000 </r>
       <r>  -68.6334    1.0000 </r>
       <r>  -68.6332    1.0000 </r>
       <r>  -68.6133    1.0000 </r>
       <r>  -68.6117    1.0000 </r>
       <r>  -68.5960    1.0000 </r>
       <r>  -68.5938    1.0000 </r>
       <r>  -68.5778    1.0000 </r>
       <r>  -68.5775    1.0000 </r>
       <r>  -68.5608    1.0000 </r>
       <r>  -68.5607    1.0000 </r>
       <r>  -12.3249    1.0000 </r>
       <r>  -11.4747    1.0000 </r>
       <r>  -10.8648    1.0000 </r>
       <r>  -10.8556    1.0000 </r>
       <r>  -10.4088    1.0000 </r>
       <r>  -10.2887    1.0000 </r>
       <r>   -5.7482    1.0000 </r>
       <r>   -4.6906    1.0000 </r>
       <r>   -2.2392    1.0000 </r>
       <r>   -2.1376    1.0000 </r>
       <r>   -1.9277    1.0000 </r>
       <r>   -1.8504    1.0000 </r>
       <r>   -1.4547    1.0000 </r>
       <r>   -1.3973    1.0000 </r>
       <r>   -1.0418    1.0000 </r>
       <r>   -0.5204    1.0000 </r>
       <r>   -0.4582    1.0000 </r>
       <r>   -0.3479    1.0000 </r>
       <r>   -0.2510    1.0000 </r>
       <r>   -0.2173    1.0000 </r>
       <r>   -0.1613    1.0000 </r>
       <r>   -0.1112    1.0000 </r>
       <r>   -0.0922    1.0000 </r>
       <r>    0.0812    1.0000 </r>
       <r>    1.2625    1.0000 </r>
       <r>    1.3479    1.0000 </r>
       <r>    1.3975    1.0000 </r>
       <r>    1.4354    1.0000 </r>
       <r>    1.4520    1.0000 </r>
       <r>    1.5101    1.0000 </r>
       <r>    1.5359    1.0000 </r>
       <r>    1.5436    1.0000 </r>
       <r>    1.7539    1.0000 </r>
       <r>    1.8178    1.0000 </r>
       <r>    2.0417    1.0000 </r>
       <r>    2.1335    1.0000 </r>
       <r>    2.2855    1.0000 </r>
       <r>    2.3108    1.0000 </r>
       <r>    2.5197    1.0000 </r>
       <r>    2.7699    1.0000 </r>
       <r>    2.8987    1.0000 </r>
       <r>    3.2622    1.0000 </r>
       <r>    3.4969    1.0000 </r>
       <r>    3.8012    1.0000 </r>
       <r>    6.1843   -0.0000 </r>
       <r>    6.8411   -0.0000 </r>
       <r>    7.8267    0.0000 </r>
       <r>    8.0460    0.0000 </r>
       <r>    8.1904    0.0000 </r>
       <r>    8.7281    0.0000 </r>
       <r>    9.1537    0.0000 </r>
       <r>    9.3061    0.0000 </r>
       <r>   10.2198    0.0000 </r>
       <r>   10.4414    0.0000 </r>
       <r>   10.5922    0.0000 </r>
       <r>   11.0051    0.0000 </r>
       <r>   11.2387    0.0000 </r>
       <r>   11.4891    0.0000 </r>
       <r>   11.8137    0.0000 </r>
       <r>   12.1708    0.0000 </r>
       <r>   12.2081    0.0000 </r>
       <r>   12.5749    0.0000 </r>
       <r>   12.6902    0.0000 </r>
       <r>   13.1157    0.0000 </r>
       <r>   13.4168    0.0000 </r>
       <r>   13.8804    0.0000 </r>
       <r>   14.0044    0.0000 </r>
       <r>   14.5273    0.0000 </r>
      </set>
      <set comment="kpoint 17">
       <r>  -68.6452    1.0000 </r>
       <r>  -68.6432    1.0000 </r>
       <r>  -68.6334    1.0000 </r>
       <r>  -68.6334    1.0000 </r>
       <r>  -68.6132    1.0000 </r>
       <r>  -68.6119    1.0000 </r>
       <r>  -68.5960    1.0000 </r>
       <r>  -68.5939    1.0000 </r>
       <r>  -68.5778    1.0000 </r>
       <r>  -68.5776    1.0000 </r>
       <r>  -68.5607    1.0000 </r>
       <r>  -68.5608    1.0000 </r>
       <r>  -12.3719    1.0000 </r>
       <r>  -11.4733    1.0000 </r>
       <r>  -10.9357    1.0000 </r>
       <r>  -10.6538    1.0000 </r>
       <r>  -10.4198    1.0000 </r>
       <r>  -10.3080    1.0000 </r>
       <r>   -5.8010    1.0000 </r>
       <r>   -4.8360    1.0000 </r>
       <r>   -2.5250    1.0000 </r>
       <r>   -2.2441    1.0000 </r>
       <r>   -1.8721    1.0000 </r>
       <r>   -1.6414    1.0000 </r>
       <r>   -1.5050    1.0000 </r>
       <r>   -1.3075    1.0000 </r>
       <r>   -0.9037    1.0000 </r>
       <r>   -0.5317    1.0000 </r>
       <r>   -0.3785    1.0000 </r>
       <r>   -0.3502    1.0000 </r>
       <r>   -0.2223    1.0000 </r>
       <r>   -0.1806    1.0000 </r>
       <r>   -0.1563    1.0000 </r>
       <r>   -0.0808    1.0000 </r>
       <r>   -0.0274    1.0000 </r>
       <r>    0.0803    1.0000 </r>
       <r>    1.1907    1.0000 </r>
       <r>    1.3640    1.0000 </r>
       <r>    1.3977    1.0000 </r>
       <r>    1.4427    1.0000 </r>
       <r>    1.4633    1.0000 </r>
       <r>    1.5065    1.0000 </r>
       <r>    1.5192    1.0000 </r>
       <r>    1.5849    1.0000 </r>
       <r>    1.7407    1.0000 </r>
       <r>    1.8181    1.0000 </r>
       <r>    2.0377    1.0000 </r>
       <r>    2.2352    1.0000 </r>
       <r>    2.2702    1.0000 </r>
       <r>    2.3621    1.0000 </r>
       <r>    2.4880    1.0000 </r>
       <r>    2.6705    1.0000 </r>
       <r>    3.0530    1.0000 </r>
       <r>    3.4110    1.0000 </r>
       <r>    3.7283    1.0000 </r>
       <r>    3.8649    1.0000 </r>
       <r>    5.9329   -0.0000 </r>
       <r>    6.6136   -0.0000 </r>
       <r>    7.3545    0.0000 </r>
       <r>    7.9427    0.0000 </r>
       <r>    8.0671    0.0000 </r>
       <r>    8.7248    0.0000 </r>
       <r>    8.9052    0.0000 </r>
       <r>    9.1384    0.0000 </r>
       <r>    9.8455    0.0000 </r>
       <r>   10.3268    0.0000 </r>
       <r>   10.5564    0.0000 </r>
       <r>   10.9272    0.0000 </r>
       <r>   11.2235    0.0000 </r>
       <r>   11.4129    0.0000 </r>
       <r>   11.7503    0.0000 </r>
       <r>   12.0016    0.0000 </r>
       <r>   12.4967    0.0000 </r>
       <r>   12.8322    0.0000 </r>
       <r>   13.2066    0.0000 </r>
       <r>   14.1806    0.0000 </r>
       <r>   14.7177    0.0000 </r>
       <r>   15.1578    0.0000 </r>
       <r>   15.9188    0.0000 </r>
       <r>   16.5656    0.0000 </r>
      </set>
      <set comment="kpoint 18">
       <r>  -68.6455    1.0000 </r>
       <r>  -68.6434    1.0000 </r>
       <r>  -68.6336    1.0000 </r>
       <r>  -68.6334    1.0000 </r>
       <r>  -68.6134    1.0000 </r>
       <r>  -68.6118    1.0000 </r>
       <r>  -68.5962    1.0000 </r>
       <r>  -68.5940    1.0000 </r>
       <r>  -68.5778    1.0000 </r>
       <r>  -68.5777    1.0000 </r>
       <r>  -68.5609    1.0000 </r>
       <r>  -68.5608    1.0000 </r>
       <r>  -12.4985    1.0000 </r>
       <r>  -11.4247    1.0000 </r>
       <r>  -10.9478    1.0000 </r>
       <r>  -10.5805    1.0000 </r>
       <r>  -10.3771    1.0000 </r>
       <r>  -10.2098    1.0000 </r>
       <r>   -5.8291    1.0000 </r>
       <r>   -4.9400    1.0000 </r>
       <r>   -2.5703    1.0000 </r>
       <r>   -2.3659    1.0000 </r>
       <r>   -1.9172    1.0000 </r>
       <r>   -1.5955    1.0000 </r>
       <r>   -1.4150    1.0000 </r>
       <r>   -1.1228    1.0000 </r>
       <r>   -0.8131    1.0000 </r>
       <r>   -0.6773    1.0000 </r>
       <r>   -0.5351    1.0000 </r>
       <r>   -0.4684    1.0000 </r>
       <r>   -0.2514    1.0000 </r>
       <r>   -0.1954    1.0000 </r>
       <r>   -0.1677    1.0000 </r>
       <r>   -0.1184    1.0000 </r>
       <r>   -0.0382    1.0000 </r>
       <r>    0.0568    1.0000 </r>
       <r>    1.2803    1.0000 </r>
       <r>    1.3242    1.0000 </r>
       <r>    1.3453    1.0000 </r>
       <r>    1.4344    1.0000 </r>
       <r>    1.4517    1.0000 </r>
       <r>    1.4687    1.0000 </r>
       <r>    1.4940    1.0000 </r>
       <r>    1.5575    1.0000 </r>
       <r>    1.7262    1.0000 </r>
       <r>    1.8428    1.0000 </r>
       <r>    1.9704    1.0000 </r>
       <r>    2.0990    1.0000 </r>
       <r>    2.3364    1.0000 </r>
       <r>    2.4500    1.0000 </r>
       <r>    2.5418    1.0000 </r>
       <r>    2.8511    1.0000 </r>
       <r>    3.0537    1.0000 </r>
       <r>    3.2624    1.0000 </r>
       <r>    3.6734    1.0000 </r>
       <r>    3.7830    1.0000 </r>
       <r>    6.2619   -0.0000 </r>
       <r>    6.7997   -0.0000 </r>
       <r>    7.8155    0.0000 </r>
       <r>    8.1363    0.0000 </r>
       <r>    8.3380    0.0000 </r>
       <r>    8.9314    0.0000 </r>
       <r>    9.3380    0.0000 </r>
[...]
       <r>   11.7072    0.0000 </r>
       <r>   11.8956    0.0000 </r>
       <r>   12.2992    0.0000 </r>
       <r>   12.6567    0.0000 </r>
       <r>   13.0106    0.0000 </r>
       <r>   13.2319    0.0000 </r>
       <r>   13.6711    0.0000 </r>
       <r>   14.0774    0.0000 </r>
       <r>   14.3999    0.0000 </r>
       <r>   16.5504    0.0000 </r>
      </set>
      <set comment="kpoint 42">
       <r>  -68.6454    1.0000 </r>
       <r>  -68.6433    1.0000 </r>
       <r>  -68.6332    1.0000 </r>
       <r>  -68.6332    1.0000 </r>
       <r>  -68.6130    1.0000 </r>
       <r>  -68.6121    1.0000 </r>
       <r>  -68.5959    1.0000 </r>
       <r>  -68.5938    1.0000 </r>
       <r>  -68.5778    1.0000 </r>
       <r>  -68.5776    1.0000 </r>
       <r>  -68.5609    1.0000 </r>
       <r>  -68.5608    1.0000 </r>
       <r>  -12.1773    1.0000 </r>
       <r>  -11.7043    1.0000 </r>
       <r>  -10.7168    1.0000 </r>
       <r>  -10.6928    1.0000 </r>
       <r>  -10.5891    1.0000 </r>
       <r>  -10.3943    1.0000 </r>
       <r>   -5.4455    1.0000 </r>
       <r>   -5.0713    1.0000 </r>
       <r>   -2.5078    1.0000 </r>
       <r>   -2.3799    1.0000 </r>
       <r>   -1.9642    1.0000 </r>
       <r>   -1.3658    1.0000 </r>
       <r>   -1.3316    1.0000 </r>
       <r>   -1.0544    1.0000 </r>
       <r>   -0.8285    1.0000 </r>
       <r>   -0.7665    1.0000 </r>
       <r>   -0.4233    1.0000 </r>
       <r>   -0.3384    1.0000 </r>
       <r>   -0.2710    1.0000 </r>
       <r>   -0.2099    1.0000 </r>
       <r>   -0.1437    1.0000 </r>
       <r>   -0.1401    1.0000 </r>
       <r>   -0.0159    1.0000 </r>
       <r>    0.0283    1.0000 </r>
       <r>    1.1736    1.0000 </r>
       <r>    1.3714    1.0000 </r>
       <r>    1.3970    1.0000 </r>
       <r>    1.4531    1.0000 </r>
       <r>    1.4543    1.0000 </r>
       <r>    1.4993    1.0000 </r>
       <r>    1.5172    1.0000 </r>
       <r>    1.5494    1.0000 </r>
       <r>    1.7435    1.0000 </r>
       <r>    1.8218    1.0000 </r>
       <r>    1.9736    1.0000 </r>
       <r>    2.2270    1.0000 </r>
       <r>    2.3981    1.0000 </r>
       <r>    2.6120    1.0000 </r>
       <r>    2.6554    1.0000 </r>
       <r>    2.9156    1.0000 </r>
       <r>    3.0701    1.0000 </r>
       <r>    3.1173    1.0000 </r>
       <r>    3.2888    1.0000 </r>
       <r>    3.5830    1.0000 </r>
       <r>    6.2909   -0.0000 </r>
       <r>    6.3802   -0.0000 </r>
       <r>    7.3559    0.0000 </r>
       <r>    7.5260    0.0000 </r>
       <r>    8.3101    0.0000 </r>
       <r>    8.3346    0.0000 </r>
       <r>    9.1059    0.0000 </r>
       <r>    9.3592    0.0000 </r>
       <r>    9.7170    0.0000 </r>
       <r>    9.9486    0.0000 </r>
       <r>   10.5227    0.0000 </r>
       <r>   10.9895    0.0000 </r>
       <r>   11.4249    0.0000 </r>
       <r>   11.5632    0.0000 </r>
       <r>   12.0181    0.0000 </r>
       <r>   12.2853    0.0000 </r>
       <r>   12.4312    0.0000 </r>
       <r>   12.4769    0.0000 </r>
       <r>   13.0344    0.0000 </r>
       <r>   13.1498    0.0000 </r>
       <r>   14.1371    0.0000 </r>
       <r>   14.4347    0.0000 </r>
       <r>   15.1619    0.0000 </r>
       <r>   15.8688    0.0000 </r>
      </set>
     </set>
    </set>
   </array>
  </eigenvalues>
  <separator name="orbital magnetization" >
   <v name="MAGDIPOLOUT">      0.00000000      0.00000000      0.00000000</v>
  </separator>
  <dos>
   <i name="efermi">      4.21973946 </i>
   <total>
    <array>
     <dimension dim="1">gridpoints</dimension>
     <dimension dim="2">spin</dimension>
     <field>energy</field>
     <field>total</field>
     <field>integrated</field>
     <set>
      <set comment="spin 1">
       <r>   -72.8301     0.0000     0.0000 </r>
       <r>   -72.5238     0.0000     0.0000 </r>
       <r>   -72.2174     0.0000     0.0000 </r>
       <r>   -71.9110     0.0000     0.0000 </r>
       <r>   -71.6046     0.0000     0.0000 </r>
       <r>   -71.2982     0.0000     0.0000 </r>
       <r>   -70.9918     0.0000     0.0000 </r>
       <r>   -70.6855     0.0000     0.0000 </r>
       <r>   -70.3791     0.0000     0.0000 </r>
       <r>   -70.0727     0.0000     0.0000 </r>
       <r>   -69.7663     0.0000     0.0000 </r>
       <r>   -69.4599    -0.0000    -0.0000 </r>
       <r>   -69.1536    -0.0000    -0.0000 </r>
       <r>   -68.8472    -0.2119    -0.0649 </r>
       <r>   -68.5408    70.1546    21.4291 </r>
       <r>   -68.2344     8.3915    24.0001 </r>
       <r>   -67.9280    -0.0004    24.0000 </r>
       <r>   -67.6217     0.0000    24.0000 </r>
       <r>   -67.3153     0.0000    24.0000 </r>
       <r>   -67.0089     0.0000    24.0000 </r>
       <r>   -66.7025     0.0000    24.0000 </r>
       <r>   -66.3961     0.0000    24.0000 </r>
       <r>   -66.0898     0.0000    24.0000 </r>
       <r>   -65.7834     0.0000    24.0000 </r>
       <r>   -65.4770     0.0000    24.0000 </r>
       <r>   -65.1706     0.0000    24.0000 </r>
       <r>   -64.8642     0.0000    24.0000 </r>
       <r>   -64.5578     0.0000    24.0000 </r>
       <r>   -64.2515     0.0000    24.0000 </r>
       <r>   -63.9451     0.0000    24.0000 </r>
       <r>   -63.6387     0.0000    24.0000 </r>
       <r>   -63.3323     0.0000    24.0000 </r>
       <r>   -63.0259     0.0000    24.0000 </r>
       <r>   -62.7196     0.0000    24.0000 </r>
       <r>   -62.4132     0.0000    24.0000 </r>
       <r>   -62.1068     0.0000    24.0000 </r>
       <r>   -61.8004     0.0000    24.0000 </r>
       <r>   -61.4940     0.0000    24.0000 </r>
       <r>   -61.1877     0.0000    24.0000 </r>
       <r>   -60.8813     0.0000    24.0000 </r>
       <r>   -60.5749     0.0000    24.0000 </r>
       <r>   -60.2685     0.0000    24.0000 </r>
       <r>   -59.9621     0.0000    24.0000 </r>
       <r>   -59.6557     0.0000    24.0000 </r>
       <r>   -59.3494     0.0000    24.0000 </r>
       <r>   -59.0430     0.0000    24.0000 </r>
       <r>   -58.7366     0.0000    24.0000 </r>
       <r>   -58.4302     0.0000    24.0000 </r>
       <r>   -58.1238     0.0000    24.0000 </r>
       <r>   -57.8175     0.0000    24.0000 </r>
       <r>   -57.5111     0.0000    24.0000 </r>
       <r>   -57.2047     0.0000    24.0000 </r>
       <r>   -56.8983     0.0000    24.0000 </r>
       <r>   -56.5919     0.0000    24.0000 </r>
       <r>   -56.2856     0.0000    24.0000 </r>
       <r>   -55.9792     0.0000    24.0000 </r>
       <r>   -55.6728     0.0000    24.0000 </r>
       <r>   -55.3664     0.0000    24.0000 </r>
       <r>   -55.0600     0.0000    24.0000 </r>
       <r>   -54.7537     0.0000    24.0000 </r>
       <r>   -54.4473     0.0000    24.0000 </r>
       <r>   -54.1409     0.0000    24.0000 </r>
       <r>   -53.8345     0.0000    24.0000 </r>
       <r>   -53.5281     0.0000    24.0000 </r>
       <r>   -53.2217     0.0000    24.0000 </r>
       <r>   -52.9154     0.0000    24.0000 </r>
       <r>   -52.6090     0.0000    24.0000 </r>
       <r>   -52.3026     0.0000    24.0000 </r>
       <r>   -51.9962     0.0000    24.0000 </r>
       <r>   -51.6898     0.0000    24.0000 </r>
       <r>   -51.3835     0.0000    24.0000 </r>
       <r>   -51.0771     0.0000    24.0000 </r>
       <r>   -50.7707     0.0000    24.0000 </r>
       <r>   -50.4643     0.0000    24.0000 </r>
       <r>   -50.1579     0.0000    24.0000 </r>
       <r>   -49.8516     0.0000    24.0000 </r>
       <r>   -49.5452     0.0000    24.0000 </r>
       <r>   -49.2388     0.0000    24.0000 </r>
       <r>   -48.9324     0.0000    24.0000 </r>
       <r>   -48.6260     0.0000    24.0000 </r>
       <r>   -48.3197     0.0000    24.0000 </r>
       <r>   -48.0133     0.0000    24.0000 </r>
       <r>   -47.7069     0.0000    24.0000 </r>
       <r>   -47.4005     0.0000    24.0000 </r>
       <r>   -47.0941     0.0000    24.0000 </r>
       <r>   -46.7877     0.0000    24.0000 </r>
       <r>   -46.4814     0.0000    24.0000 </r>
       <r>   -46.1750     0.0000    24.0000 </r>
       <r>   -45.8686     0.0000    24.0000 </r>
       <r>   -45.5622     0.0000    24.0000 </r>
       <r>   -45.2558     0.0000    24.0000 </r>
       <r>   -44.9495     0.0000    24.0000 </r>
       <r>   -44.6431     0.0000    24.0000 </r>
       <r>   -44.3367     0.0000    24.0000 </r>
       <r>   -44.0303     0.0000    24.0000 </r>
       <r>   -43.7239     0.0000    24.0000 </r>
       <r>   -43.4176     0.0000    24.0000 </r>
       <r>   -43.1112     0.0000    24.0000 </r>
       <r>   -42.8048     0.0000    24.0000 </r>
       <r>   -42.4984     0.0000    24.0000 </r>
       <r>   -42.1920     0.0000    24.0000 </r>
       <r>   -41.8856     0.0000    24.0000 </r>
       <r>   -41.5793     0.0000    24.0000 </r>
       <r>   -41.2729     0.0000    24.0000 </r>
       <r>   -40.9665     0.0000    24.0000 </r>
       <r>   -40.6601     0.0000    24.0000 </r>
       <r>   -40.3537     0.0000    24.0000 </r>
       <r>   -40.0474     0.0000    24.0000 </r>
       <r>   -39.7410     0.0000    24.0000 </r>
       <r>   -39.4346     0.0000    24.0000 </r>
       <r>   -39.1282     0.0000    24.0000 </r>
       <r>   -38.8218     0.0000    24.0000 </r>
       <r>   -38.5155     0.0000    24.0000 </r>
       <r>   -38.2091     0.0000    24.0000 </r>
       <r>   -37.9027     0.0000    24.0000 </r>
       <r>   -37.5963     0.0000    24.0000 </r>
       <r>   -37.2899     0.0000    24.0000 </r>
       <r>   -36.9836     0.0000    24.0000 </r>
       <r>   -36.6772     0.0000    24.0000 </r>
       <r>   -36.3708     0.0000    24.0000 </r>
       <r>   -36.0644     0.0000    24.0000 </r>
       <r>   -35.7580     0.0000    24.0000 </r>
       <r>   -35.4516     0.0000    24.0000 </r>
       <r>   -35.1453     0.0000    24.0000 </r>
       <r>   -34.8389     0.0000    24.0000 </r>
       <r>   -34.5325     0.0000    24.0000 </r>
       <r>   -34.2261     0.0000    24.0000 </r>
       <r>   -33.9197     0.0000    24.0000 </r>
       <r>   -33.6134     0.0000    24.0000 </r>
       <r>   -33.3070     0.0000    24.0000 </r>
       <r>   -33.0006     0.0000    24.0000 </r>
       <r>   -32.6942     0.0000    24.0000 </r>
       <r>   -32.3878     0.0000    24.0000 </r>
       <r>   -32.0815     0.0000    24.0000 </r>
       <r>   -31.7751     0.0000    24.0000 </r>
       <r>   -31.4687     0.0000    24.0000 </r>
       <r>   -31.1623     0.0000    24.0000 </r>
       <r>   -30.8559     0.0000    24.0000 </r>
       <r>   -30.5496     0.0000    24.0000 </r>
       <r>   -30.2432     0.0000    24.0000 </r>
       <r>   -29.9368     0.0000    24.0000 </r>
       <r>   -29.6304     0.0000    24.0000 </r>
       <r>   -29.3240     0.0000    24.0000 </r>
       <r>   -29.0176     0.0000    24.0000 </r>
       <r>   -28.7113     0.0000    24.0000 </r>
       <r>   -28.4049     0.0000    24.0000 </r>
       <r>   -28.0985     0.0000    24.0000 </r>
       <r>   -27.7921     0.0000    24.0000 </r>
       <r>   -27.4857     0.0000    24.0000 </r>
       <r>   -27.1794     0.0000    24.0000 </r>
       <r>   -26.8730     0.0000    24.0000 </r>
       <r>   -26.5666     0.0000    24.0000 </r>
       <r>   -26.2602     0.0000    24.0000 </r>
       <r>   -25.9538     0.0000    24.0000 </r>
       <r>   -25.6475     0.0000    24.0000 </r>
       <r>   -25.3411     0.0000    24.0000 </r>
       <r>   -25.0347     0.0000    24.0000 </r>
       <r>   -24.7283     0.0000    24.0000 </r>
       <r>   -24.4219     0.0000    24.0000 </r>
       <r>   -24.1155     0.0000    24.0000 </r>
       <r>   -23.8092     0.0000    24.0000 </r>
       <r>   -23.5028     0.0000    24.0000 </r>
       <r>   -23.1964     0.0000    24.0000 </r>
       <r>   -22.8900     0.0000    24.0000 </r>
       <r>   -22.5836     0.0000    24.0000 </r>
       <r>   -22.2773     0.0000    24.0000 </r>
       <r>   -21.9709     0.0000    24.0000 </r>
       <r>   -21.6645     0.0000    24.0000 </r>
       <r>   -21.3581     0.0000    24.0000 </r>
       <r>   -21.0517     0.0000    24.0000 </r>
       <r>   -20.7454     0.0000    24.0000 </r>
       <r>   -20.4390     0.0000    24.0000 </r>
       <r>   -20.1326     0.0000    24.0000 </r>
       <r>   -19.8262     0.0000    24.0000 </r>
       <r>   -19.5198     0.0000    24.0000 </r>
       <r>   -19.2135     0.0000    24.0000 </r>
       <r>   -18.9071     0.0000    24.0000 </r>
       <r>   -18.6007     0.0000    24.0000 </r>
       <r>   -18.2943     0.0000    24.0000 </r>
       <r>   -17.9879     0.0000    24.0000 </r>
       <r>   -17.6815     0.0000    24.0000 </r>
       <r>   -17.3752     0.0000    24.0000 </r>
       <r>   -17.0688     0.0000    24.0000 </r>
       <r>   -16.7624     0.0000    24.0000 </r>
       <r>   -16.4560     0.0000    24.0000 </r>
       <r>   -16.1496     0.0000    24.0000 </r>
       <r>   -15.8433     0.0000    24.0000 </r>
       <r>   -15.5369     0.0000    24.0000 </r>
       <r>   -15.2305     0.0000    24.0000 </r>
       <r>   -14.9241     0.0000    24.0000 </r>
       <r>   -14.6177     0.0000    24.0000 </r>
       <r>   -14.3114     0.0000    24.0000 </r>
       <r>   -14.0050     0.0000    24.0000 </r>
       <r>   -13.6986    -0.0000    24.0000 </r>
       <r>   -13.3922    -0.0000    24.0000 </r>
       <r>   -13.0858    -0.0000    24.0000 </r>
       <r>   -12.7795    -0.0040    23.9988 </r>
       <r>   -12.4731     1.5287    24.4671 </r>
       <r>   -12.1667     3.5714    25.5614 </r>
       <r>   -11.8603     1.9160    26.1484 </r>
       <r>   -11.5539     2.1592    26.8099 </r>
       <r>   -11.2475     3.1947    27.7887 </r>
       <r>   -10.9412     2.4683    28.5450 </r>
       <r>   -10.6348     9.3760    31.4176 </r>
       <r>   -10.3284     9.4902    34.3252 </r>
       <r>   -10.0220     5.4831    36.0052 </r>
       <r>    -9.7156    -0.0168    36.0000 </r>
       <r>    -9.4093    -0.0000    36.0000 </r>
       <r>    -9.1029     0.0000    36.0000 </r>
       <r>    -8.7965     0.0000    36.0000 </r>
       <r>    -8.4901     0.0000    36.0000 </r>
       <r>    -8.1837     0.0000    36.0000 </r>
       <r>    -7.8774     0.0000    36.0000 </r>
       <r>    -7.5710     0.0000    36.0000 </r>
       <r>    -7.2646     0.0000    36.0000 </r>
       <r>    -6.9582    -0.0000    36.0000 </r>
       <r>    -6.6518    -0.0000    36.0000 </r>
       <r>    -6.3454    -0.0000    36.0000 </r>
       <r>    -6.0391     0.0582    36.0178 </r>
       <r>    -5.7327     3.4965    37.0891 </r>
       <r>    -5.4263     2.0454    37.7158 </r>
       <r>    -5.1199     1.8686    38.2882 </r>
       <r>    -4.8135     3.3038    39.3005 </r>
       <r>    -4.5072     2.2153    39.9792 </r>
       <r>    -4.2008     0.0679    40.0000 </r>
       <r>    -3.8944    -0.0000    40.0000 </r>
       <r>    -3.5880    -0.0000    40.0000 </r>
       <r>    -3.2816    -0.0000    40.0000 </r>
       <r>    -2.9753    -0.0004    39.9999 </r>
       <r>    -2.6689     0.3668    40.1123 </r>
       <r>    -2.3625     6.1335    41.9914 </r>
       <r>    -2.0561     6.7173    44.0495 </r>
       <r>    -1.7497     7.3521    46.3020 </r>
       <r>    -1.4434     6.4205    48.2691 </r>
       <r>    -1.1370     8.7250    50.9423 </r>
       <r>    -0.8306     9.0879    53.7267 </r>
       <r>    -0.5242    11.3231    57.1959 </r>
       <r>    -0.2178    18.1818    62.7664 </r>
       <r>     0.0886    28.9910    71.6487 </r>
       <r>     0.3949     1.1473    72.0002 </r>
       <r>     0.7013    -0.0007    72.0000 </r>
       <r>     1.0077    -0.0198    71.9939 </r>
       <r>     1.3141     7.3909    74.2584 </r>
       <r>     1.6205    44.8627    88.0034 </r>
       <r>     1.9268    13.7953    92.2300 </r>
       <r>     2.2332    13.1656    96.2637 </r>
       <r>     2.5396    12.8479   100.2000 </r>
       <r>     2.8460    11.1688   103.6220 </r>
       <r>     3.1524     9.0727   106.4017 </r>
       <r>     3.4587     7.9065   108.8241 </r>
       <r>     3.7651     6.9502   110.9535 </r>
       <r>     4.0715     3.1674   111.9239 </r>
       <r>     4.3779     0.2490   112.0002 </r>
       <r>     4.6843    -0.0006   112.0000 </r>
       <r>     4.9907    -0.0000   112.0000 </r>
       <r>     5.2970    -0.0001   112.0000 </r>
       <r>     5.6034     0.0766   112.0234 </r>
       <r>     5.9098     0.1670   112.0746 </r>
       <r>     6.2162     2.6329   112.8812 </r>
       <r>     6.5226     4.3731   114.2211 </r>
       <r>     6.8289     3.4472   115.2772 </r>
       <r>     7.1353     2.4259   116.0205 </r>
       <r>     7.4417     1.4354   116.4603 </r>
       <r>     7.7481     3.1683   117.4310 </r>
       <r>     8.0545     5.5617   119.1350 </r>
       <r>     8.3608     5.5603   120.8386 </r>
       <r>     8.6672     4.5834   122.2428 </r>
       <r>     8.9736     4.4786   123.6150 </r>
       <r>     9.2800     5.6064   125.3327 </r>
       <r>     9.5864     5.6978   127.0784 </r>
       <r>     9.8927     4.7847   128.5443 </r>
       <r>    10.1991     4.4549   129.9092 </r>
       <r>    10.5055     6.5092   131.9035 </r>
       <r>    10.8119     8.2849   134.4418 </r>
       <r>    11.1183     8.2477   136.9688 </r>
       <r>    11.4247     7.9775   139.4129 </r>
       <r>    11.7310     7.8841   141.8284 </r>
       <r>    12.0374     6.5858   143.8462 </r>
       <r>    12.3438     5.8616   145.6421 </r>
       <r>    12.6502     6.6519   147.6801 </r>
       <r>    12.9566     5.7978   149.4564 </r>
       <r>    13.2629     6.1688   151.3464 </r>
       <r>    13.5693     5.3632   152.9896 </r>
       <r>    13.8757     4.1116   154.2493 </r>
       <r>    14.1821     3.1728   155.2214 </r>
       <r>    14.4885     4.7124   156.6652 </r>
       <r>    14.7948     3.3126   157.6801 </r>
       <r>    15.1012     1.4219   158.1158 </r>
       <r>    15.4076     1.5849   158.6013 </r>
       <r>    15.7140     1.2169   158.9742 </r>
       <r>    16.0204     1.6882   159.4914 </r>
       <r>    16.3267     0.3330   159.5934 </r>
       <r>    16.6331     0.6808   159.8020 </r>
       <r>    16.9395     0.5193   159.9611 </r>
       <r>    17.2459     0.1269   160.0000 </r>
       <r>    17.5523    -0.0000   160.0000 </r>
       <r>    17.8587     0.0000   160.0000 </r>
       <r>    18.1650     0.0000   160.0000 </r>
       <r>    18.4714     0.0000   160.0000 </r>
       <r>    18.7778     0.0000   160.0000 </r>
       <r>    19.0842     0.0000   160.0000 </r>
      </set>
     </set>
    </array>
   </total>
  </dos>
 </calculation>
 <structure name="finalpos" >
  <crystal>
   <varray name="basis" >
    <v>       3.22479600      -5.64383000       0.03157200 </v>
    <v>       3.22479600       5.64383000       0.03157200 </v>
    <v>      -2.10194600       0.00000000       6.07553700 </v>
   </varray>
   <i name="volume">    221.90106089 </i>
   <varray name="rec_basis" >
    <v>       0.15452516      -0.08859232       0.05346088 </v>
    <v>       0.15452516       0.08859232       0.05346088 </v>
    <v>      -0.00160600       0.00000000       0.16403888 </v>
   </varray>
  </crystal>
  <varray name="positions" >
   <v>       0.61844300       0.11963260       0.11953300 </v>
   <v>       0.12117100       0.61844300       0.61953300 </v>
   <v>       0.96295700       0.79032200       0.11881300 </v>
   <v>       0.79032200       0.96295700       0.61881300 </v>
   <v>       0.43973200       0.26728100       0.59904700 </v>
   <v>       0.26728100       0.43973200       0.09904700 </v>
   <v>       0.07949800       0.91167500       0.49736300 </v>
   <v>       0.57140300       0.41236400       0.98018400 </v>
   <v>       0.73711100       0.25006200       0.49504900 </v>
   <v>       0.41236400       0.57140300       0.48018400 </v>
   <v>       0.91167500       0.07949800       0.99736300 </v>
   <v>       0.25006200       0.73711100       0.99504900 </v>
  </varray>
 </structure>
</modeling>
