  12
   1   1
     4.711271957141848    -0.835728797454793     0.046586152949585
    -0.845897168219726     4.079240712594530     0.296509546159490
     0.013340082767485     0.284226898470024     5.786261215157158
   1   2
    -0.081608801937700     0.032679965399173    -0.148821063333870
     0.002289664569184    -0.050154941143985    -0.002987908605938
    -0.149789780719795     0.059158183331079    -0.279903664994130
   1   3
    -0.166366855643220     0.171191985129999     0.010301133537507
    -0.099629490263702    -0.183882351127489     0.027276435400319
     0.009786495505161     0.040291903994757    -0.011773573545728
   1   4
    -0.081433658977398     0.016278695428270     0.097227863180680
     0.022625122340637    -0.058124425040598    -0.052373773534595
     0.096318565993285     0.125502491176593    -0.273240699669167
   1   5
    -0.106749758607351    -0.009997526610766     0.264587769868383
     0.068404592811418    -0.064875077181507     0.335256763389179
     0.402764061684385    -0.520055413293514    -0.620455530548499
   1   6
    -0.598665367331999    -0.548093882790945     0.117717980788968
     0.602077836912931    -0.361260235124966     0.062212247964227
     0.020611026565158    -0.024060550093229     0.112490892126129
   1   7
    -0.051789741497217    -0.033784917557851    -0.029446294114090
     0.013473086584663    -0.023040037663096     0.018355036128239
     0.018345377740047     0.016231452386531    -0.061008620171305
   1   8
    -0.504789176560016    -0.641777192229001     0.249793882475064
    -0.758954700119930    -0.964307551490165     0.170784732676404
     0.368946742531078     0.384145219708971    -0.281657669874158
   1   9
     0.044506146847549     0.175382674969722     0.068750221670476
     0.160649684490954    -0.040905871062079     0.039530978164965
    -0.358382687411143     0.373154662546052    -3.368714425024272
   1  10
    -0.038113251610070     0.053057018138374     0.037881651430621
    -0.027496130328172    -0.011565800605504     0.008328539696132
     0.004970377467561     0.030305298784858    -0.032528702120984
   1  11
    -0.506173915075771     1.270659845103902     0.518573951936864
     0.886018414539473    -2.316482323037387    -1.048993755560268
     0.411765827622014    -1.007111436457641    -0.498744413330346
   1  12
    -2.620088094461179     0.350132122149131    -1.233151236326411
    -0.023560625382046    -0.004642674989124     0.146101158121847
    -0.838674681623411     0.238212344029589    -0.470724640279612
   2   1
    -0.081608801937700    -0.032679965399173    -0.148821063333870
    -0.002289664569184    -0.050154941143985     0.002987908605938
    -0.149789780719795    -0.059158183331079    -0.279903664994130
   2   2
     4.711271957141848     0.835728797454793     0.046586152949585
     0.845897168219726     4.079240712594530    -0.296509546159490
     0.013340082767485    -0.284226898470024     5.786261215157158
   2   3
    -0.081433658977398    -0.016278695428270     0.097227863180680
    -0.022625122340637    -0.058124425040598     0.052373773534595
     0.096318565993285    -0.125502491176593    -0.273240699669167
   2   4
    -0.166366855643220    -0.171191985129999     0.010301133537507
     0.099629490263702    -0.183882351127489    -0.027276435400319
     0.009786495505161    -0.040291903994757    -0.011773573545728
   2   5
    -0.598665367331999     0.548093882790945     0.117717980788968
    -0.602077836912931    -0.361260235124966    -0.062212247964227
     0.020611026565158     0.024060550093229     0.112490892126129
   2   6
    -0.106749758607351     0.009997526610766     0.264587769868383
    -0.068404592811418    -0.064875077181507    -0.335256763389179
     0.402764061684385     0.520055413293514    -0.620455530548499
   2   7
    -0.506173915075771    -1.270659845103902     0.518573951936864
    -0.886018414539473    -2.316482323037387     1.048993755560268
     0.411765827622014     1.007111436457641    -0.498744413330346
   2   8
    -0.038113251610070    -0.053057018138374     0.037881651430621
     0.027496130328172    -0.011565800605504    -0.008328539696132
     0.004970377467561    -0.030305298784858    -0.032528702120984
   2   9
    -2.620088094461179    -0.350132122149131    -1.233151236326411
     0.023560625382046    -0.004642674989124    -0.146101158121847
    -0.838674681623411    -0.238212344029589    -0.470724640279612
   2  10
    -0.504789176560016     0.641777192229001     0.249793882475064
     0.758954700119930    -0.964307551490165    -0.170784732676404
     0.368946742531078    -0.384145219708971    -0.281657669874158
   2  11
    -0.051789741497217     0.033784917557851    -0.029446294114090
    -0.013473086584663    -0.023040037663096    -0.018355036128239
     0.018345377740047    -0.016231452386531    -0.061008620171305
   2  12
     0.044506146847549    -0.175382674969722     0.068750221670476
    -0.160649684490954    -0.040905871062079    -0.039530978164965
    -0.358382687411143    -0.373154662546052    -3.368714425024272
   3   1
    -0.211672453757237    -0.124143632701196     0.012109389791397
     0.148458775512752    -0.252777874282275     0.003173051251560
     0.017567791642612    -0.001252118401899    -0.037783879324417
   3   2
    -0.124152341414230    -0.008945576725999     0.095664529878471
    -0.004907863755248    -0.129720784923118    -0.104244235491356
     0.101551085033470     0.064326585509185    -0.311622814379091
   3   3
     4.082308669729946     0.073154909134146    -0.594798711272012
     0.040513990594441     6.088525892706965     0.107159008433238
    -0.638128855885920     0.144490495570339     5.798342100439257
   3   4
    -0.161037113312678    -0.005798299195498     0.087500984105096
    -0.006621369018228    -0.126054787778394     0.073083547696886
     0.095773407590360    -0.092327591730301    -0.304062931062184
   3   5
     0.093191024679748    -0.072879694928024    -0.600038869013084
    -0.040508231880735    -0.248040180517015     0.055721889682792
    -0.759555881208211    -0.031672024481184    -0.607825855706927
   3   6
    -0.467323478161095     0.454679198480463    -0.036393376984164
    -0.699288667420453    -0.609890107925392    -0.059998598415952
    -0.018199173538921    -0.097482265818380     0.096695392986954
   3   7
    -0.305350167160320     0.006490096669250     0.046276670309495
    -0.014634331203315     0.046746934373253    -0.061070870907858
     0.708913209596900    -0.042158034734546    -3.061486546097906
   3   8
    -1.443048233507175    -0.272601857501554    -0.146223497603973
     0.008130439944673     0.031438833666431    -0.141348203765268
    -0.430830819698286    -0.136058630993661    -0.415564797898169
   3   9
    -0.112555628246126     0.045950240878666    -0.002110217901547
    -0.033256571647474    -0.114617982359886    -0.033071141066167
     0.032285344842805    -0.008359823143647    -0.095657255349075
   3  10
    -0.052802334927437    -0.006147180017798    -0.005312499536339
     0.095212556851821    -0.113139720551763     0.033250237062399
     0.045646258799853    -0.001000325052064    -0.099638038630773
   3  11
    -0.475587724565745    -1.032087261236087     0.471011544891465
    -0.930440268254256    -2.491059744560030     1.115386829674464
     0.219224044462184     0.881913416206197    -0.470814632604105
   3  12
    -0.821970234844829     0.942330051269539     0.672315560011235
     1.437341540276023    -2.081411053720146    -0.988041802090422
     0.625755170239260    -0.680418280837409    -0.490580221110722
   4   1
    -0.124152341414230     0.008945576725999     0.095664529878471
     0.004907863755248    -0.129720784923118     0.104244235491356
     0.101551085033470    -0.064326585509185    -0.311622814379091
   4   2
    -0.211672453757237     0.124143632701196     0.012109389791397
    -0.148458775512752    -0.252777874282275    -0.003173051251560
     0.017567791642612     0.001252118401899    -0.037783879324417
   4   3
    -0.161037113312678     0.005798299195498     0.087500984105096
     0.006621369018228    -0.126054787778394    -0.073083547696886
     0.095773407590360     0.092327591730301    -0.304062931062184
   4   4
     4.082308669729946    -0.073154909134146    -0.594798711272012
    -0.040513990594441     6.088525892706965    -0.107159008433238
    -0.638128855885920    -0.144490495570339     5.798342100439257
   4   5
    -0.467323478161095    -0.454679198480463    -0.036393376984164
     0.699288667420453    -0.609890107925392     0.059998598415952
    -0.018199173538921     0.097482265818380     0.096695392986954
   4   6
     0.093191024679748     0.072879694928024    -0.600038869013084
     0.040508231880735    -0.248040180517015    -0.055721889682792
    -0.759555881208211     0.031672024481184    -0.607825855706927
   4   7
    -0.475587724565745     1.032087261236087     0.471011544891465
     0.930440268254256    -2.491059744560030    -1.115386829674464
     0.219224044462184    -0.881913416206197    -0.470814632604105
   4   8
    -0.052802334927437     0.006147180017798    -0.005312499536339
    -0.095212556851821    -0.113139720551763    -0.033250237062399
     0.045646258799853     0.001000325052064    -0.099638038630773
   4   9
    -0.821970234844829    -0.942330051269539     0.672315560011235
    -1.437341540276023    -2.081411053720146     0.988041802090422
     0.625755170239260     0.680418280837409    -0.490580221110722
   4  10
    -1.443048233507175     0.272601857501554    -0.146223497603973
    -0.008130439944673     0.031438833666431     0.141348203765268
    -0.430830819698286     0.136058630993661    -0.415564797898169
   4  11
    -0.305350167160320    -0.006490096669250     0.046276670309495
     0.014634331203315     0.046746934373253     0.061070870907858
     0.708913209596900     0.042158034734546    -3.061486546097906
   4  12
    -0.112555628246126    -0.045950240878666    -0.002110217901547
     0.033256571647474    -0.114617982359886     0.033071141066167
     0.032285344842805     0.008359823143647    -0.095657255349075
   5   1
    -0.035989031021491     0.047320927155096     0.388210226371232
    -0.027082366748454    -0.005373167822628    -0.538062823623294
     0.250060523429877     0.305564572990661    -0.495145083239031
   5   2
    -0.523437537246607    -0.576066928139041     0.008435803816035
     0.563548299061299    -0.301522506439859     0.041693087225578
     0.115815520388791    -0.036250412533739     0.246129360734798
   5   3
     0.209756777734559    -0.037377524497105    -0.771855733111752
    -0.065898400606920    -0.115043263367014    -0.017832432859493
    -0.614766599652179     0.065758853446793    -0.451443896477046
   5   4
    -0.355126081949754     0.691745677423911    -0.033851378703059
    -0.458938385249664    -0.477583084677273     0.084250845313991
    -0.048277337533411     0.051546769947726     0.256031608227798
   5   5
    18.379527032571367    -2.411668239018942     0.896862006793085
    -2.411234182792791    14.901875859215808     1.162640530853774
     0.901175511212847     1.162138006064403    11.802852176229335
   5   6
     0.033267559477223    -0.140869281334347     1.390064727264275
     0.140207114644584     0.061473692931537     1.460707521134833
     1.390468439564170    -1.460282778880630    -1.816090896127499
   5   7
   -10.582316571836808     0.202004460771214    -2.833644073894240
     0.329641729590932    -0.712690633890857     0.004532683557355
    -2.823696024472105     0.028515973677590    -1.849266750071866
   5   8
    -1.158278680567391     0.268856177078310    -0.528460031135674
     0.284068709006482    -1.015843144244970     0.010718405883786
    -0.887301227056133     0.759327225946846    -5.473289601752183
   5   9
    -3.652633842810912     4.463531213757072     1.454419639993886
     4.333641968270298    -7.705137054432619    -2.219041431917343
     1.341445612616400    -2.405935402019920    -1.581532476271467
   5  10
    -2.307233351983138    -2.511566674272821     0.246910802064798
    -2.594383737601297    -4.925566904985294     0.445844509962487
     0.428291858322823     1.201004367161114    -1.020931711460278
   5  11
    -0.066779942106522    -0.165002586624145    -0.158465513894898
    -0.148632688666648     0.117458467894971    -0.130384764613326
    -0.039004156735480     0.008897172112042     0.209158852656185
   5  12
     0.059242168225826     0.169091271024762    -0.058627977077334
     0.055060501413751     0.177951451882514    -0.305065842982662
    -0.014213168640474     0.319715130824274     0.173527368996379
   6   1
    -0.523437537246607     0.576066928139041     0.008435803816035
    -0.563548299061299    -0.301522506439859    -0.041693087225578
     0.115815520388791     0.036250412533739     0.246129360734798
   6   2
    -0.035989031021491    -0.047320927155096     0.388210226371232
     0.027082366748454    -0.005373167822628     0.538062823623294
     0.250060523429877    -0.305564572990661    -0.495145083239031
   6   3
    -0.355126081949754    -0.691745677423911    -0.033851378703059
     0.458938385249664    -0.477583084677273    -0.084250845313991
    -0.048277337533411    -0.051546769947726     0.256031608227798
   6   4
     0.209756777734559     0.037377524497105    -0.771855733111752
     0.065898400606920    -0.115043263367014     0.017832432859493
    -0.614766599652179    -0.065758853446793    -0.451443896477046
   6   5
     0.033267559477223     0.140869281334347     1.390064727264275
    -0.140207114644584     0.061473692931537    -1.460707521134833
     1.390468439564170     1.460282778880630    -1.816090896127499
   6   6
    18.379527032571367     2.411668239018942     0.896862006793085
     2.411234182792791    14.901875859215808    -1.162640530853774
     0.901175511212847    -1.162138006064403    11.802852176229335
   6   7
    -0.066779942106522     0.165002586624145    -0.158465513894898
     0.148632688666648     0.117458467894971     0.130384764613326
    -0.039004156735480    -0.008897172112042     0.209158852656185
   6   8
    -2.307233351983138     2.511566674272821     0.246910802064798
     2.594383737601297    -4.925566904985294    -0.445844509962487
     0.428291858322823    -1.201004367161114    -1.020931711460278
   6   9
     0.059242168225826    -0.169091271024762    -0.058627977077334
    -0.055060501413751     0.177951451882514     0.305065842982662
    -0.014213168640474    -0.319715130824274     0.173527368996379
   6  10
    -1.158278680567391    -0.268856177078310    -0.528460031135674
    -0.284068709006482    -1.015843144244970    -0.010718405883786
    -0.887301227056133    -0.759327225946846    -5.473289601752183
   6  11
   -10.582316571836808    -0.202004460771214    -2.833644073894240
    -0.329641729590932    -0.712690633890857    -0.004532683557355
    -2.823696024472105    -0.028515973677590    -1.849266750071866
   6  12
    -3.652633842810912    -4.463531213757072     1.454419639993886
    -4.333641968270298    -7.705137054432619     2.219041431917343
     1.341445612616400     2.405935402019920    -1.581532476271467
   7   1
     0.023021824656977    -0.002462831133951     0.005495257195745
    -0.055218290169274     0.041139098967139    -0.018448327290263
    -0.032215472217361    -0.003948756529326     0.078037107667921
   7   2
    -0.432117149919091    -0.872738623741709     0.397459248786967
    -1.253248420226924    -2.255270363643752     1.048237924386462
     0.508199491698243     1.072354781018968    -0.379072225762865
   7   3
    -0.188276634343714    -0.014179568526269     0.688337241508940
     0.012970638813885     0.177452171404274    -0.028508800133230
     0.033366978082235    -0.051514290526589    -2.899227294631379
   7   4
    -0.356143122986784     0.932425028324275     0.206952856694496
     1.029357981503996    -2.364875673658954    -0.894648422898071
     0.454817673300824    -1.129163236087439    -0.313701875498237
   7   5
   -10.583153546661409     0.330357557667777    -2.820788708897246
     0.202474358324695    -0.713552713332524     0.027530682610403
    -2.833120124353973     0.005353576111548    -1.849287259622574
   7   6
    -0.067977717536836     0.148889984590980    -0.037732484049084
     0.164760830205090     0.116223223805208    -0.009727619190808
    -0.157703473774510     0.131214247936713     0.212627161098406
   7   7
    14.761613987270406    -0.215952993778829     1.558658846271572
    -0.215084213724950     8.353960961911749     0.028762759407629
     1.561573976733034     0.027418123374045     8.581578239538496
   7   8
    -0.304709446930438    -0.051292525815340    -0.603457354709912
    -0.014020740258027     0.020716972554422     0.003537001957728
    -0.670650973506546    -0.135795625034393    -0.979774811076302
   7   9
    -1.422908797617025    -0.274470426174588    -0.079952337702293
     0.635149265914783    -1.069960080418126     0.023842802353600
     0.067000607668777    -0.011187676113511     0.078789494964188
   7  10
    -1.279767174714183     0.044680391844517     0.024645942408622
    -0.388611533803453    -1.203828290951722     0.037816033223559
     0.138360834404377     0.119233507133954    -0.072102125129191
   7  11
    -0.034511012715023     0.053646883640682     0.509868562187342
    -0.051823528440064    -0.523428204484294    -0.162522130252197
     0.509940222676711     0.161787397026050    -1.397689060197548
   7  12
    -0.115070204052190    -0.078903373960498     0.150512428079505
    -0.066706348139758    -0.578577390089105    -0.055871040367757
     0.420430606796752    -0.185752749356335    -1.060177525105195
   8   1
    -0.433694312688436    -0.783135194292453     0.359301452629967
    -0.659377614150946    -0.905714655089650     0.362948977919013
     0.235696079079925     0.150575122022400    -0.159187761889587
   8   2
     0.036352409914366     0.043458391106095    -0.006313698310596
    -0.037835036978786     0.049297468673282    -0.007266344953209
     0.032359026904931     0.015155875464791     0.107627396623374
   8   3
    -1.322713561429341     0.010794946861631    -0.447687756690392
    -0.263711080187264     0.167231606320302    -0.122915137066324
    -0.161279889531707    -0.133654689522820    -0.259778349061839
   8   4
     0.072746863355048    -0.091902495358648     0.027626882062871
    -0.001561763156848     0.019482304336029    -0.009160673826532
    -0.012768871273477    -0.040619885322134     0.062371139344008
   8   5
    -1.158407737309536     0.284433445887942    -0.887775736828770
     0.269404432491900    -1.015013025664367     0.760149345278072
    -0.528796552073127     0.010581302653177    -5.474421127301293
   8   6
    -2.307553013357919     2.596024305056232     0.428478257741835
     2.509971648303560    -4.925299412733688    -1.201083975935513
     0.245739806441546    -0.444584328792099    -1.022602252691396
   8   7
    -0.303013877447234    -0.013318144084930    -0.670956107156961
    -0.051951659820004     0.023265779240340    -0.135715605890221
    -0.602436543398110     0.005391384503531    -0.982469946885588
   8   8
     7.789615260961869    -2.196702728755981     0.020670538163101
    -2.196885356807994     9.719084201225092     0.745476718628617
     0.021356428796414     0.743720230234215    10.121163671145283
   8   9
    -0.055693566192649     0.024130799258188     0.558002600056078
     0.049065680446648    -0.417752064830142    -0.456141378003052
     0.272708256186863     0.147952098276538    -1.041247441235406
   8  10
     0.033666184238257    -0.052566005559023     0.424917523391764
     0.054412646121917     0.019087256575853     0.290466927868634
     0.425220361953611    -0.289432349320079    -1.128377335193348
   8  11
    -1.277424616268966     0.388637548648443     0.139268611141517
    -0.045017016776214    -1.201651209235474    -0.119082713095520
     0.023496304364665    -0.037922472718217    -0.072828674759860
   8  12
    -1.073880530838414    -0.209852859866110     0.054466434511285
     0.373484832578344    -1.532017672946205    -0.107675565052594
     0.048704891502150    -0.127161592462182    -0.150250192894946
   9   1
     0.126530288892061     0.139551321215171    -0.371028920177579
     0.158376144320145     0.020353021848254     0.348201487991391
     0.061004425114183     0.015238414379776    -3.234014016382641
   9   2
    -2.559921636645887     0.040282581600927    -0.863625740098811
    -0.332013167894731     0.059758460054446    -0.214297573432823
    -1.253036783453232    -0.125921038266630    -0.352262503969602
   9   3
     0.007979860490305    -0.026944227125540     0.012358000165499
     0.052237292019782     0.016811988790933     0.002413476913845
    -0.011599983400239    -0.023132914567650     0.072090062582148
   9   4
    -0.702491649124208    -1.446192742152073     0.614907770770962
    -0.951082665466196    -1.951028016720932     0.671362649114188
     0.658219447400682     0.980571562155604    -0.338895368245765
   9   5
    -3.653200739559852     4.335197789510921     1.344092290166544
     4.462343748803283    -7.705486896290209    -2.406949411860446
     1.453857400605447    -2.217448350775218    -1.583003851032326
   9   6
     0.058761877789452    -0.055106947409723    -0.013114172581563
    -0.168883781282321     0.177494785885692    -0.320110194601787
    -0.057392851487319     0.304615681745215     0.175208183206460
   9   7
    -1.421783923698965     0.635162580749392     0.068490368420819
    -0.277194820392282    -1.070047036995074    -0.013382386843807
    -0.078417786039946     0.023053704518511     0.077906453273317
   9   8
    -0.056078622665501     0.048383784940021     0.272427613999669
     0.025410900095523    -0.419634300404684     0.147672711091993
     0.558638552458080    -0.457406195970055    -1.040592958088396
   9   9
    10.047101256307975    -3.310490968988677    -0.722289906901885
    -3.312077254023536    12.930297008830848     1.408293436604302
    -0.724438999977396     1.407433926608544     8.725459280263880
   9  10
    -1.074706493329110    -0.373889898165272     0.051933401578395
     0.211622362981076    -1.532994926661976     0.127104889222535
     0.053700391498350     0.105788700477138    -0.150219703358629
   9  11
    -0.115760663383993     0.066321176840015     0.419189685966107
     0.078593772905697    -0.577641599112011     0.184829659531993
     0.151705776109547     0.053075521840078    -1.061237055518418
   9  12
    -0.656427541008500    -0.052273948789812    -0.813341897984196
     0.052667467933559     0.052117798710399     0.064860968332929
    -0.812239421103071    -0.065868838391031    -1.290439043992868
  10   1
     0.036352409914366    -0.043458391106095    -0.006313698310596
     0.037835036978786     0.049297468673282     0.007266344953209
     0.032359026904931    -0.015155875464791     0.107627396623374
  10   2
    -0.433694312688436     0.783135194292453     0.359301452629967
     0.659377614150946    -0.905714655089650    -0.362948977919013
     0.235696079079925    -0.150575122022400    -0.159187761889587
  10   3
     0.072746863355048     0.091902495358648     0.027626882062871
     0.001561763156848     0.019482304336029     0.009160673826532
    -0.012768871273477     0.040619885322134     0.062371139344008
  10   4
    -1.322713561429341    -0.010794946861631    -0.447687756690392
     0.263711080187264     0.167231606320302     0.122915137066324
    -0.161279889531707     0.133654689522820    -0.259778349061839
  10   5
    -2.307553013357919    -2.596024305056232     0.428478257741835
    -2.509971648303560    -4.925299412733688     1.201083975935513
     0.245739806441546     0.444584328792099    -1.022602252691396
  10   6
    -1.158407737309536    -0.284433445887942    -0.887775736828770
    -0.269404432491900    -1.015013025664367    -0.760149345278072
    -0.528796552073127    -0.010581302653177    -5.474421127301293
  10   7
    -1.277424616268966    -0.388637548648443     0.139268611141517
     0.045017016776214    -1.201651209235474     0.119082713095520
     0.023496304364665     0.037922472718217    -0.072828674759860
  10   8
     0.033666184238257     0.052566005559023     0.424917523391764
    -0.054412646121917     0.019087256575853    -0.290466927868634
     0.425220361953611     0.289432349320079    -1.128377335193348
  10   9
    -1.073880530838414     0.209852859866110     0.054466434511285
    -0.373484832578344    -1.532017672946205     0.107675565052594
     0.048704891502150     0.127161592462182    -0.150250192894946
  10  10
     7.789615260961869     2.196702728755981     0.020670538163101
     2.196885356807994     9.719084201225092    -0.745476718628617
     0.021356428796414    -0.743720230234215    10.121163671145283
  10  11
    -0.303013877447234     0.013318144084930    -0.670956107156961
     0.051951659820004     0.023265779240340     0.135715605890221
    -0.602436543398110    -0.005391384503531    -0.982469946885588
  10  12
    -0.055693566192649    -0.024130799258188     0.558002600056078
    -0.049065680446648    -0.417752064830142     0.456141378003052
     0.272708256186863    -0.147952098276538    -1.041247441235406
  11   1
    -0.432117149919091     0.872738623741709     0.397459248786967
     1.253248420226924    -2.255270363643752    -1.048237924386462
     0.508199491698243    -1.072354781018968    -0.379072225762865
  11   2
     0.023021824656977     0.002462831133951     0.005495257195745
     0.055218290169274     0.041139098967139     0.018448327290263
    -0.032215472217361     0.003948756529326     0.078037107667921
  11   3
    -0.356143122986784    -0.932425028324275     0.206952856694496
    -1.029357981503996    -2.364875673658954     0.894648422898071
     0.454817673300824     1.129163236087439    -0.313701875498237
  11   4
    -0.188276634343714     0.014179568526269     0.688337241508940
    -0.012970638813885     0.177452171404274     0.028508800133230
     0.033366978082235     0.051514290526589    -2.899227294631379
  11   5
    -0.067977717536836    -0.148889984590980    -0.037732484049084
    -0.164760830205090     0.116223223805208     0.009727619190808
    -0.157703473774510    -0.131214247936713     0.212627161098406
  11   6
   -10.583153546661409    -0.330357557667777    -2.820788708897246
    -0.202474358324695    -0.713552713332524    -0.027530682610403
    -2.833120124353973    -0.005353576111548    -1.849287259622574
  11   7
    -0.034511012715023    -0.053646883640682     0.509868562187342
     0.051823528440064    -0.523428204484294     0.162522130252197
     0.509940222676711    -0.161787397026050    -1.397689060197548
  11   8
    -1.279767174714183    -0.044680391844517     0.024645942408622
     0.388611533803453    -1.203828290951722    -0.037816033223559
     0.138360834404377    -0.119233507133954    -0.072102125129191
  11   9
    -0.115070204052190     0.078903373960498     0.150512428079505
     0.066706348139758    -0.578577390089105     0.055871040367757
     0.420430606796752     0.185752749356335    -1.060177525105195
  11  10
    -0.304709446930438     0.051292525815340    -0.603457354709912
     0.014020740258027     0.020716972554422    -0.003537001957728
    -0.670650973506546     0.135795625034393    -0.979774811076302
  11  11
    14.761613987270406     0.215952993778829     1.558658846271572
     0.215084213724950     8.353960961911749    -0.028762759407629
     1.561573976733034    -0.027418123374045     8.581578239538496
  11  12
    -1.422908797617025     0.274470426174588    -0.079952337702293
    -0.635149265914783    -1.069960080418126    -0.023842802353600
     0.067000607668777     0.011187676113511     0.078789494964188
  12   1
    -2.559921636645887    -0.040282581600927    -0.863625740098811
     0.332013167894731     0.059758460054446     0.214297573432823
    -1.253036783453232     0.125921038266630    -0.352262503969602
  12   2
     0.126530288892061    -0.139551321215171    -0.371028920177579
    -0.158376144320145     0.020353021848254    -0.348201487991391
     0.061004425114183    -0.015238414379776    -3.234014016382641
  12   3
    -0.702491649124208     1.446192742152073     0.614907770770962
     0.951082665466196    -1.951028016720932    -0.671362649114188
     0.658219447400682    -0.980571562155604    -0.338895368245765
  12   4
     0.007979860490305     0.026944227125540     0.012358000165499
    -0.052237292019782     0.016811988790933    -0.002413476913845
    -0.011599983400239     0.023132914567650     0.072090062582148
  12   5
     0.058761877789452     0.055106947409723    -0.013114172581563
     0.168883781282321     0.177494785885692     0.320110194601787
    -0.057392851487319    -0.304615681745215     0.175208183206460
  12   6
    -3.653200739559852    -4.335197789510921     1.344092290166544
    -4.462343748803283    -7.705486896290209     2.406949411860446
     1.453857400605447     2.217448350775218    -1.583003851032326
  12   7
    -0.115760663383993    -0.066321176840015     0.419189685966107
    -0.078593772905697    -0.577641599112011    -0.184829659531993
     0.151705776109547    -0.053075521840078    -1.061237055518418
  12   8
    -1.074706493329110     0.373889898165272     0.051933401578395
    -0.211622362981076    -1.532994926661976    -0.127104889222535
     0.053700391498350    -0.105788700477138    -0.150219703358629
  12   9
    -0.656427541008500     0.052273948789812    -0.813341897984196
    -0.052667467933559     0.052117798710399    -0.064860968332929
    -0.812239421103071     0.065868838391031    -1.290439043992868
  12  10
    -0.056078622665501    -0.048383784940021     0.272427613999669
    -0.025410900095523    -0.419634300404684    -0.147672711091993
     0.558638552458080     0.457406195970055    -1.040592958088396
  12  11
    -1.421783923698965    -0.635162580749392     0.068490368420819
     0.277194820392282    -1.070047036995074     0.013382386843807