   12   12    1    1
  0.1849176E+02  0.6500240E-09  0.6500240E-09  0.6428867E-09  0.5000000E-15
  1.000000000000000E-004
  CAR 
 CGS                                     
  112   42   80
 
  0.0000000E+00  0.0000000E+00  0.0000000E+00  0.1250000E-01
   1      -68.650288
   2      -68.645186
   3      -68.634282
   4      -68.625293
   5      -68.617415
   6      -68.613047
   7      -68.599774
   8      -68.595709
   9      -68.578955
  10      -68.569719
  11      -68.561773
  12      -68.551424
  13      -12.723102
  14      -11.133529
  15      -10.918309
  16      -10.604967
  17      -10.250476
  18      -10.237396
  19       -5.983961
  20       -4.985027
  21       -2.761287
  22       -2.211613
  23       -2.068849
  24       -1.926115
  25       -1.576045
  26       -0.983630
  27       -0.946297
  28       -0.685846
  29       -0.404342
  30       -0.275510
  31       -0.260339
  32       -0.231473
  33       -0.188441
  34       -0.153988
  35       -0.039663
  36        0.030731
  37        1.350507
  38        1.362769
  39        1.414767
  40        1.459053
  41        1.471818
  42        1.475336
  43        1.520841
  44        1.533353
  45        1.574941
  46        1.713592
  47        1.890945
  48        1.927195
  49        2.059782
  50        2.653871
  51        2.726931
  52        3.091646
  53        3.216633
  54        4.004215
  55        4.037064
  56        4.169368
  57        5.540773
  58        6.362229
  59        7.629013
  60        7.987296
  61        8.618930
  62        8.793217
  63        9.573394
  64        9.740136
  65        9.816604
  66       10.421502
  67       10.575774
  68       10.697840
  69       10.718532
  70       11.282418
  71       11.714265
  72       12.390309
  73       12.448050
  74       12.728605
  75       13.314553
  76       13.386666
  77       13.828310
  78       13.886276
  79       14.148745
  80       14.182941
 
  0.2500000E+00  0.7372575E-17  0.1387779E-16  0.2500000E-01
   1      -68.650241
   2      -68.645161
   3      -68.634258
   4      -68.625253
   5      -68.617307
   6      -68.612944
   7      -68.599800
   8      -68.595708
   9      -68.578885
  10      -68.569663
  11      -68.561740
  12      -68.551394
  13      -12.598371
  14      -11.130631
  15      -10.982994
  16      -10.680876
  17      -10.366071
  18      -10.278072
  19       -5.932411
  20       -4.774762
  21       -2.646600
  22       -2.255061
  23       -2.086060
  24       -1.690269
  25       -1.346398
  26       -0.998861
  27       -0.767055
  28       -0.624017
  29       -0.552437
  30       -0.437800
  31       -0.357626
  32       -0.240522
  33       -0.195326
  34       -0.165546
  35       -0.044999
  36        0.038876
  37        1.279889
  38        1.338496
  39        1.356061
  40        1.391625
  41        1.427668
  42        1.472148
  43        1.499947
  44        1.530551
  45        1.726724
  46        1.858152
  47        2.057228
  48        2.095385
  49        2.231877
  50        2.413820
  51        2.555858
  52        2.826080
  53        2.947212
  54        3.242155
  55        3.660603
  56        4.037247
  57        6.171043
  58        6.909100
  59        8.136482
  60        8.268299
  61        8.598236
  62        9.020531
  63        9.244431
  64        9.529828
  65        9.866146
  66       10.378673
  67       10.632606
  68       10.810322
  69       10.936077
  70       11.192367
  71       11.654765
  72       11.772483
  73       12.114181
  74       12.439893
  75       12.617508
  76       13.009890
  77       13.504465
  78       13.875344
  79       14.209618
  80       14.712229
 
  0.5000000E+00  0.1474515E-16  0.2775558E-16  0.1250000E-01
   1      -68.650123
   2      -68.644992
   3      -68.634178
   4      -68.625177
   5      -68.617259
   6      -68.612930
   7      -68.599710
   8      -68.595643
   9      -68.578827
  10      -68.569645
  11      -68.561627
  12      -68.551229
  13      -12.439456
  14      -11.250034
  15      -10.958157
  16      -10.770566
  17      -10.426470
  18      -10.358219
  19       -5.870348
  20       -4.550110
  21       -2.496180
  22       -2.244941
  23       -1.944426
  24       -1.465126
  25       -1.226861
  26       -1.105234
  27       -0.901341
  28       -0.863129
  29       -0.600189
  30       -0.538837
  31       -0.274724
  32       -0.202341
  33       -0.193821
  34       -0.145564
  35       -0.027643
  36        0.079645
  37        1.256251
  38        1.329736
  39        1.346595
  40        1.398186
  41        1.470026
  42        1.481993
  43        1.501420
  44        1.552772
  45        1.753815
  46        1.791436
  47        1.971192
  48        2.146579
  49        2.322306
  50        2.362913
  51        2.555073
  52        2.669539
  53        2.936251
  54        3.080440
  55        3.244309
  56        3.859198
  57        6.385861
  58        7.100881
  59        7.990506
  60        8.202528
  61        8.517599
  62        8.822098
  63        9.327690
  64        9.884432
  65       10.014722
  66       10.519746
  67       10.690244
  68       10.795022
  69       11.140161
  70       11.404660
  71       11.613435
  72       11.772594
  73       11.939750
  74       12.499909
  75       12.779406
  76       12.996603
  77       13.401225
  78       13.540754
  79       13.943978
  80       14.270865
 
  0.7372575E-17  0.2500000E+00  0.1387779E-16  0.2500000E-01
   1      -68.650266
   2      -68.645139
   3      -68.634244
   4      -68.625269
   5      -68.617310
   6      -68.612940
   7      -68.599771
   8      -68.595735
   9      -68.578901
  10      -68.569653
  11      -68.561737
  12      -68.551388
  13      -12.597950
  14      -11.133296
  15      -10.982901
  16      -10.677591
  17      -10.365930
  18      -10.279602
  19       -5.932459
  20       -4.773100
  21       -2.646870
  22       -2.254574
  23       -2.086297
  24       -1.689888
  25       -1.346894
  26       -1.000108
  27       -0.768145
  28       -0.621176
  29       -0.554915
  30       -0.439413
  31       -0.358126
  32       -0.241141
  33       -0.193731
  34       -0.162230
  35       -0.046888
  36        0.038826
  37        1.279358
  38        1.336505
  39        1.355804
  40        1.393792
  41        1.426634
  42        1.472580
  43        1.497939
  44        1.532922
  45        1.725787
  46        1.860501
  47        2.057883
  48        2.092063
  49        2.231437
  50        2.413855
  51        2.556326
  52        2.827239
  53        2.947828
  54        3.241853
  55        3.659933
  56        4.037368
  57        6.172773
  58        6.910270
  59        8.140499
  60        8.269806
  61        8.593226
  62        9.012162
  63        9.243277
  64        9.539640
  65        9.862833
  66       10.378274
  67       10.634682
  68       10.813431
  69       10.937590
  70       11.190196
  71       11.656413
  72       11.769681
  73       12.115505
  74       12.441388
  75       12.618726
  76       13.008054
  77       13.517789
  78       13.894598
  79       14.273579
  80       14.842264
 
  0.2500000E+00  0.2500000E+00  0.0000000E+00  0.2500000E-01
   1      -68.650265
   2      -68.645162
   3      -68.634145
   4      -68.625152
   5      -68.617445
   6      -68.613076
   7      -68.599674
   8      -68.595609
   9      -68.579017
  10      -68.569784
  11      -68.561757
  12      -68.551406
  13      -12.442665
  14      -11.195576
  15      -10.943707
  16      -10.879351
  17      -10.392479
  18      -10.350384
  19       -5.875261
  20       -4.521719
  21       -2.418924
  22       -2.248263
  23       -1.790664
  24       -1.684174
  25       -1.356620
  26       -1.300423
  27       -1.081634
  28       -0.682999
  29       -0.524413
  30       -0.297164
  31       -0.282575
  32       -0.222715
  33       -0.181400
  34       -0.125885
  35       -0.090648
  36        0.079267
  37        1.294077
  38        1.312220
  39        1.415653
  40        1.426504
  41        1.463367
  42        1.483334
  43        1.497343
  44        1.572183
  45        1.672436
  46        1.879977
  47        1.941753
  48        2.135262
  49        2.279309
  50        2.321246
  51        2.559292
  52        2.650486
  53        2.904310
  54        2.943759
  55        3.695556
  56        3.829500
  57        6.173600
  58        6.992030
  59        8.004915
  60        8.334451
  61        8.436305
  62        8.572876
  63        9.146271
  64        9.250849
  65       10.361141
  66       10.498343
  67       10.921734
  68       11.183875
  69       11.325475
  70       11.558487
  71       11.809736
  72       11.962839
  73       12.309919
  74       12.502134
  75       12.707785
  76       12.919014
  77       13.339293
  78       13.443765
  79       14.257176
  80       14.367671
 
  0.5000000E+00  0.2500000E+00 -0.2775558E-16  0.2500000E-01
   1      -68.650058
   2      -68.644943
   3      -68.634210
   4      -68.625208
   5      -68.617226
   6      -68.612851
   7      -68.599736
   8      -68.595668
   9      -68.578783
  10      -68.569598
  11      -68.561625
  12      -68.551250
  13      -12.443074
  14      -11.357549
  15      -10.938847
  16      -10.741353
  17      -10.388716
  18      -10.272457
  19       -5.947460
  20       -4.643127
  21       -2.392616
  22       -2.227549
  23       -2.058116
  24       -1.641150
  25       -1.362459
  26       -1.281992
  27       -1.024869
  28       -0.511548
  29       -0.478170
  30       -0.332098
  31       -0.281760
  32       -0.212706
  33       -0.150111
  34       -0.136337
  35       -0.009816
  36        0.113561
  37        1.247014
  38        1.316092
  39        1.383709
  40        1.438632
  41        1.462615
  42        1.492935
  43        1.498495
  44        1.550157
  45        1.748256
  46        1.829517
  47        1.922775
  48        2.134438
  49        2.221201
  50        2.384714
  51        2.560326
  52        2.792006
  53        2.976970
  54        3.312109
  55        3.601753
  56        3.745813
  57        6.089494
  58        6.942797
  59        7.612952
  60        8.070543
  61        8.415414
  62        8.619891
  63        8.983040
  64        9.149434
  65       10.092089
  66       10.337202
  67       10.728049
  68       11.109726
  69       11.455150
  70       11.597969
  71       11.797248
  72       12.081940
  73       12.477791
  74       12.916807
  75       13.036745
  76       13.831426
  77       14.223120
  78       14.657355
  79       15.425945
  80       15.643419
 
 -0.2500000E+00  0.2500000E+00  0.0000000E+00  0.2500000E-01
   1      -68.650256
   2      -68.645152
   3      -68.634224
   4      -68.625233
   5      -68.617242
   6      -68.612875
   7      -68.599769
   8      -68.595706
   9      -68.578842
  10      -68.569605
  11      -68.561739
  12      -68.551393
  13      -12.600904
  14      -11.256293
  15      -10.991831
  16      -10.573253
  17      -10.365676
  18      -10.181532
  19       -6.009786
  20       -4.895225
  21       -2.647676
  22       -2.314553
  23       -1.972076
  24       -1.649451
  25       -1.493381
  26       -1.186636
  27       -0.791342
  28       -0.578458
  29       -0.447129
  30       -0.333281
  31       -0.294364
  32       -0.231401
  33       -0.173168
  34       -0.132619
  35       -0.009055
  36        0.072002
  37        1.259598
  38        1.321803
  39        1.364040
  40        1.424661
  41        1.433486
  42        1.477201
  43        1.505737
  44        1.542450
  45        1.724272
  46        1.814147
  47        1.995728
  48        2.072965
  49        2.415240
  50        2.463458
  51        2.529647
  52        2.872032
  53        3.141365
  54        3.226862
  55        3.782289
  56        4.068322
  57        5.982361
  58        6.692906
  59        7.535647
  60        8.224048
  61        8.618598
  62        8.917448
  63        9.303468
  64        9.435159
  65        9.805305
  66       10.270869
  67       10.546277
  68       10.833642
  69       10.969600
  70       11.381300
  71       11.467244
  72       11.733999
  73       12.097763
  74       12.665693
  75       12.941936
  76       13.102291
  77       13.353063
  78       13.517648
  79       14.470599
  80       14.756713
 
  0.1474515E-16  0.5000000E+00  0.2775558E-16  0.1250000E-01
   1      -68.650097
   2      -68.645018
   3      -68.634170
   4      -68.625180
   5      -68.617295
   6      -68.612889
   7      -68.599705
   8      -68.595651
   9      -68.578893
  10      -68.569606
  11      -68.561568
  12      -68.551268
  13      -12.438236
  14      -11.255998
  15      -10.957404
  16      -10.764287
  17      -10.426373
  18      -10.361120
  19       -5.870212
  20       -4.546275
  21       -2.495210
  22       -2.246449
  23       -1.949172
  24       -1.467057
  25       -1.226079
  26       -1.100148
  27       -0.903460
  28       -0.862416
  29       -0.602384
  30       -0.535099
  31       -0.271993
  32       -0.204590
  33       -0.195330
  34       -0.144952
  35       -0.030718
  36        0.080401
  37        1.254834
  38        1.327689
  39        1.349264
  40        1.396894
  41        1.472296
  42        1.479493
  43        1.498928
  44        1.554878
  45        1.753375
  46        1.793964
  47        1.966590
  48        2.147604
  49        2.319812
  50        2.362972
  51        2.553219
  52        2.670087
  53        2.941624
  54        3.080181
  55        3.246608
  56        3.859143
  57        6.387638
  58        7.099355
  59        7.980560
  60        8.204871
  61        8.522446
  62        8.823347
  63        9.334081
  64        9.888935
  65       10.008650
  66       10.520681
  67       10.697222
  68       10.795077
  69       11.145004
  70       11.403502
  71       11.609723
  72       11.765130
  73       11.940118
  74       12.506463
  75       12.826572
  76       13.027787
  77       13.551668
  78       13.686631
  79       14.551365
  80       15.248158
 
  0.2500000E+00  0.5000000E+00 -0.2775558E-16  0.2500000E-01
   1      -68.650059
   2      -68.644947
   3      -68.634184
   4      -68.625190
   5      -68.617240
   6      -68.612858
   7      -68.599747
   8      -68.595679
   9      -68.578820
  10      -68.569573
  11      -68.561578
  12      -68.551280
  13      -12.442423
  14      -11.359990
  15      -10.938514
  16      -10.738920
  17      -10.388793
  18      -10.273613
  19       -5.947384
  20       -4.641664
  21       -2.392623
  22       -2.227291
  23       -2.058350
  24       -1.639550
  25       -1.362313
  26       -1.283156
  27       -1.026043
  28       -0.511801
  29       -0.485535
  30       -0.326982
  31       -0.282986
  32       -0.212481
  33       -0.145888
  34       -0.135376
  35       -0.012082
  36        0.112881
  37        1.246906
  38        1.315145
  39        1.382811
  40        1.437535
  41        1.460968
  42        1.493406
  43        1.498268
  44        1.552854
  45        1.750135
  46        1.828973
  47        1.921214
  48        2.134062
  49        2.220313
  50        2.385580
  51        2.561640
  52        2.789505
  53        2.980326
  54        3.311178
  55        3.602100
  56        3.746161
  57        6.090654
  58        6.944377
  59        7.614318
  60        8.071782
  61        8.412113
  62        8.614194
  63        8.986301
  64        9.152090
  65       10.087005
  66       10.336215
  67       10.733357
  68       11.106953
  69       11.454524
  70       11.577695
  71       11.787807
  72       12.035029
  73       12.503198
  74       12.662572
  75       12.908429
  76       13.210275
  77       14.219375
  78       14.716606
  79       15.172199
  80       15.900539
 
  0.5000000E+00  0.5000000E+00  0.0000000E+00  0.1250000E-01
   1      -68.649885
   2      -68.644776
   3      -68.634017
   4      -68.625024
   5      -68.617089
   6      -68.612779
   7      -68.599525
   8      -68.595485
   9      -68.578722
  10      -68.569486
  11      -68.561408
  12      -68.551056
  13      -12.434313
  14      -11.506415
  15      -10.913610
  16      -10.620465
  17      -10.397596
  18      -10.200376
  19       -6.026210
  20       -4.810486
  21       -2.311291
  22       -2.264859
  23       -2.095542
  24       -1.702347
  25       -1.247023
  26       -1.113626
  27       -0.845302
  28       -0.776291
  29       -0.727367
  30       -0.243232
  31       -0.198156
  32       -0.179746
  33       -0.152037
  34       -0.041648
  35       -0.001119
  36        0.186135
  37        1.268546
  38        1.317768
  39        1.375474
  40        1.415122
  41        1.435047
  42        1.492023
  43        1.509414
  44        1.549651
  45        1.788866
  46        1.848601
  47        1.996815
  48        2.151162
  49        2.252233
  50        2.337707
  51        2.558448
  52        2.762591
  53        2.771221
  54        3.368461
  55        3.760383
  56        4.007492
  57        5.858013
  58        6.767918
  59        7.086985
  60        8.413942
  61        8.562572
  62        8.779333
  63        9.136699
  64        9.243675
  65        9.961504
  66       10.289352
  67       10.724954
  68       10.827778
  69       10.868184
  70       11.275615
  71       11.755810
  72       11.907168
  73       11.974564
  74       12.372668
  75       12.538884
  76       13.450747
  77       14.286733
  78       14.679160
  79       16.744509
  80       16.755848
 
 -0.2168404E-18 -0.2168404E-18  0.2000000E+00  0.2500000E-01
   1      -68.650291
   2      -68.645186
   3      -68.634252
   4      -68.625262
   5      -68.617338
   6      -68.612969
   7      -68.599793
   8      -68.595729
   9      -68.578928
  10      -68.569692
  11      -68.561775
  12      -68.551427
  13      -12.619942
  14      -11.428266
  15      -10.780530
  16      -10.610125
  17      -10.249496
  18      -10.239146
  19       -5.830574
  20       -5.048356
  21       -2.601338
  22       -2.371833
  23       -1.964660
  24       -1.776175
  25       -1.444814
  26       -1.121754
  27       -1.065531
  28       -0.773012
  29       -0.469852
  30       -0.292961
  31       -0.237208
  32       -0.231629
  33       -0.191805
  34       -0.145450
  35       -0.016941
  36        0.024425
  37        1.333937
  38        1.381956
  39        1.415414
  40        1.440408
  41        1.464486
  42        1.469478
  43        1.515661
  44        1.546990
  45        1.633307
  46        1.759455
  47        1.786391
  48        1.949272
  49        2.089288
  50        2.658367
  51        2.721120
  52        3.195269
  53        3.251842
  54        3.519192
  55        3.892955
  56        3.975257
  57        6.048823
  58        6.420125
  59        7.826548
  60        7.906197
  61        8.368546
  62        8.818933
  63        9.778675
  64        9.796144
  65       10.062474
  66       10.584969
  67       10.646434
  68       10.815441
  69       10.858170
  70       11.493278
  71       11.553830
  72       12.024395
  73       12.579563
  74       12.774392
  75       12.914020
  76       13.204036
  77       13.530768
  78       13.821630
  79       14.200981
  80       14.696741
 
  0.2500000E+00  0.1517883E-17  0.2000000E+00  0.2500000E-01
   1      -68.650227
   2      -68.645125
   3      -68.634237
   4      -68.625248
   5      -68.617381
   6      -68.613009
   7      -68.599749
   8      -68.595688
   9      -68.578944
  10      -68.569701
  11      -68.561706
  12      -68.551366
  13      -12.461184
  14      -11.469438
  15      -10.864199
  16      -10.693209
  17      -10.375069
  18      -10.244989
  19       -5.766253
  20       -4.805667
  21       -2.447103
  22       -2.232718
  23       -1.851754
  24       -1.712130
  25       -1.436044
  26       -1.188924
  27       -0.888812
  28       -0.746641
  29       -0.603466
  30       -0.524773
  31       -0.310562
  32       -0.243590
  33       -0.174658
  34       -0.118905
  35       -0.050959
  36        0.063074
  37        1.302270
  38        1.335693
  39        1.369616
  40        1.435795
  41        1.446621
  42        1.478755
  43        1.521766
  44        1.548198
  45        1.644039
  46        1.870488
  47        1.979721
  48        2.048573
  49        2.195273
  50        2.476327
  51        2.595910
  52        2.838309
  53        2.963781
  54        3.132340
  55        3.565108
  56        3.722578
  57        6.442552
  58        6.959191
  59        8.173623
  60        8.249119
  61        8.833619
  62        9.130974
  63        9.472120
  64        9.798090
  65       10.086422
  66       10.295019
  67       10.736810
  68       11.078894
  69       11.291545
  70       11.419061
  71       11.631262
  72       11.722360
  73       12.085752
  74       12.262957
  75       12.546386
  76       12.656966
  77       12.953329
  78       13.062748
  79       13.639018
  80       14.690432
 
  0.5000000E+00  0.9107298E-17  0.2000000E+00  0.2500000E-01
   1      -68.650091
   2      -68.644936
   3      -68.634156
   4      -68.625142
   5      -68.617239
   6      -68.612879
   7      -68.599657
   8      -68.595613
   9      -68.578823
  10      -68.569610
  11      -68.561653
  12      -68.551279
  13      -12.359208
  14      -11.415850
  15      -10.953219
  16      -10.689447
  17      -10.478383
  18      -10.334189
  19       -5.751653
  20       -4.723837
  21       -2.523855
  22       -2.185698
  23       -1.951760
  24       -1.534397
  25       -1.303522
  26       -1.098757
  27       -0.871818
  28       -0.757975
  29       -0.548843
  30       -0.447565
  31       -0.287951
  32       -0.175860
  33       -0.146098
  34       -0.101883
  35       -0.042499
  36        0.021927
  37        1.274090
  38        1.298283
  39        1.351045
  40        1.431317
  41        1.452597
  42        1.480883
  43        1.503909
  44        1.588353
  45        1.720798
  46        1.931816
  47        2.078519
  48        2.145837
  49        2.268431
  50        2.404998
  51        2.569129
  52        2.597542
  53        2.897245
  54        3.008121
  55        3.354635
  56        3.898485
  57        6.366393
  58        6.899205
  59        7.582901
  60        8.082273
  61        8.549977
  62        8.798159
  63        9.277291
  64        9.630125
  65        9.931733
  66       10.275290
  67       10.650025
  68       10.930004
  69       10.973225
  70       11.281194
  71       11.519665
  72       11.787157
  73       12.244940
  74       12.547128
  75       13.105985
  76       13.517741
  77       14.302449
  78       14.612400
  79       15.132200
  80       16.274833
 
 -0.2500000E+00 -0.4098284E-16  0.2000000E+00  0.2500000E-01
   1      -68.650287
   2      -68.645178
   3      -68.634228
   4      -68.625238
   5      -68.617342
   6      -68.612981
   7      -68.599778
   8      -68.595714
   9      -68.578938
  10      -68.569714
  11      -68.561774
  12      -68.551417
  13      -12.543787
  14      -11.340470
  15      -10.874460
  16      -10.609714
  17      -10.397893
  18      -10.284076
  19       -5.824224
  20       -4.976228
  21       -2.665866
  22       -2.454199
  23       -2.039979
  24       -1.577660
  25       -1.170990
  26       -0.984992
  27       -0.795610
  28       -0.657242
  29       -0.515647
  30       -0.381978
  31       -0.268545
  32       -0.252305
  33       -0.190930
  34       -0.144201
  35       -0.045690
  36        0.013236
  37        1.291026
  38        1.311792
  39        1.392701
  40        1.408065
  41        1.434838
  42        1.454641
  43        1.492980
  44        1.566314
  45        1.687999
  46        1.916176
  47        1.988154
  48        2.145187
  49        2.336607
  50        2.562948
  51        2.616775
  52        2.828688
  53        2.972665
  54        3.246758
  55        3.682573
  56        3.942670
  57        6.180858
  58        6.640427
  59        7.765806
  60        7.973721
  61        8.219917
  62        8.562543
  63        9.378887
  64        9.581936
  65        9.907849
  66       10.252485
  67       10.544181
  68       10.786740
  69       10.841214
  70       11.065887
  71       11.563527
  72       12.020797
  73       12.530064
  74       12.751924
  75       12.954114
  76       13.309748
  77       13.414004
  78       13.737600
  79       13.845598
  80       14.726862
 
  0.1517883E-17  0.2500000E+00  0.2000000E+00  0.2500000E-01
   1      -68.650227
   2      -68.645123
   3      -68.634237
   4      -68.625247
   5      -68.617376
   6      -68.613016
   7      -68.599757
   8      -68.595681
   9      -68.578932
  10      -68.569707
  11      -68.561719
  12      -68.551360
  13      -12.460630
  14      -11.470375
  15      -10.866931
  16      -10.689462
  17      -10.374936
  18      -10.246027
  19       -5.766067
  20       -4.804073
  21       -2.446679
  22       -2.233074
  23       -1.854024
  24       -1.713549
  25       -1.434262
  26       -1.188884
  27       -0.890177
  28       -0.746581
  29       -0.604405
  30       -0.523539
  31       -0.308178
  32       -0.242751
  33       -0.173159
  34       -0.118744
  35       -0.053433
  36        0.061772
  37        1.303493
  38        1.336875
  39        1.370376
  40        1.431480
  41        1.446030
  42        1.479065
  43        1.522768
  44        1.546481
  45        1.646216
  46        1.872308
  47        1.976482
  48        2.049740
  49        2.193884
  50        2.475760
  51        2.594215
  52        2.838332
  53        2.964300
  54        3.134417
  55        3.564688
  56        3.723181
  57        6.443678
  58        6.960758
  59        8.170888
  60        8.250268
  61        8.837383
  62        9.129691
  63        9.467067
  64        9.800097
  65       10.084761
  66       10.297643
  67       10.736917
  68       11.077338
  69       11.288199
  70       11.425088
  71       11.632079
  72       11.726921
  73       12.089640
  74       12.263990
  75       12.536778
  76       12.659335
  77       12.951816
  78       13.054485
  79       13.657881
  80       14.698974
 
  0.2500000E+00  0.2500000E+00  0.2000000E+00  0.2500000E-01
   1      -68.650137
   2      -68.645033
   3      -68.634088
   4      -68.625096
   5      -68.617219
   6      -68.612852
   7      -68.599627
   8      -68.595564
   9      -68.578809
  10      -68.569571
  11      -68.561624
  12      -68.551273
  13      -12.329039
  14      -11.479085
  15      -10.865435
  16      -10.856940
  17      -10.409524
  18      -10.286760
  19       -5.747356
  20       -4.691818
  21       -2.241833
  22       -2.140796
  23       -1.928658
  24       -1.851965
  25       -1.454984
  26       -1.395624
  27       -1.042286
  28       -0.521715
  29       -0.462436
  30       -0.347330
  31       -0.247085
  32       -0.214078
  33       -0.158866
  34       -0.111717
  35       -0.088615
  36        0.080879
  37        1.261273
  38        1.347624
  39        1.400041
  40        1.435865
  41        1.454095
  42        1.510704
  43        1.536102
  44        1.543324
  45        1.754829
  46        1.818849
  47        2.042231
  48        2.133983
  49        2.285757
  50        2.310841
  51        2.521591
  52        2.767906
  53        2.899146
  54        3.262190
  55        3.494039
  56        3.798840
  57        6.185149
  58        6.843788
  59        7.829539
  60        8.047163
  61        8.192536
  62        8.727125
  63        9.157807
  64        9.305319
  65       10.216960
  66       10.440772
  67       10.592274
  68       11.009508
  69       11.236693
  70       11.488612
  71       11.809988
  72       12.171048
  73       12.206947
  74       12.576003
  75       12.690505
  76       13.114259
  77       13.413752
  78       13.881567
  79       14.008444
  80       14.520686
 
  0.5000000E+00  0.2500000E+00  0.2000000E+00  0.2500000E-01
   1      -68.650031
   2      -68.644898
   3      -68.634171
   4      -68.625206
   5      -68.617218
   6      -68.612905
   7      -68.599707
   8      -68.595636
   9      -68.578815
  10      -68.569608
  11      -68.561585
  12      -68.551243
  13      -12.375742
  14      -11.477629
  15      -10.937095
  16      -10.657056
  17      -10.418332
  18      -10.305885
  19       -5.800577
  20       -4.837198
  21       -2.527365
  22       -2.244547
  23       -1.873355
  24       -1.643623
  25       -1.506573
  26       -1.307519
  27       -0.903741
  28       -0.535922
  29       -0.375819
  30       -0.342562
  31       -0.223046
  32       -0.176864
  33       -0.162146
  34       -0.077356
  35       -0.025990
  36        0.081302
  37        1.190442
  38        1.364701
  39        1.398168
  40        1.443123
  41        1.464261
  42        1.506081
  43        1.518712
  44        1.587730
  45        1.739693
  46        1.821180
  47        2.039470
  48        2.235524
  49        2.268831
  50        2.361297
  51        2.487164
  52        2.671968
  53        3.050157
  54        3.408795
  55        3.726518
  56        3.865612
  57        5.934452
  58        6.616163
  59        7.354238
  60        7.949074
  61        8.064662
  62        8.722379
  63        8.906679
  64        9.142781
  65        9.844918
  66       10.327682
  67       10.559189
  68       10.923752
  69       11.217540
  70       11.417545
  71       11.753270
  72       12.002787
  73       12.497517
  74       12.827093
  75       13.202172
  76       14.185966
  77       14.716389
  78       15.161491
  79       15.919331
  80       16.568654
 
 -0.2500000E+00  0.2500000E+00  0.2000000E+00  0.2500000E-01
   1      -68.650193
   2      -68.645125
   3      -68.634286
   4      -68.625286
   5      -68.617312