<?xml version="1.0" encoding="ISO-8859-1"?>
<modeling>
 <generator>
  <i name="program" type="string">vasp </i>
  <i name="version" type="string">5.3.3  </i>
  <i name="subversion" type="string">18Dez12 (build Nov 13 2015 09:58:40) complex                          parallel </i>
  <i name="platform" type="string">LinuxIFC </i>
  <i name="date" type="string">2017 10 18 </i>
  <i name="time" type="string">13:07:34 </i>
 </generator>
 <incar>
  <i type="string" name="SYSTEM"> CGS</i>
  <i type="string" name="PREC">normal</i>
  <i type="string" name="ALGO"> D</i>
  <i type="logical" name="LDIAG"> T  </i>
  <i name="EDIFF">      0.00001000</i>
  <i name="ENCUT">    400.00000000</i>
  <i name="TIME">      0.40000000</i>
  <i type="int" name="ISMEAR">     1</i>
  <i name="SIGMA">      0.10000000</i>
  <i type="logical" name="LHFCALC"> T  </i>
  <i type="string" name="GGA"> PE</i>
  <i name="HFSCREEN">      0.20000000</i>
  <i name="AEXX">      0.25000000</i>
  <i type="string" name="PRECFOCK">fast</i>
 </incar>
 <kpoints>
  <generation param="Gamma">
   <v type="int" name="divisions">       4        4        5 </v>
   <v name="usershift">      0.00000000       0.00000000       0.00000000 </v>
   <v name="genvec1">      0.25000000       0.00000000       0.00000000 </v>
   <v name="genvec2">      0.00000000       0.25000000       0.00000000 </v>
   <v name="genvec3">      0.00000000       0.00000000       0.20000000 </v>
   <v name="shift">      0.00000000       0.00000000       0.00000000 </v>
  </generation>
  <varray name="kpointlist" >
   <v>       0.00000000       0.00000000       0.00000000 </v>
   <v>       0.25000000       0.00000000       0.00000000 </v>
   <v>       0.50000000       0.00000000       0.00000000 </v>
   <v>       0.00000000       0.25000000       0.00000000 </v>
   <v>       0.25000000       0.25000000       0.00000000 </v>
   <v>       0.50000000       0.25000000      -0.00000000 </v>
   <v>      -0.25000000       0.25000000       0.00000000 </v>
   <v>       0.00000000       0.50000000       0.00000000 </v>
   <v>       0.25000000       0.50000000      -0.00000000 </v>
   <v>       0.50000000       0.50000000       0.00000000 </v>
   <v>      -0.00000000      -0.00000000       0.20000000 </v>
   <v>       0.25000000       0.00000000       0.20000000 </v>
   <v>       0.50000000       0.00000000       0.20000000 </v>
   <v>      -0.25000000      -0.00000000       0.20000000 </v>
   <v>       0.00000000       0.25000000       0.20000000 </v>
   <v>       0.25000000       0.25000000       0.20000000 </v>
   <v>       0.50000000       0.25000000       0.20000000 </v>
   <v>      -0.25000000       0.25000000       0.20000000 </v>
   <v>       0.00000000       0.50000000       0.20000000 </v>
   <v>       0.25000000       0.50000000       0.20000000 </v>
   <v>       0.50000000       0.50000000       0.20000000 </v>
   <v>      -0.25000000       0.50000000       0.20000000 </v>
   <v>      -0.00000000      -0.25000000       0.20000000 </v>
   <v>       0.25000000      -0.25000000       0.20000000 </v>
   <v>       0.50000000      -0.25000000       0.20000000 </v>
   <v>      -0.25000000      -0.25000000       0.20000000 </v>
   <v>      -0.00000000      -0.00000000       0.40000000 </v>
   <v>       0.25000000       0.00000000       0.40000000 </v>
   <v>       0.50000000       0.00000000       0.40000000 </v>
   <v>      -0.25000000       0.00000000       0.40000000 </v>
   <v>       0.00000000       0.25000000       0.40000000 </v>
   <v>       0.25000000       0.25000000       0.40000000 </v>
   <v>       0.50000000       0.25000000       0.40000000 </v>
   <v>      -0.25000000       0.25000000       0.40000000 </v>
   <v>       0.00000000       0.50000000       0.40000000 </v>
   <v>       0.25000000       0.50000000       0.40000000 </v>
   <v>       0.50000000       0.50000000       0.40000000 </v>
   <v>      -0.25000000       0.50000000       0.40000000 </v>
   <v>       0.00000000      -0.25000000       0.40000000 </v>
   <v>       0.25000000      -0.25000000       0.40000000 </v>
   <v>       0.50000000      -0.25000000       0.40000000 </v>
   <v>      -0.25000000      -0.25000000       0.40000000 </v>
  </varray>
  <varray name="weights" >
   <v>       0.01250000 </v>
   <v>       0.02500000 </v>
   <v>       0.01250000 </v>
   <v>       0.02500000 </v>
   <v>       0.02500000 </v>
   <v>       0.02500000 </v>
   <v>       0.02500000 </v>
   <v>       0.01250000 </v>
   <v>       0.02500000 </v>
   <v>       0.01250000 </v>
   <v>       0.02500000 </v>
   <v>       0.02500000 </v>
   <v>       0.02500000 </v>
   <v>       0.02500000 </v>
   <v>       0.02500000 </v>
   <v>       0.02500000 </v>
   <v>       0.02500000 </v>
   <v>       0.02500000 </v>
   <v>       0.02500000 </v>
   <v>       0.02500000 </v>
   <v>       0.02500000 </v>
   <v>       0.02500000 </v>
   <v>       0.02500000 </v>
   <v>       0.02500000 </v>
   <v>       0.02500000 </v>
   <v>       0.02500000 </v>
   <v>       0.02500000 </v>
   <v>       0.02500000 </v>
   <v>       0.02500000 </v>
   <v>       0.02500000 </v>
   <v>       0.02500000 </v>
   <v>       0.02500000 </v>
   <v>       0.02500000 </v>
   <v>       0.02500000 </v>
   <v>       0.02500000 </v>
   <v>       0.02500000 </v>
   <v>       0.02500000 </v>
   <v>       0.02500000 </v>
   <v>       0.02500000 </v>
   <v>       0.02500000 </v>
   <v>       0.02500000 </v>
   <v>       0.02500000 </v>
  </varray>
 </kpoints>
 <parameters>
  <separator name="general" >
   <i type="string" name="SYSTEM">CGS</i>
   <i type="logical" name="LCOMPAT"> F  </i>
  </separator>
  <separator name="electronic" >
   <i type="string" name="PREC">normal</i>
   <i name="ENMAX">    400.00000000</i>
   <i name="ENAUG">    758.23300000</i>
   <i name="EDIFF">      0.00001000</i>
   <i type="int" name="IALGO">    53</i>
   <i type="int" name="IWAVPR">    10</i>
   <i type="int" name="NBANDS">    80</i>
   <i name="NELECT">    112.00000000</i>
   <i type="int" name="TURBO">     0</i>
   <i type="int" name="IRESTART">     0</i>
   <i type="int" name="NREBOOT">     0</i>
   <i type="int" name="NMIN">     0</i>
   <i name="EREF">      0.00000000</i>
   <separator name="electronic smearing" >
    <i type="int" name="ISMEAR">     1</i>
    <i name="SIGMA">      0.10000000</i>
    <i name="KSPACING">      0.50000000</i>
    <i type="logical" name="KGAMMA"> T  </i>
   </separator>
   <separator name="electronic projectors" >
    <i type="logical" name="LREAL"> F  </i>
    <v name="ROPT">      0.00000000      0.00000000      0.00000000</v>
    <i type="int" name="LMAXPAW">  -100</i>
    <i type="int" name="LMAXMIX">     2</i>
    <i type="logical" name="NLSPLINE"> F  </i>
   </separator>
   <separator name="electronic startup" >
    <i type="int" name="ISTART">     1</i>
    <i type="int" name="ICHARG">     0</i>
    <i type="int" name="INIWAV">     1</i>
   </separator>
   <separator name="electronic spin" >
    <i type="int" name="ISPIN">     1</i>
    <i type="logical" name="LNONCOLLINEAR"> F  </i>
    <v name="MAGMOM">      1.00000000      1.00000000      1.00000000      1.00000000      1.00000000      1.00000000      1.00000000      1.00000000      1.00000000      1.00000000      1.00000000      1.00000000</v>
    <i name="NUPDOWN">     -1.00000000</i>
    <i type="logical" name="LSORBIT"> F  </i>
    <v name="SAXIS">      0.00000000      0.00000000      1.00000000</v>
    <i type="logical" name="LSPIRAL"> F  </i>
    <v name="QSPIRAL">      0.00000000      0.00000000      0.00000000</v>
    <i type="logical" name="LZEROZ"> F  </i>
   </separator>
   <separator name="electronic exchange-correlation" >
    <i type="logical" name="LASPH"> F  </i>
    <i type="logical" name="LMETAGGA"> F  </i>
   </separator>
   <separator name="electronic convergence" >
    <i type="int" name="NELM">    60</i>
    <i type="int" name="NELMDL">     0</i>
    <i type="int" name="NELMIN">     2</i>
    <i name="ENINI">    400.00000000</i>
    <separator name="electronic convergence detail" >
     <i type="logical" name="LDIAG"> T  </i>
     <i type="logical" name="LSUBROT"> T  </i>
     <i name="WEIMIN">      0.00000000</i>
     <i name="EBREAK">      0.00000003</i>
     <i name="DEPER">      0.30000000</i>
     <i type="int" name="NRMM">     4</i>
     <i name="TIME">      0.40000000</i>
    </separator>
   </separator>
   <separator name="electronic mixer" >
    <i name="AMIX">      0.40000000</i>
    <i name="BMIX">      1.00000000</i>
    <i name="AMIN">      0.10000000</i>
    <i name="AMIX_MAG">      1.60000000</i>
    <i name="BMIX_MAG">      1.00000000</i>
    <separator name="electronic mixer details" >
     <i type="int" name="IMIX">     4</i>
     <i type="int" name="MAXMIX">   -45</i>
     <i name="WC">    100.00000000</i>
     <i type="int" name="INIMIX">     1</i>
     <i type="int" name="MIXPRE">     1</i>
     <i type="int" name="MREMOVE">     5</i>
    </separator>
   </separator>
   <separator name="electronic dipolcorrection" >
    <i type="logical" name="LDIPOL"> F  </i>
    <i type="logical" name="LMONO"> F  </i>
    <i type="int" name="IDIPOL">     0</i>
    <i name="EPSILON">      1.00000000</i>
    <v name="DIPOL">   -100.00000000   -100.00000000   -100.00000000</v>
    <i name="EFIELD">      0.00000000</i>
   </separator>
  </separator>
  <separator name="grids" >
   <i type="int" name="NGX">    32</i>
   <i type="int" name="NGY">    32</i>
   <i type="int" name="NGZ">    32</i>
   <i type="int" name="NGXF">    64</i>
   <i type="int" name="NGYF">    64</i>
   <i type="int" name="NGZF">    64</i>
   <i type="logical" name="ADDGRID"> F  </i>
  </separator>
  <separator name="ionic" >
   <i type="int" name="NSW">     0</i>
   <i type="int" name="IBRION">    -1</i>
   <i type="int" name="ISIF">     0</i>
   <i name="PSTRESS">      0.00000000</i>
   <i name="EDIFFG">      0.00010000</i>
   <i type="int" name="NFREE">     0</i>
   <i name="POTIM">      0.50000000</i>
   <i name="SMASS">     -3.00000000</i>
   <i name="SCALEE">      1.00000000</i>
  </separator>
  <separator name="ionic md" >
   <i name="TEBEG">      0.00010000</i>
   <i name="TEEND">      0.00010000</i>
   <i type="int" name="NBLOCK">     1</i>
   <i type="int" name="KBLOCK">     1</i>
   <i type="int" name="NPACO">   256</i>
   <i name="APACO">     16.00000000</i>
  </separator>
  <separator name="symmetry" >
   <i type="int" name="ISYM">     3</i>
   <i name="SYMPREC">      0.00001000</i>
  </separator>
  <separator name="dos" >
   <i type="logical" name="LORBIT"> F  </i>
   <v name="RWIGS">     -1.00000000     -1.00000000     -1.00000000</v>
   <i type="int" name="NEDOS">   301</i>
   <i name="EMIN">     10.00000000</i>
   <i name="EMAX">    -10.00000000</i>
   <i name="EFERMI">      0.00000000</i>
  </separator>
  <separator name="writing" >
   <i type="int" name="NWRITE">     2</i>
   <i type="logical" name="LWAVE"> T  </i>
   <i type="logical" name="LCHARG"> T  </i>
   <i type="logical" name="LPARD"> F  </i>
   <i type="logical" name="LVTOT"> F  </i>
   <i type="logical" name="LVHAR"> F  </i>
   <i type="logical" name="LELF"> F  </i>
   <i type="logical" name="LOPTICS"> F  </i>
   <v name="STM">      0.00000000      0.00000000      0.00000000      0.00000000      0.00000000      0.00000000      0.00000000</v>
  </separator>
  <separator name="performance" >
   <i type="int" name="NPAR">    16</i>
   <i type="int" name="NSIM">     4</i>
   <i type="int" name="NBLK">    -1</i>
   <i type="logical" name="LPLANE"> T  </i>
   <i type="logical" name="LSCALAPACK"> T  </i>
   <i type="logical" name="LSCAAWARE"> F  </i>
   <i type="logical" name="LSCALU"> F  </i>
   <i type="logical" name="LASYNC"> F  </i>
   <i type="logical" name="LORBITALREAL"> F  </i>
  </separator>
  <separator name="miscellaneous" >
   <i type="int" name="IDIOT">     3</i>
   <i type="logical" name="LMUSIC"> F  </i>
   <v name="POMASS">     63.54600000     72.61000000     32.06600000</v>
   <v name="DARWINR">      0.00000000      0.00000000      0.00000000</v>
   <v name="DARWINV">      1.00000000      1.00000000      1.00000000</v>
   <i type="logical" name="LCORR"> T  </i>
  </separator>
  <i type="logical" name="GGA_COMPAT"> T  </i>
  <i type="logical" name="LBERRY"> F  </i>
  <i type="int" name="ICORELEVEL">     0</i>
  <i type="logical" name="LDAU"> F  </i>
  <i type="int" name="I_CONSTRAINED_M">     0</i>
  <separator name="electronic exchange-correlation" >
   <i type="string" name="GGA">PE</i>
   <i type="int" name="VOSKOWN">     0</i>
   <i type="logical" name="LHFCALC"> T  </i>
   <i type="string" name="PRECFOCK">fast</i>
   <i type="logical" name="LSYMGRAD"> F  </i>
   <i type="logical" name="LHFONE"> F  </i>
   <i type="logical" name="LRHFCALC"> F  </i>
   <i type="logical" name="LTHOMAS"> F  </i>
   <i type="logical" name="LMODELHF"> F  </i>
   <i name="ENCUT4O">     -1.00000000</i>
   <i type="int" name="EXXOEP">     0</i>
   <i type="int" name="FOURORBIT">     0</i>
   <i name="AEXX">      0.25000000</i>
   <i name="HFALPHA">     -1.00000000</i>
   <i name="MCALPHA">      0.00000000</i>
   <i name="ALDAX">      0.75000000</i>
   <i name="AGGAX">      0.75000000</i>
   <i name="ALDAC">      1.00000000</i>
   <i name="AGGAC">      1.00000000</i>
   <i type="int" name="NKREDX">     1</i>
   <i type="int" name="NKREDY">     1</i>
   <i type="int" name="NKREDZ">     1</i>
   <i type="logical" name="SHIFTRED"> F  </i>
   <i type="logical" name="ODDONLY"> F  </i>
   <i type="logical" name="EVENONLY"> F  </i>
   <i type="int" name="LMAXFOCK">     4</i>
   <i type="int" name="NMAXFOCKAE">     1</i>
   <i type="logical" name="LFOCKAEDFT"> F  </i>
   <i name="HFSCREEN">      0.20000000</i>
   <i name="HFSCREENC">      0.20000000</i>
   <i type="int" name="NBANDSGWLOW">     1</i>
  </separator>
  <separator name="vdW DFT" >
   <i type="logical" name="LUSE_VDW"> F  </i>
   <i name="Zab_VDW">     -0.84910000</i>
   <i name="PARAM1">      0.12340000</i>
   <i name="PARAM2">      1.00000000</i>
   <i name="PARAM3">      0.00000000</i>
  </separator>
  <separator name="model GW" >
   <i type="int" name="MODEL_GW">     0</i>
   <i name="MODEL_EPS0">     11.09505304</i>
   <i name="MODEL_ALPHA">      1.00000000</i>
  </separator>
  <separator name="linear response parameters" >
   <i type="logical" name="LEPSILON"> F  </i>
   <i type="logical" name="LRPA"> F  </i>
   <i type="logical" name="LNABLA"> F  </i>
   <i type="logical" name="LVEL"> F  </i>
   <i type="int" name="KINTER">     0</i>
   <i name="CSHIFT">      0.10000000</i>
   <i name="OMEGAMAX">     -1.00000000</i>
   <i name="DEG_THRESHOLD">      0.00200000</i>
  </separator>
  <separator name="orbital magnetization" >
   <i type="logical" name="NUCIND"> F  </i>
   <v name="MAGPOS">      0.00000000      0.00000000      0.00000000</v>
   <i type="logical" name="LNICSALL"> T  </i>
   <i type="logical" name="ORBITALMAG"> F  </i>
   <i type="logical" name="LMAGBLOCH"> F  </i>
   <i type="logical" name="LCHIMAG"> F  </i>
   <i type="logical" name="LGAUGE"> T  </i>
   <i type="int" name="MAGATOM">     0</i>
   <v name="MAGDIPOL">      0.00000000      0.00000000      0.00000000</v>
   <v name="AVECCONST">      0.00000000      0.00000000      0.00000000</v>
  </separator>
  <separator name="response functions" >
   <i type="logical" name="LADDER"> F  </i>
   <i type="logical" name="LFXC"> F  </i>
   <i type="logical" name="LHARTREE"> T  </i>
   <i type="int" name="IBSE">     0</i>
   <i type="logical" name="LTCTE"> F  </i>
   <i type="logical" name="LTETE"> F  </i>
   <i type="logical" name="LTRIPLET"> F  </i>
   <i type="logical" name="LFXCEPS"> F  </i>
   <i type="logical" name="L2ORDER"> F  </i>
   <i type="logical" name="LUSEW"> F  </i>
   <i name="ENCUTGW">     -2.00000000</i>
   <i name="ENCUTGWSOFT">     -2.00000000</i>
   <i name="ENCUTLF">     -1.00000000</i>
   <i type="int" name="LMAXMP2">    -1</i>
   <i name="SCISSOR">      0.00000000</i>
   <i type="int" name="NOMEGA">     0</i>
   <i type="int" name="NOMEGAR">     0</i>
   <i type="int" name="NBANDSGW">    -1</i>
   <i type="int" name="NBANDSO">    -1</i>
   <i type="int" name="NBANDSV">    -1</i>
   <i type="int" name="NELM">     1</i>
   <i type="int" name="DIM">     3</i>
   <i type="int" name="ANTIRES">     0</i>
   <i name="OMEGAMAX">    -30.00000000</i>
   <i name="OMEGATL">   -200.00000000</i>
   <i type="int" name="OMEGAGRID">     0</i>
   <i name="CSHIFT">     -0.10000000</i>
   <i type="logical" name="SELFENERGY"> F  </i>
   <i type="logical" name="LSPECTRAL"> F  </i>
   <i type="logical" name="ODDONLYGW"> F  </i>
   <i type="logical" name="EVENONLYGW"> F  </i>
   <i type="int" name="NKREDLFX">     1</i>
   <i type="int" name="NKREDLFY">     1</i>
   <i type="int" name="NKREDLFZ">     1</i>
   <i type="int" name="MAXMEM">  1800</i>
   <i type="int" name="TELESCOPE">     0</i>
  </separator>
 </parameters>
 <atominfo>
  <atoms>      12 </atoms>
  <types>       3 </types>
  <array name="atoms" >
   <dimension dim="1">ion</dimension>
   <field type="string">element</field>
   <field type="int">atomtype</field>
   <set>
    <rc><c>Cu</c><c>   1</c></rc>
    <rc><c>Cu</c><c>   1</c></rc>
    <rc><c>Cu</c><c>   1</c></rc>
    <rc><c>Cu</c><c>   1</c></rc>
    <rc><c>Ge</c><c>   2</c></rc>
    <rc><c>Ge</c><c>   2</c></rc>
    <rc><c>S </c><c>   3</c></rc>
    <rc><c>S </c><c>   3</c></rc>
    <rc><c>S </c><c>   3</c></rc>
    <rc><c>S </c><c>   3</c></rc>
    <rc><c>S </c><c>   3</c></rc>
    <rc><c>S </c><c>   3</c></rc>
   </set>
  </array>
  <array name="atomtypes" >
   <dimension dim="1">type</dimension>
   <field type="int">atomspertype</field>
   <field type="string">element</field>
   <field>mass</field>
   <field>valence</field>
   <field type="string">pseudopotential</field>
   <set>
    <rc><c>   4</c><c>Cu</c><c>     63.54600000</c><c>     17.00000000</c><c>  PAW_PBE Cu_pv 06Sep2000               </c></rc>
    <rc><c>   2</c><c>Ge</c><c>     72.61000000</c><c>      4.00000000</c><c>  PAW_PBE Ge 05Jan2001                  </c></rc>
    <rc><c>   6</c><c>S </c><c>     32.06600000</c><c>      6.00000000</c><c>  PAW_PBE S 17Jan2003                   </c></rc>
   </set>
  </array>
 </atominfo>
 <structure name="initialpos" >
  <crystal>
   <varray name="basis" >
    <v>       3.22479600      -5.64383000       0.03157200 </v>
    <v>       3.22479600       5.64383000       0.03157200 </v>
    <v>      -2.10194600       0.00000000       6.07553700 </v>
   </varray>
   <i name="volume">    221.90106089 </i>
   <varray name="rec_basis" >
    <v>       0.15452516      -0.08859232       0.05346088 </v>
    <v>       0.15452516       0.08859232       0.05346088 </v>
    <v>      -0.00160600       0.00000000       0.16403888 </v>
   </varray>
  </crystal>
  <varray name="positions" >
   <v>       0.61844300       0.12117100       0.11953300 </v>
   <v>       0.12117100       0.61844300       0.61953300 </v>
   <v>       0.96295700       0.79032200       0.11881300 </v>
   <v>       0.79032200       0.96295700       0.61881300 </v>
   <v>       0.43973200       0.26728100       0.59904700 </v>
   <v>       0.26728100       0.43973200       0.09904700 </v>
   <v>       0.08103640       0.91167500       0.49736300 </v>
   <v>       0.57140300       0.41236400       0.98018400 </v>
   <v>       0.73711100       0.25006200       0.49504900 </v>
   <v>       0.41236400       0.57140300       0.48018400 </v>
   <v>       0.91167500       0.07949800       0.99736300 </v>
   <v>       0.25006200       0.73711100       0.99504900 </v>
  </varray>
 </structure>
 <calculation>
  <scstep>
   <time name="total">  234.87  234.73</time>
   <energy>
    <i name="alphaZ">    339.31929130 </i>
    <i name="ewald">  -9065.20955894 </i>
    <i name="hartreedc">  -8067.43209341 </i>
    <i name="XCdc">    369.90466071 </i>
    <i name="pawpsdc">  16899.69232093 </i>
    <i name="pawaedc"> -17392.50858306 </i>
    <i name="eentropy">     -0.00144296 </i>
    <i name="bandstr">  -1656.66348504 </i>
    <i name="atom">  18320.98302006 </i>
    <i name="e_fr_energy">     75.53681184 </i>
    <i name="e_wo_entrp">     75.53825480 </i>
    <i name="e_0_energy">     75.53729283 </i>
   </energy>
  </scstep>
  <scstep>
   <time name="total">  243.70  243.52</time>
   <energy>
    <i name="e_fr_energy">     -8.38151452 </i>
    <i name="e_wo_entrp">     -8.38065364 </i>
    <i name="e_0_energy">     -8.38122756 </i>
   </energy>
  </scstep>
  <scstep>
   <time name="total">  240.36  240.18</time>
   <energy>
    <i name="e_fr_energy">    -15.17506900 </i>
    <i name="e_wo_entrp">    -15.17522015 </i>
    <i name="e_0_energy">    -15.17511939 </i>
   </energy>
  </scstep>
  <scstep>
   <time name="total">  243.97  243.77</time>
   <energy>
    <i name="e_fr_energy">    -22.65002290 </i>
    <i name="e_wo_entrp">    -22.65039548 </i>
    <i name="e_0_energy">    -22.65014709 </i>
   </energy>
  </scstep>
  <scstep>
   <time name="total">  245.58  245.37</time>
   <energy>
    <i name="e_fr_energy">    -60.79472179 </i>
    <i name="e_wo_entrp">    -60.79536534 </i>
    <i name="e_0_energy">    -60.79493631 </i>
   </energy>
  </scstep>
  <scstep>
   <time name="total">  241.92  241.71</time>
   <energy>
    <i name="e_fr_energy">    -65.90079490 </i>
    <i name="e_wo_entrp">    -65.90151645 </i>
    <i name="e_0_energy">    -65.90103541 </i>
   </energy>
  </scstep>
  <scstep>
   <time name="total">  242.80  242.60</time>
   <energy>
    <i name="e_fr_energy">    -67.45164122 </i>
    <i name="e_wo_entrp">    -67.45211283 </i>
    <i name="e_0_energy">    -67.45179843 </i>
   </energy>
  </scstep>
  <scstep>
   <time name="total">  244.41  244.20</time>
   <energy>
    <i name="e_fr_energy">    -69.08010282 </i>
    <i name="e_wo_entrp">    -69.08084760 </i>
    <i name="e_0_energy">    -69.08035108 </i>
   </energy>
  </scstep>
  <scstep>
   <time name="total">  244.90  244.71</time>
   <energy>
    <i name="e_fr_energy">    -69.39344699 </i>
    <i name="e_wo_entrp">    -69.39433021 </i>
    <i name="e_0_energy">    -69.39374139 </i>
   </energy>
  </scstep>
  <scstep>
   <time name="total">  246.30  246.10</time>
   <energy>
    <i name="e_fr_energy">    -69.49797917 </i>
    <i name="e_wo_entrp">    -69.49874885 </i>
    <i name="e_0_energy">    -69.49823573 </i>
   </energy>
  </scstep>
  <scstep>
   <time name="total">  245.54  245.36</time>
   <energy>
    <i name="e_fr_energy">    -69.56823489 </i>
    <i name="e_wo_entrp">    -69.56886954 </i>
    <i name="e_0_energy">    -69.56844644 </i>
   </energy>
  </scstep>
  <scstep>
   <time name="total">  245.83  245.67</time>
   <energy>
    <i name="e_fr_energy">    -69.58055138 </i>
    <i name="e_wo_entrp">    -69.58112935 </i>
    <i name="e_0_energy">    -69.58074403 </i>
   </energy>
  </scstep>
  <scstep>
   <time name="total">  243.45  243.26</time>
   <energy>
    <i name="e_fr_energy">    -69.59030368 </i>
    <i name="e_wo_entrp">    -69.59087180 </i>
    <i name="e_0_energy">    -69.59049305 </i>
   </energy>
  </scstep>
  <scstep>
   <time name="total">  245.36  245.16</time>
   <energy>
    <i name="e_fr_energy">    -69.59277750 </i>
    <i name="e_wo_entrp">    -69.59336710 </i>
    <i name="e_0_energy">    -69.59297404 </i>
   </energy>
  </scstep>
  <scstep>
   <time name="total">  243.54  243.37</time>
   <energy>
    <i name="e_fr_energy">    -69.59429917 </i>
    <i name="e_wo_entrp">    -69.59490309 </i>
    <i name="e_0_energy">    -69.59450047 </i>
   </energy>
  </scstep>
  <scstep>
   <time name="total">  244.34  244.15</time>
   <energy>
    <i name="e_fr_energy">    -69.59487803 </i>
    <i name="e_wo_entrp">    -69.59548221 </i>
    <i name="e_0_energy">    -69.59507943 </i>
   </energy>
  </scstep>
  <scstep>
   <time name="total">  243.60  243.40</time>
   <energy>
    <i name="e_fr_energy">    -69.59505324 </i>
    <i name="e_wo_entrp">    -69.59565362 </i>
    <i name="e_0_energy">    -69.59525337 </i>
   </energy>
  </scstep>
  <scstep>
   <time name="total">  244.40  244.19</time>
   <energy>
    <i name="e_fr_energy">    -69.59517190 </i>
    <i name="e_wo_entrp">    -69.59576896 </i>
    <i name="e_0_energy">    -69.59537092 </i>
   </energy>
  </scstep>
  <scstep>
   <time name="total">  244.44  244.29</time>
   <energy>
    <i name="e_fr_energy">    -69.59520128 </i>
    <i name="e_wo_entrp">    -69.59579707 </i>
    <i name="e_0_energy">    -69.59539988 </i>
   </energy>
  </scstep>
  <scstep>
   <time name="total">  245.08  244.87</time>
   <energy>
    <i name="e_fr_energy">    -69.59522140 </i>
    <i name="e_wo_entrp">    -69.59581779 </i>
    <i name="e_0_energy">    -69.59542020 </i>
   </energy>
  </scstep>
  <scstep>
   <time name="total">  244.62  244.41</time>
   <energy>
    <i name="alphaZ">    339.31929130 </i>
    <i name="ewald">  -9065.20955894 </i>
    <i name="hartreedc">  -8148.93267400 </i>
    <i name="XCdc">    372.07112214 </i>
    <i name="pawpsdc">  15922.33549139 </i>
    <i name="pawaedc"> -16407.51430013 </i>
    <i name="eentropy">      0.00059704 </i>
    <i name="bandstr">  -1742.72040358 </i>
    <i name="atom">  18320.98302006 </i>
    <i name="e_fr_energy">    -69.59522896 </i>
    <i name="e_wo_entrp">    -69.59582599 </i>
    <i name="e_0_energy">    -69.59542797 </i>
   </energy>
  </scstep>
  <structure>
   <crystal>
    <varray name="basis" >
     <v>       3.22479600      -5.64383000       0.03157200 </v>
     <v>       3.22479600       5.64383000       0.03157200 </v>
     <v>      -2.10194600       0.00000000       6.07553700 </v>
    </varray>
    <i name="volume">    221.90106089 </i>
    <varray name="rec_basis" >
     <v>       0.15452516      -0.08859232       0.05346088 </v>
     <v>       0.15452516       0.08859232       0.05346088 </v>
     <v>      -0.00160600       0.00000000       0.16403888 </v>
    </varray>
   </crystal>
   <varray name="positions" >
    <v>       0.61844300       0.12117100       0.11953300 </v>
    <v>       0.12117100       0.61844300       0.61953300 </v>
    <v>       0.96295700       0.79032200       0.11881300 </v>
    <v>       0.79032200       0.96295700       0.61881300 </v>
    <v>       0.43973200       0.26728100       0.59904700 </v>
    <v>       0.26728100       0.43973200       0.09904700 </v>
    <v>       0.08103640       0.91167500       0.49736300 </v>
    <v>       0.57140300       0.41236400       0.98018400 </v>
    <v>       0.73711100       0.25006200       0.49504900 </v>
    <v>       0.41236400       0.57140300       0.48018400 </v>
    <v>       0.91167500       0.07949800       0.99736300 </v>
    <v>       0.25006200       0.73711100       0.99504900 </v>
   </varray>
  </structure>
  <varray name="forces" >
   <v>      -0.00294269      -0.00081736       0.00019219 </v>
   <v>      -0.01175954      -0.01402761       0.00724869 </v>
   <v>       0.00333890       0.00099887      -0.00246036 </v>
   <v>       0.01297920      -0.02455554      -0.00771637 </v>
   <v>       0.05522618      -0.00075351       0.01602244 </v>
   <v>       0.00221882      -0.00639975       0.00161612 </v>
   <v>      -0.07327305       0.07407797      -0.01069433 </v>
   <v>       0.00104585      -0.00652798       0.00378266 </v>
   <v>       0.01085572      -0.00538716      -0.00060801 </v>
   <v>       0.00262935      -0.00361422       0.00084510 </v>
   <v>       0.00160070      -0.00607202      -0.00585380 </v>
   <v>      -0.00191946      -0.00692169      -0.00237432 </v>
  </varray>
  <energy>
   <i name="e_fr_energy">    -69.59522896 </i>
   <i name="e_wo_entrp">    -69.59542797 </i>
   <i name="e_0_energy">      0.00059704 </i>
  </energy>
  <time name="totalsc"> 5574.51 5573.51</time>
  <eigenvalues>
   <array>
    <dimension dim="1">band</dimension>
    <dimension dim="2">kpoint</dimension>
    <dimension dim="3">spin</dimension>
    <field>eigene</field>
    <field>occ</field>
    <set>
     <set comment="spin 1">
      <set comment="kpoint 1">
       <r>  -68.6503    1.0000 </r>
       <r>  -68.6452    1.0000 </r>
       <r>  -68.6343    1.0000 </r>
       <r>  -68.6253    1.0000 </r>
       <r>  -68.6174    1.0000 </r>
       <r>  -68.6130    1.0000 </r>
       <r>  -68.5998    1.0000 </r>
       <r>  -68.5957    1.0000 </r>
       <r>  -68.5790    1.0000 </r>
       <r>  -68.5697    1.0000 </r>
       <r>  -68.5618    1.0000 </r>
       <r>  -68.5514    1.0000 </r>
       <r>  -12.7231    1.0000 </r>
       <r>  -11.1335    1.0000 </r>
       <r>  -10.9183    1.0000 </r>
       <r>  -10.6050    1.0000 </r>
       <r>  -10.2505    1.0000 </r>
       <r>  -10.2374    1.0000 </r>
       <r>   -5.9840    1.0000 </r>
       <r>   -4.9850    1.0000 </r>
       <r>   -2.7613    1.0000 </r>
       <r>   -2.2116    1.0000 </r>
       <r>   -2.0688    1.0000 </r>
       <r>   -1.9261    1.0000 </r>
       <r>   -1.5760    1.0000 </r>
       <r>   -0.9836    1.0000 </r>
       <r>   -0.9463    1.0000 </r>
       <r>   -0.6858    1.0000 </r>
       <r>   -0.4043    1.0000 </r>
       <r>   -0.2755    1.0000 </r>
       <r>   -0.2603    1.0000 </r>
       <r>   -0.2315    1.0000 </r>
       <r>   -0.1884    1.0000 </r>
       <r>   -0.1540    1.0000 </r>
       <r>   -0.0397    1.0000 </r>
       <r>    0.0307    1.0000 </r>
       <r>    1.3505    1.0000 </r>
       <r>    1.3628    1.0000 </r>
       <r>    1.4148    1.0000 </r>
       <r>    1.4591    1.0000 </r>
       <r>    1.4718    1.0000 </r>
       <r>    1.4753    1.0000 </r>
       <r>    1.5208    1.0000 </r>
       <r>    1.5334    1.0000 </r>
       <r>    1.5749    1.0000 </r>
       <r>    1.7136    1.0000 </r>
       <r>    1.8909    1.0000 </r>
       <r>    1.9272    1.0000 </r>
       <r>    2.0598    1.0000 </r>
       <r>    2.6539    1.0000 </r>
       <r>    2.7269    1.0000 </r>
       <r>    3.0916    1.0000 </r>
       <r>    3.2166    1.0000 </r>
       <r>    4.0042    1.0053 </r>
       <r>    4.0371    1.0147 </r>
       <r>    4.1694    0.8523 </r>
       <r>    5.5408   -0.0000 </r>
       <r>    6.3622   -0.0000 </r>
       <r>    7.6290    0.0000 </r>
       <r>    7.9873    0.0000 </r>
       <r>    8.6189    0.0000 </r>
       <r>    8.7932    0.0000 </r>
       <r>    9.5734    0.0000 </r>
       <r>    9.7401    0.0000 </r>
       <r>    9.8166    0.0000 </r>
       <r>   10.4215    0.0000 </r>
       <r>   10.5758    0.0000 </r>
       <r>   10.6978    0.0000 </r>
       <r>   10.7185    0.0000 </r>
       <r>   11.2824    0.0000 </r>
       <r>   11.7143    0.0000 </r>
       <r>   12.3903    0.0000 </r>
       <r>   12.4481    0.0000 </r>
       <r>   12.7286    0.0000 </r>
       <r>   13.3146    0.0000 </r>
       <r>   13.3867    0.0000 </r>
       <r>   13.8283    0.0000 </r>
       <r>   13.8863    0.0000 </r>
       <r>   14.1487    0.0000 </r>
       <r>   14.1829    0.0000 </r>
      </set>
      <set comment="kpoint 2">
       <r>  -68.6502    1.0000 </r>
       <r>  -68.6452    1.0000 </r>
       <r>  -68.6343    1.0000 </r>
       <r>  -68.6253    1.0000 </r>
       <r>  -68.6173    1.0000 </r>
       <r>  -68.6129    1.0000 </r>
       <r>  -68.5998    1.0000 </r>
       <r>  -68.5957    1.0000 </r>
       <r>  -68.5789    1.0000 </r>
       <r>  -68.5697    1.0000 </r>
       <r>  -68.5617    1.0000 </r>
       <r>  -68.5514    1.0000 </r>
       <r>  -12.5984    1.0000 </r>
       <r>  -11.1306    1.0000 </r>
       <r>  -10.9830    1.0000 </r>
       <r>  -10.6809    1.0000 </r>
       <r>  -10.3661    1.0000 </r>
       <r>  -10.2781    1.0000 </r>
       <r>   -5.9324    1.0000 </r>
       <r>   -4.7748    1.0000 </r>
       <r>   -2.6466    1.0000 </r>
       <r>   -2.2551    1.0000 </r>
       <r>   -2.0861    1.0000 </r>
       <r>   -1.6903    1.0000 </r>
       <r>   -1.3464    1.0000 </r>
       <r>   -0.9989    1.0000 </r>
       <r>   -0.7671    1.0000 </r>
       <r>   -0.6240    1.0000 </r>
       <r>   -0.5524    1.0000 </r>
       <r>   -0.4378    1.0000 </r>
       <r>   -0.3576    1.0000 </r>
       <r>   -0.2405    1.0000 </r>
       <r>   -0.1953    1.0000 </r>
       <r>   -0.1655    1.0000 </r>
       <r>   -0.0450    1.0000 </r>
       <r>    0.0389    1.0000 </r>
       <r>    1.2799    1.0000 </r>
       <r>    1.3385    1.0000 </r>
       <r>    1.3561    1.0000 </r>
       <r>    1.3916    1.0000 </r>
       <r>    1.4277    1.0000 </r>
       <r>    1.4721    1.0000 </r>
       <r>    1.4999    1.0000 </r>
       <r>    1.5306    1.0000 </r>
       <r>    1.7267    1.0000 </r>
       <r>    1.8582    1.0000 </r>
       <r>    2.0572    1.0000 </r>
       <r>    2.0954    1.0000 </r>
       <r>    2.2319    1.0000 </r>
       <r>    2.4138    1.0000 </r>
       <r>    2.5559    1.0000 </r>
       <r>    2.8261    1.0000 </r>
       <r>    2.9472    1.0000 </r>
       <r>    3.2422    1.0000 </r>
       <r>    3.6606    1.0000 </r>
       <r>    4.0372    1.0148 </r>
       <r>    6.1710   -0.0000 </r>
       <r>    6.9091   -0.0000 </r>
       <r>    8.1365    0.0000 </r>
       <r>    8.2683    0.0000 </r>
       <r>    8.5982    0.0000 </r>
       <r>    9.0205    0.0000 </r>
       <r>    9.2444    0.0000 </r>
       <r>    9.5298    0.0000 </r>
       <r>    9.8661    0.0000 </r>
       <r>   10.3787    0.0000 </r>
       <r>   10.6326    0.0000 </r>
       <r>   10.8103    0.0000 </r>
       <r>   10.9361    0.0000 </r>
       <r>   11.1924    0.0000 </r>
       <r>   11.6548    0.0000 </r>
       <r>   11.7725    0.0000 </r>
       <r>   12.1142    0.0000 </r>
       <r>   12.4399    0.0000 </r>
       <r>   12.6175    0.0000 </r>
       <r>   13.0099    0.0000 </r>
       <r>   13.5045    0.0000 </r>
       <r>   13.8753    0.0000 </r>
       <r>   14.2096    0.0000 </r>
       <r>   14.7122    0.0000 </r>
      </set>
      <set comment="kpoint 3">
       <r>  -68.6501    1.0000 </r>
       <r>  -68.6450    1.0000 </r>
       <r>  -68.6342    1.0000 </r>
       <r>  -68.6252    1.0000 </r>
       <r>  -68.6173    1.0000 </r>
       <r>  -68.6129    1.0000 </r>
       <r>  -68.5997    1.0000 </r>
       <r>  -68.5956    1.0000 </r>
       <r>  -68.5788    1.0000 </r>
       <r>  -68.5696    1.0000 </r>
       <r>  -68.5616    1.0000 </r>
       <r>  -68.5512    1.0000 </r>
       <r>  -12.4395    1.0000 </r>
       <r>  -11.2500    1.0000 </r>
       <r>  -10.9582    1.0000 </r>
       <r>  -10.7706    1.0000 </r>
       <r>  -10.4265    1.0000 </r>
       <r>  -10.3582    1.0000 </r>
       <r>   -5.8703    1.0000 </r>
       <r>   -4.5501    1.0000 </r>
       <r>   -2.4962    1.0000 </r>
       <r>   -2.2449    1.0000 </r>
       <r>   -1.9444    1.0000 </r>
       <r>   -1.4651    1.0000 </r>
       <r>   -1.2269    1.0000 </r>
       <r>   -1.1052    1.0000 </r>
       <r>   -0.9013    1.0000 </r>
       <r>   -0.8631    1.0000 </r>
       <r>   -0.6002    1.0000 </r>
       <r>   -0.5388    1.0000 </r>
       <r>   -0.2747    1.0000 </r>
       <r>   -0.2023    1.0000 </r>
       <r>   -0.1938    1.0000 </r>
       <r>   -0.1456    1.0000 </r>
       <r>   -0.0276    1.0000 </r>
       <r>    0.0796    1.0000 </r>
       <r>    1.2563    1.0000 </r>
       <r>    1.3297    1.0000 </r>
       <r>    1.3466    1.0000 </r>
       <r>    1.3982    1.0000 </r>
       <r>    1.4700    1.0000 </r>
       <r>    1.4820    1.0000 </r>
       <r>    1.5014    1.0000 </r>
       <r>    1.5528    1.0000 </r>
       <r>    1.7538    1.0000 </r>
       <r>    1.7914    1.0000 </r>
       <r>    1.9712    1.0000 </r>
       <r>    2.1466    1.0000 </r>
       <r>    2.3223    1.0000 </r>
       <r>    2.3629    1.0000 </r>
       <r>    2.5551    1.0000 </r>
       <r>    2.6695    1.0000 </r>
       <r>    2.9363    1.0000 </r>
       <r>    3.0804    1.0000 </r>
       <r>    3.2443    1.0000 </r>
       <r>    3.8592    1.0000 </r>
       <r>    6.3859   -0.0000 </r>
       <r>    7.1009    0.0000 </r>
       <r>    7.9905    0.0000 </r>
       <r>    8.2025    0.0000 </r>
       <r>    8.5176    0.0000 </r>
       <r>    8.8221    0.0000 </r>
       <r>    9.3277    0.0000 </r>
       <r>    9.8844    0.0000 </r>
       <r>   10.0147    0.0000 </r>
       <r>   10.5197    0.0000 </r>
       <r>   10.6902    0.0000 </r>
       <r>   10.7950    0.0000 </r>
       <r>   11.1402    0.0000 </r>
       <r>   11.4047    0.0000 </r>
       <r>   11.6134    0.0000 </r>
       <r>   11.7726    0.0000 </r>
       <r>   11.9398    0.0000 </r>
       <r>   12.4999    0.0000 </r>
       <r>   12.7794    0.0000 </r>
       <r>   12.9966    0.0000 </r>
       <r>   13.4012    0.0000 </r>
       <r>   13.5408    0.0000 </r>
       <r>   13.9440    0.0000 </r>
       <r>   14.2709    0.0000 </r>
      </set>
      <set comment="kpoint 4">
       <r>  -68.6503    1.0000 </r>
       <r>  -68.6451    1.0000 </r>
       <r>  -68.6342    1.0000 </r>
       <r>  -68.6253    1.0000 </r>
       <r>  -68.6173    1.0000 </r>
       <r>  -68.6129    1.0000 </r>
       <r>  -68.5998    1.0000 </r>
       <r>  -68.5957    1.0000 </r>
       <r>  -68.5789    1.0000 </r>
       <r>  -68.5697    1.0000 </r>
       <r>  -68.5617    1.0000 </r>
       <r>  -68.5514    1.0000 </r>
       <r>  -12.5979    1.0000 </r>
       <r>  -11.1333    1.0000 </r>
       <r>  -10.9829    1.0000 </r>
       <r>  -10.6776    1.0000 </r>
       <r>  -10.3659    1.0000 </r>
       <r>  -10.2796    1.0000 </r>
       <r>   -5.9325    1.0000 </r>
       <r>   -4.7731    1.0000 </r>
       <r>   -2.6469    1.0000 </r>
       <r>   -2.2546    1.0000 </r>
       <r>   -2.0863    1.0000 </r>
       <r>   -1.6899    1.0000 </r>
       <r>   -1.3469    1.0000 </r>
       <r>   -1.0001    1.0000 </r>
       <r>   -0.7681    1.0000 </r>
       <r>   -0.6212    1.0000 </r>
       <r>   -0.5549    1.0000 </r>
       <r>   -0.4394    1.0000 </r>
       <r>   -0.3581    1.0000 </r>
       <r>   -0.2411    1.0000 </r>
       <r>   -0.1937    1.0000 </r>
       <r>   -0.1622    1.0000 </r>
       <r>   -0.0469    1.0000 </r>
       <r>    0.0388    1.0000 </r>
       <r>    1.2794    1.0000 </r>
       <r>    1.3365    1.0000 </r>
       <r>    1.3558    1.0000 </r>
       <r>    1.3938    1.0000 </r>
       <r>    1.4266    1.0000 </r>
       <r>    1.4726    1.0000 </r>
       <r>    1.4979    1.0000 </r>
       <r>    1.5329    1.0000 </r>
       <r>    1.7258    1.0000 </r>
       <r>    1.8605    1.0000 </r>
       <r>    2.0579    1.0000 </r>
       <r>    2.0921    1.0000 </r>
       <r>    2.2314    1.0000 </r>
       <r>    2.4139    1.0000 </r>
       <r>    2.5563    1.0000 </r>
       <r>    2.8272    1.0000 </r>
       <r>    2.9478    1.0000 </r>
       <r>    3.2419    1.0000 </r>
       <r>    3.6599    1.0000 </r>
       <r>    4.0374    1.0149 </r>
       <r>    6.1728   -0.0000 </r>
       <r>    6.9103   -0.0000 </r>
       <r>    8.1405    0.0000 </r>
       <r>    8.2698    0.0000 </r>
       <r>    8.5932    0.0000 </r>
       <r>    9.0122    0.0000 </r>
       <r>    9.2433    0.0000 </r>
       <r>    9.5396    0.0000 </r>
       <r>    9.8628    0.0000 </r>
       <r>   10.3783    0.0000 </r>
       <r>   10.6347    0.0000 </r>
       <r>   10.8134    0.0000 </r>
       <r>   10.9376    0.0000 </r>
       <r>   11.1902    0.0000 </r>
       <r>   11.6564    0.0000 </r>
       <r>   11.7697    0.0000 </r>
       <r>   12.1155    0.0000 </r>
       <r>   12.4414    0.0000 </r>
       <r>   12.6187    0.0000 </r>
       <r>   13.0081    0.0000 </r>
       <r>   13.5178    0.0000 </r>
       <r>   13.8946    0.0000 </r>
       <r>   14.2736    0.0000 </r>
       <r>   14.8423    0.0000 </r>
      </set>
      <set comment="kpoint 5">
       <r>  -68.6503    1.0000 </r>
       <r>  -68.6452    1.0000 </r>
       <r>  -68.6341    1.0000 </r>
       <r>  -68.6252    1.0000 </r>
       <r>  -68.6174    1.0000 </r>
       <r>  -68.6131    1.0000 </r>
       <r>  -68.5997    1.0000 </r>
       <r>  -68.5956    1.0000 </r>
       <r>  -68.5790    1.0000 </r>
       <r>  -68.5698    1.0000 </r>
       <r>  -68.5618    1.0000 </r>
       <r>  -68.5514    1.0000 </r>
       <r>  -12.4427    1.0000 </r>
       <r>  -11.1956    1.0000 </r>
       <r>  -10.9437    1.0000 </r>
       <r>  -10.8794    1.0000 </r>
       <r>  -10.3925    1.0000 </r>
       <r>  -10.3504    1.0000 </r>
       <r>   -5.8753    1.0000 </r>
       <r>   -4.5217    1.0000 </r>
       <r>   -2.4189    1.0000 </r>
       <r>   -2.2483    1.0000 </r>
       <r>   -1.7907    1.0000 </r>
       <r>   -1.6842    1.0000 </r>
       <r>   -1.3566    1.0000 </r>
       <r>   -1.3004    1.0000 </r>
       <r>   -1.0816    1.0000 </r>
       <r>   -0.6830    1.0000 </r>
       <r>   -0.5244    1.0000 </r>
       <r>   -0.2972    1.0000 </r>
       <r>   -0.2826    1.0000 </r>
       <r>   -0.2227    1.0000 </r>
       <r>   -0.1814    1.0000 </r>
       <r>   -0.1259    1.0000 </r>
       <r>   -0.0906    1.0000 </r>
       <r>    0.0793    1.0000 </r>
       <r>    1.2941    1.0000 </r>
       <r>    1.3122    1.0000 </r>
       <r>    1.4157    1.0000 </r>
       <r>    1.4265    1.0000 </r>
       <r>    1.4634    1.0000 </r>
       <r>    1.4833    1.0000 </r>
       <r>    1.4973    1.0000 </r>
       <r>    1.5722    1.0000 </r>
       <r>    1.6724    1.0000 </r>
       <r>    1.8800    1.0000 </r>
       <r>    1.9418    1.0000 </r>
       <r>    2.1353    1.0000 </r>
       <r>    2.2793    1.0000 </r>
       <r>    2.3212    1.0000 </r>
       <r>    2.5593    1.0000 </r>
       <r>    2.6505    1.0000 </r>
       <r>    2.9043    1.0000 </r>
       <r>    2.9438    1.0000 </r>
       <r>    3.6956    1.0000 </r>
       <r>    3.8295    1.0000 </r>
       <r>    6.1736   -0.0000 </r>
       <r>    6.9920    0.0000 </r>
       <r>    8.0049    0.0000 </r>
       <r>    8.3345    0.0000 </r>
       <r>    8.4363    0.0000 </r>
       <r>    8.5729    0.0000 </r>
       <r>    9.1463    0.0000 </r>
       <r>    9.2508    0.0000 </r>
       <r>   10.3611    0.0000 </r>
       <r>   10.4983    0.0000 </r>
       <r>   10.9217    0.0000 </r>
       <r>   11.1839    0.0000 </r>
       <r>   11.3255    0.0000 </r>
       <r>   11.5585    0.0000 </r>
       <r>   11.8097    0.0000 </r>
       <r>   11.9628    0.0000 </r>
       <r>   12.3099    0.0000 </r>
       <r>   12.5021    0.0000 </r>
       <r>   12.7078    0.0000 </r>
       <r>   12.9190    0.0000 </r>
       <r>   13.3393    0.0000 </r>
       <r>   13.4438    0.0000 </r>
       <r>   14.2572    0.0000 </r>
       <r>   14.3677    0.0000 </r>
      </set>
      <set comment="kpoint 6">
       <r>  -68.6501    1.0000 </r>
       <r>  -68.6449    1.0000 </r>
       <r>  -68.6342    1.0000 </r>
       <r>  -68.6252    1.0000 </r>
       <r>  -68.6172    1.0000 </r>
       <r>  -68.6129    1.0000 </r>
       <r>  -68.5997    1.0000 </r>
       <r>  -68.5957    1.0000 </r>
       <r>  -68.5788    1.0000 </r>
       <r>  -68.5696    1.0000 </r>
       <r>  -68.5616    1.0000 </r>
       <r>  -68.5512    1.0000 </r>
       <r>  -12.4431    1.0000 </r>
       <r>  -11.3575    1.0000 </r>
       <r>  -10.9388    1.0000 </r>
       <r>  -10.7414    1.0000 </r>
       <r>  -10.3887    1.0000 </r>
       <r>  -10.2725    1.0000 </r>
       <r>   -5.9475    1.0000 </r>
       <r>   -4.6431    1.0000 </r>
       <r>   -2.3926    1.0000 </r>
       <r>   -2.2275    1.0000 </r>
       <r>   -2.0581    1.0000 </r>
       <r>   -1.6411    1.0000 </r>
       <r>   -1.3625    1.0000 </r>
       <r>   -1.2820    1.0000 </r>
       <r>   -1.0249    1.0000 </r>
       <r>   -0.5115    1.0000 </r>
       <r>   -0.4782    1.0000 </r>
       <r>   -0.3321    1.0000 </r>
       <r>   -0.2818    1.0000 </r>
       <r>   -0.2127    1.0000 </r>
       <r>   -0.1501    1.0000 </r>
       <r>   -0.1363    1.0000 </r>
       <r>   -0.0098    1.0000 </r>
       <r>    0.1136    1.0000 </r>
       <r>    1.2470    1.0000 </r>
       <r>    1.3161    1.0000 </r>
       <r>    1.3837    1.0000 </r>
       <r>    1.4386    1.0000 </r>
       <r>    1.4626    1.0000 </r>
       <r>    1.4929    1.0000 </r>
       <r>    1.4985    1.0000 </r>
       <r>    1.5502    1.0000 </r>
       <r>    1.7483    1.0000 </r>
       <r>    1.8295    1.0000 </r>
       <r>    1.9228    1.0000 </r>
       <r>    2.1344    1.0000 </r>
       <r>    2.2212    1.0000 </r>
       <r>    2.3847    1.0000 </r>
       <r>    2.5603    1.0000 </r>
       <r>    2.7920    1.0000 </r>
       <r>    2.9770    1.0000 </r>
       <r>    3.3121    1.0000 </r>
       <r>    3.6018    1.0000 </r>
       <r>    3.7458    1.0000 </r>
       <r>    6.0895   -0.0000 </r>
       <r>    6.9428   -0.0000 </r>
       <r>    7.6130    0.0000 </r>
       <r>    8.0705    0.0000 </r>
       <r>    8.4154    0.0000 </r>
       <r>    8.6199    0.0000 </r>
       <r>    8.9830    0.0000 </r>
       <r>    9.1494    0.0000 </r>
       <r>   10.0921    0.0000 </r>
       <r>   10.3372    0.0000 </r>
       <r>   10.7280    0.0000 </r>
       <r>   11.1097    0.0000 </r>
       <r>   11.4552    0.0000 </r>
       <r>   11.5980    0.0000 </r>
       <r>   11.7972    0.0000 </r>
       <r>   12.0819    0.0000 </r>
       <r>   12.4778    0.0000 </r>
       <r>   12.9168    0.0000 </r>
       <r>   13.0367    0.0000 </r>
       <r>   13.8314    0.0000 </r>
       <r>   14.2231    0.0000 </r>
       <r>   14.6574    0.0000 </r>
       <r>   15.4259    0.0000 </r>
       <r>   15.6434    0.0000 </r>
      </set>
      <set comment="kpoint 7">
       <r>  -68.6503    1.0000 </r>
       <r>  -68.6452    1.0000 </r>
       <r>  -68.6342    1.0000 </r>
       <r>  -68.6252    1.0000 </r>
       <r>  -68.6172    1.0000 </r>
       <r>  -68.6129    1.0000 </r>
       <r>  -68.5998    1.0000 </r>
       <r>  -68.5957    1.0000 </r>
       <r>  -68.5788    1.0000 </r>
       <r>  -68.5696    1.0000 </r>
       <r>  -68.5617    1.0000 </r>
       <r>  -68.5514    1.0000 </r>
       <r>  -12.6009    1.0000 </r>
       <r>  -11.2563    1.0000 </r>
       <r>  -10.9918    1.0000 </r>
       <r>  -10.5733    1.0000 </r>
       <r>  -10.3657    1.0000 </r>
       <r>  -10.1815    1.0000 </r>
       <r>   -6.0098    1.0000 </r>
       <r>   -4.8952    1.0000 </r>
       <r>   -2.6477    1.0000 </r>
       <r>   -2.3146    1.0000 </r>
       <r>   -1.9721    1.0000 </r>
       <r>   -1.6495    1.0000 </r>
       <r>   -1.4934    1.0000 </r>
       <r>   -1.1866    1.0000 </r>
       <r>   -0.7913    1.0000 </r>
       <r>   -0.5785    1.0000 </r>
       <r>   -0.4471    1.0000 </r>
       <r>   -0.3333    1.0000 </r>
       <r>   -0.2944    1.0000 </r>
       <r>   -0.2314    1.0000 </r>
       <r>   -0.1732    1.0000 </r>
       <r>   -0.1326    1.0000 </r>
       <r>   -0.0091    1.0000 </r>
       <r>    0.0720    1.0000 </r>
       <r>    1.2596    1.0000 </r>
       <r>    1.3218    1.0000 </r>
       <r>    1.3640    1.0000 </r>
       <r>    1.4247    1.0000 </r>
       <r>    1.4335    1.0000 </r>
       <r>    1.4772    1.0000 </r>
       <r>    1.5057    1.0000 </r>
       <r>    1.5425    1.0000 </r>
       <r>    1.7243    1.0000 </r>
       <r>    1.8141    1.0000 </r>
       <r>    1.9957    1.0000 </r>
       <r>    2.0730    1.0000 </r>
       <r>    2.4152    1.0000 </r>
       <r>    2.4635    1.0000 </r>
       <r>    2.5296    1.0000 </r>
       <r>    2.8720    1.0000 </r>
       <r>    3.1414    1.0000 </r>
       <r>    3.2269    1.0000 </r>
       <r>    3.7823    1.0000 </r>
       <r>    4.0683    1.0286 </r>
       <r>    5.9824   -0.0000 </r>
       <r>    6.6929   -0.0000 </r>
       <r>    7.5356    0.0000 </r>
       <r>    8.2240    0.0000 </r>
       <r>    8.6186    0.0000 </r>
       <r>    8.9174    0.0000 </r>
       <r>    9.3035    0.0000 </r>
       <r>    9.4352    0.0000 </r>
       <r>    9.8053    0.0000 </r>
       <r>   10.2709    0.0000 </r>
       <r>   10.5463    0.0000 </r>
       <r>   10.8336    0.0000 </r>
       <r>   10.9696    0.0000 </r>
       <r>   11.3813    0.0000 </r>
       <r>   11.4672    0.0000 </r>
       <r>   11.7340    0.0000 </r>
       <r>   12.0978    0.0000 </r>
       <r>   12.6657    0.0000 </r>
       <r>   12.9419    0.0000 </r>
       <r>   13.1023    0.0000 </r>
       <r>   13.3531    0.0000 </r>
       <r>   13.5176    0.0000 </r>
       <r>   14.4706    0.0000 </r>
       <r>   14.7567    0.0000 </r>
      </set>
      <set comment="kpoint 8">
       <r>  -68.6501    1.0000 </r>
       <r>  -68.6450    1.0000 </r>
       <r>  -68.6342    1.0000 </r>
       <r>  -68.6252    1.0000 </r>
       <r>  -68.6173    1.0000 </r>
       <r>  -68.6129    1.0000 </r>
       <r>  -68.5997    1.0000 </r>
       <r>  -68.5957    1.0000 </r>
       <r>  -68.5789    1.0000 </r>
       <r>  -68.5696    1.0000 </r>
       <r>  -68.5616    1.0000 </r>
       <r>  -68.5513    1.0000 </r>
       <r>  -12.4382    1.0000 </r>
       <r>  -11.2560    1.0000 </r>
       <r>  -10.9574    1.0000 </r>
       <r>  -10.7643    1.0000 </r>
       <r>  -10.4264    1.0000 </r>
       <r>  -10.3611    1.0000 </r>
       <r>   -5.8702    1.0000 </r>
       <r>   -4.5463    1.0000 </r>
       <r>   -2.4952    1.0000 </r>
       <r>   -2.2464    1.0000 </r>
       <r>   -1.9492    1.0000 </r>
       <r>   -1.4671    1.0000 </r>
       <r>   -1.2261    1.0000 </r>
       <r>   -1.1001    1.0000 </r>
       <r>   -0.9035    1.0000 </r>
       <r>   -0.8624    1.0000 </r>
       <r>   -0.6024    1.0000 </r>
       <r>   -0.5351    1.0000 </r>
       <r>   -0.2720    1.0000 </r>
       <r>   -0.2046    1.0000 </r>
       <r>   -0.1953    1.0000 </r>
       <r>   -0.1450    1.0000 </r>
       <r>   -0.0307    1.0000 </r>
       <r>    0.0804    1.0000 </r>
       <r>    1.2548    1.0000 </r>
       <r>    1.3277    1.0000 </r>
       <r>    1.3493    1.0000 </r>
       <r>    1.3969    1.0000 </r>
       <r>    1.4723    1.0000 </r>
       <r>    1.4795    1.0000 </r>
       <r>    1.4989    1.0000 </r>
       <r>    1.5549    1.0000 </r>
       <r>    1.7534    1.0000 </r>
       <r>    1.7940    1.0000 </r>
       <r>    1.9666    1.0000 </r>
       <r>    2.1476    1.0000 </r>
       <r>    2.3198    1.0000 </r>
       <r>    2.3630    1.0000 </r>
       <r>    2.5532    1.0000 </r>
       <r>    2.6701    1.0000 </r>
       <r>    2.9416    1.0000 </r>
       <r>    3.0802    1.0000 </r>
       <r>    3.2466    1.0000 </r>
       <r>    3.8591    1.0000 </r>
       <r>    6.3876   -0.0000 </r>
       <r>    7.0994    0.0000 </r>
       <r>    7.9806    0.0000 </r>
       <r>    8.2049    0.0000 </r>
       <r>    8.5224    0.0000 </r>
       <r>    8.8233    0.0000 </r>
       <r>    9.3341    0.0000 </r>
       <r>    9.8889    0.0000 </r>
       <r>   10.0086    0.0000 </r>
       <r>   10.5207    0.0000 </r>
       <r>   10.6972    0.0000 </r>
       <r>   10.7951    0.0000 </r>
       <r>   11.1450    0.0000 </r>
       <r>   11.4035    0.0000 </r>
       <r>   11.6097    0.0000 </r>
       <r>   11.7651    0.0000 </r>
       <r>   11.9401    0.0000 </r>
       <r>   12.5065    0.0000 </r>
       <r>   12.8266    0.0000 </r>
       <r>   13.0278    0.0000 </r>
       <r>   13.5517    0.0000 </r>
       <r>   13.6866    0.0000 </r>
       <r>   14.5514    0.0000 </r>
       <r>   15.2482    0.0000 </r>
      </set>
      <set comment="kpoint 9">
       <r>  -68.6501    1.0000 </r>
       <r>  -68.6449    1.0000 </r>
       <r>  -68.6342    1.0000 </r>
       <r>  -68.6252    1.0000 </r>
       <r>  -68.6172    1.0000 </r>
       <r>  -68.6129    1.0000 </r>
       <r>  -68.5997    1.0000 </r>
       <r>  -68.5957    1.0000 </r>
       <r>  -68.5788    1.0000 </r>
       <r>  -68.5696    1.0000 </r>
       <r>  -68.5616    1.0000 </r>
       <r>  -68.5513    1.0000 </r>
       <r>  -12.4424    1.0000 </r>
       <r>  -11.3600    1.0000 </r>
       <r>  -10.9385    1.0000 </r>
       <r>  -10.7389    1.0000 </r>
       <r>  -10.3888    1.0000 </r>
       <r>  -10.2736    1.0000 </r>
       <r>   -5.9474    1.0000 </r>
       <r>   -4.6417    1.0000 </r>
       <r>   -2.3926    1.0000 </r>
       <r>   -2.2273    1.0000 </r>
       <r>   -2.0584    1.0000 </r>
       <r>   -1.6396    1.0000 </r>
       <r>   -1.3623    1.0000 </r>
       <r>   -1.2832    1.0000 </r>
       <r>   -1.0260    1.0000 </r>
       <r>   -0.5118    1.0000 </r>
       <r>   -0.4855    1.0000 </r>
       <r>   -0.3270    1.0000 </r>
       <r>   -0.2830    1.0000 </r>
       <r>   -0.2125    1.0000 </r>
       <r>   -0.1459    1.0000 </r>
       <r>   -0.1354    1.0000 </r>
       <r>   -0.0121    1.0000 </r>
       <r>    0.1129    1.0000 </r>
       <r>    1.2469    1.0000 </r>
       <r>    1.3151    1.0000 </r>
       <r>    1.3828    1.0000 </r>
       <r>    1.4375    1.0000 </r>
       <r>    1.4610    1.0000 </r>
       <r>    1.4934    1.0000 </r>
       <r>    1.4983    1.0000 </r>
       <r>    1.5529    1.0000 </r>
       <r>    1.7501    1.0000 </r>
       <r>    1.8290    1.0000 </r>
       <r>    1.9212    1.0000 </r>
       <r>    2.1341    1.0000 </r>
       <r>    2.2203    1.0000 </r>
       <r>    2.3856    1.0000 </r>
       <r>    2.5616    1.0000 </r>
       <r>    2.7895    1.0000 </r>
       <r>    2.9803    1.0000 </r>
       <r>    3.3112    1.0000 </r>
       <r>    3.6021    1.0000 </r>
       <r>    3.7462    1.0000 </r>
       <r>    6.0907   -0.0000 </r>
       <r>    6.9444   -0.0000 </r>
       <r>    7.6143    0.0000 </r>
       <r>    8.0718    0.0000 </r>
       <r>    8.4121    0.0000 </r>
       <r>    8.6142    0.0000 </r>
       <r>    8.9863    0.0000 </r>
       <r>    9.1521    0.0000 </r>
       <r>   10.0870    0.0000 </r>
       <r>   10.3362    0.0000 </r>
       <r>   10.7334    0.0000 </r>
       <r>   11.1070    0.0000 </r>
       <r>   11.4545    0.0000 </r>
       <r>   11.5777    0.0000 </r>
       <r>   11.7878    0.0000 </r>
       <r>   12.0350    0.0000 </r>
       <r>   12.5032    0.0000 </r>
       <r>   12.6626    0.0000 </r>
       <r>   12.9084    0.0000 </r>
       <r>   13.2103    0.0000 </r>
       <r>   14.2194    0.0000 </r>
       <r>   14.7166    0.0000 </r>
       <r>   15.1722    0.0000 </r>
       <r>   15.9005    0.0000 </r>
      </set>
      <set comment="kpoint 10">
       <r>  -68.6499    1.0000 </r>
       <r>  -68.6448    1.0000 </r>
       <r>  -68.6340    1.0000 </r>
       <r>  -68.6250    1.0000 </r>
       <r>  -68.6171    1.0000 </r>
       <r>  -68.6128    1.0000 </r>
       <r>  -68.5995    1.0000 </r>
       <r>  -68.5955    1.0000 </r>
       <r>  -68.5787    1.0000 </r>
       <r>  -68.5695    1.0000 </r>
       <r>  -68.5614    1.0000 </r>
       <r>  -68.5511    1.0000 </r>
       <r>  -12.4343    1.0000 </r>
       <r>  -11.5064    1.0000 </r>
       <r>  -10.9136    1.0000 </r>
       <r>  -10.6205    1.0000 </r>
       <r>  -10.3976    1.0000 </r>
       <r>  -10.2004    1.0000 </r>
       <r>   -6.0262    1.0000 </r>
       <r>   -4.8105    1.0000 </r>
       <r>   -2.3113    1.0000 </r>
       <r>   -2.2649    1.0000 </r>
       <r>   -2.0955    1.0000 </r>
       <r>   -1.7023    1.0000 </r>
       <r>   -1.2470    1.0000 </r>
       <r>   -1.1136    1.0000 </r>
       <r>   -0.8453    1.0000 </r>
       <r>   -0.7763    1.0000 </r>
       <r>   -0.7274    1.0000 </r>
       <r>   -0.2432    1.0000 </r>
       <r>   -0.1982    1.0000 </r>
       <r>   -0.1797    1.0000 </r>
       <r>   -0.1520    1.0000 </r>
       <r>   -0.0416    1.0000 </r>
       <r>   -0.0011    1.0000 </r>
       <r>    0.1861    1.0000 </r>
       <r>    1.2685    1.0000 </r>
       <r>    1.3178    1.0000 </r>
       <r>    1.3755    1.0000 </r>
       <r>    1.4151    1.0000 </r>
       <r>    1.4350    1.0000 </r>
       <r>    1.4920    1.0000 </r>
       <r>    1.5094    1.0000 </r>
       <r>    1.5497    1.0000 </r>
       <r>    1.7889    1.0000 </r>
       <r>    1.8486    1.0000 </r>
       <r>    1.9968    1.0000 </r>
       <r>    2.1512    1.0000 </r>
       <r>    2.2522    1.0000 </r>
       <r>    2.3377    1.0000 </r>
       <r>    2.5584    1.0000 </r>
       <r>    2.7626    1.0000 </r>
       <r>    2.7712    1.0000 </r>
       <r>    3.3685    1.0000 </r>
       <r>    3.7604    1.0000 </r>
       <r>    4.0075    1.0060 </r>
       <r>    5.8580   -0.0000 </r>
       <r>    6.7679   -0.0000 </r>
       <r>    7.0870    0.0000 </r>
       <r>    8.4139    0.0000 </r>
       <r>    8.5626    0.0000 </r>
       <r>    8.7793    0.0000 </r>
       <r>    9.1367    0.0000 </r>
       <r>    9.2437    0.0000 </r>
       <r>    9.9615    0.0000 </r>
       <r>   10.2894    0.0000 </r>
       <r>   10.7250    0.0000 </r>
       <r>   10.8278    0.0000 </r>
       <r>   10.8682    0.0000 </r>
       <r>   11.2756    0.0000 </r>
       <r>   11.7558    0.0000 </r>
       <r>   11.9072    0.0000 </r>
       <r>   11.9746    0.0000 </r>
       <r>   12.3727    0.0000 </r>
       <r>   12.5389    0.0000 </r>
       <r>   13.4507    0.0000 </r>
       <r>   14.2867    0.0000 </r>
       <r>   14.6792    0.0000 </r>
       <r>   16.7445    0.0000 </r>
       <r>   16.7558    0.0000 </r>
      </set>
      <set comment="kpoint 11">
       <r>  -68.6503    1.0000 </r>
       <r>  -68.6452    1.0000 </r>
       <r>  -68.6343    1.0000 </r>
       <r>  -68.6253    1.0000 </r>
       <r>  -68.6173    1.0000 </r>
       <r>  -68.6130    1.0000 </r>
       <r>  -68.5998    1.0000 </r>
       <r>  -68.5957    1.0000 </r>
       <r>  -68.5789    1.0000 </r>
       <r>  -68.5697    1.0000 </r>
       <r>  -68.5618    1.0000 </r>
       <r>  -68.5514    1.0000 </r>
       <r>  -12.6199    1.0000 </r>
       <r>  -11.4283    1.0000 </r>
       <r>  -10.7805    1.0000 </r>
       <r>  -10.6101    1.0000 </r>
       <r>  -10.2495    1.0000 </r>
       <r>  -10.2391    1.0000 </r>
       <r>   -5.8306    1.0000 </r>
       <r>   -5.0484    1.0000 </r>
       <r>   -2.6013    1.0000 </r>
       <r>   -2.3718    1.0000 </r>
       <r>   -1.9647    1.0000 </r>
       <r>   -1.7762    1.0000 </r>
       <r>   -1.4448    1.0000 </r>
       <r>   -1.1218    1.0000 </r>
       <r>   -1.0655    1.0000 </r>
       <r>   -0.7730    1.0000 </r>
       <r>   -0.4699    1.0000 </r>
       <r>   -0.2930    1.0000 </r>
       <r>   -0.2372    1.0000 </r>
       <r>   -0.2316    1.0000 </r>
       <r>   -0.1918    1.0000 </r>
       <r>   -0.1454    1.0000 </r>
       <r>   -0.0169    1.0000 </r>
       <r>    0.0244    1.0000 </r>
       <r>    1.3339    1.0000 </r>
       <r>    1.3820    1.0000 </r>
       <r>    1.4154    1.0000 </r>
       <r>    1.4404    1.0000 </r>
       <r>    1.4645    1.0000 </r>
       <r>    1.4695    1.0000 </r>
       <r>    1.5157    1.0000 </r>
       <r>    1.5470    1.0000 </r>
       <r>    1.6333    1.0000 </r>
       <r>    1.7595    1.0000 </r>
       <r>    1.7864    1.0000 </r>
       <r>    1.9493    1.0000 </r>
       <r>    2.0893    1.0000 </r>
       <r>    2.6584    1.0000 </r>
       <r>    2.7211    1.0000 </r>
       <r>    3.1953    1.0000 </r>
       <r>    3.2518    1.0000 </r>
       <r>    3.5192    1.0000 </r>
       <r>    3.8930    1.0000 </r>
       <r>    3.9753    1.0017 </r>
       <r>    6.0488   -0.0000 </r>
       <r>    6.4201   -0.0000 </r>
       <r>    7.8265    0.0000 </r>
       <r>    7.9062    0.0000 </r>
       <r>    8.3685    0.0000 </r>
       <r>    8.8189    0.0000 </r>
       <r>    9.7787    0.0000 </r>
       <r>    9.7961    0.0000 </r>
       <r>   10.0625    0.0000 </r>
       <r>   10.5850    0.0000 </r>
       <r>   10.6464    0.0000 </r>
       <r>   10.8154    0.0000 </r>
       <r>   10.8582    0.0000 </r>
       <r>   11.4933    0.0000 </r>
       <r>   11.5538    0.0000 </r>
       <r>   12.0244    0.0000 </r>
       <r>   12.5796    0.0000 </r>
       <r>   12.7744    0.0000 </r>
       <r>   12.9140    0.0000 </r>
       <r>   13.2040    0.0000 </r>
       <r>   13.5308    0.0000 </r>
       <r>   13.8216    0.0000 </r>
       <r>   14.2010    0.0000 </r>
       <r>   14.6967    0.0000 </r>
      </set>
      <set comment="kpoint 12">
       <r>  -68.6502    1.0000 </r>
       <r>  -68.6451    1.0000 </r>
       <r>  -68.6342    1.0000 </r>
       <r>  -68.6252    1.0000 </r>
       <r>  -68.6174    1.0000 </r>
       <r>  -68.6130    1.0000 </r>
       <r>  -68.5997    1.0000 </r>
       <r>  -68.5957    1.0000 </r>
       <r>  -68.5789    1.0000 </r>
       <r>  -68.5697    1.0000 </r>
       <r>  -68.5617    1.0000 </r>
       <r>  -68.5514    1.0000 </r>
       <r>  -12.4612    1.0000 </r>
       <r>  -11.4694    1.0000 </r>
       <r>  -10.8642    1.0000 </r>
       <r>  -10.6932    1.0000 </r>
       <r>  -10.3751    1.0000 </r>
       <r>  -10.2450    1.0000 </r>
       <r>   -5.7663    1.0000 </r>
       <r>   -4.8057    1.0000 </r>
       <r>   -2.4471    1.0000 </r>
       <r>   -2.2327    1.0000 </r>
       <r>   -1.8518    1.0000 </r>
       <r>   -1.7121    1.0000 </r>
       <r>   -1.4360    1.0000 </r>
       <r>   -1.1889    1.0000 </r>
       <r>   -0.8888    1.0000 </r>
       <r>   -0.7466    1.0000 </r>
       <r>   -0.6035    1.0000 </r>
       <r>   -0.5248    1.0000 </r>
       <r>   -0.3106    1.0000 </r>
       <r>   -0.2436    1.0000 </r>
       <r>   -0.1747    1.0000 </r>
       <r>   -0.1189    1.0000 </r>
       <r>   -0.0510    1.0000 </r>
       <r>    0.0631    1.0000 </r>
       <r>    1.3023    1.0000 </r>
       <r>    1.3357    1.0000 </r>
       <r>    1.3696    1.0000 </r>
       <r>    1.4358    1.0000 </r>
       <r>    1.4466    1.0000 </r>
       <r>    1.4788    1.0000 </r>
       <r>    1.5218    1.0000 </r>
       <r>    1.5482    1.0000 </r>
       <r>    1.6440    1.0000 </r>
       <r>    1.8705    1.0000 </r>
       <r>    1.9797    1.0000 </r>
       <r>    2.0486    1.0000 </r>
       <r>    2.1953    1.0000 </r>
       <r>    2.4763    1.0000 </r>
       <r>    2.5959    1.0000 </r>
       <r>    2.8383    1.0000 </r>
       <r>    2.9638    1.0000 </r>
       <r>    3.1323    1.0000 </r>
       <r>    3.5651    1.0000 </r>
       <r>    3.7226    1.0000 </r>
       <r>    6.4426   -0.0000 </r>
       <r>    6.9592    0.0000 </r>
       <r>    8.1736    0.0000 </r>
       <r>    8.2491    0.0000 </r>
       <r>    8.8336    0.0000 </r>
       <r>    9.1310    0.0000 </r>
       <r>    9.4721    0.0000 </r>
       <r>    9.7981    0.0000 </r>
       <r>   10.0864    0.0000 </r>
       <r>   10.2950    0.0000 </r>
       <r>   10.7368    0.0000 </r>
       <r>   11.0789    0.0000 </r>
       <r>   11.2915    0.0000 </r>
       <r>   11.4191    0.0000 </r>
       <r>   11.6313    0.0000 </r>
       <r>   11.7224    0.0000 </r>
       <r>   12.0858    0.0000 </r>
       <r>   12.2630    0.0000 </r>
       <r>   12.5464    0.0000 </r>
       <r>   12.6570    0.0000 </r>
       <r>   12.9533    0.0000 </r>
       <r>   13.0627    0.0000 </r>
       <r>   13.6390    0.0000 </r>
       <r>   14.6904    0.0000 </r>
      </set>
      <set comment="kpoint 13">
       <r>  -68.6501    1.0000 </r>
       <r>  -68.6449    1.0000 </r>
       <r>  -68.6342    1.0000 </r>
       <r>  -68.6251    1.0000 </r>
       <r>  -68.6172    1.0000 </r>
       <r>  -68.6129    1.0000 </r>
       <r>  -68.5997    1.0000 </r>
       <r>  -68.5956    1.0000 </r>
       <r>  -68.5788    1.0000 </r>
       <r>  -68.5696    1.0000 </r>
       <r>  -68.5617    1.0000 </r>
       <r>  -68.5513    1.0000 </r>
       <r>  -12.3592    1.0000 </r>
       <r>  -11.4159    1.0000 </r>
       <r>  -10.9532    1.0000 </r>
       <r>  -10.6894    1.0000 </r>
       <r>  -10.4784    1.0000 </r>
       <r>  -10.3342    1.0000 </r>
       <r>   -5.7517    1.0000 </r>
       <r>   -4.7238    1.0000 </r>
       <r>   -2.5239    1.0000 </r>
       <r>   -2.1857    1.0000 </r>
       <r>   -1.9518    1.0000 </r>
       <r>   -1.5344    1.0000 </r>
       <r>   -1.3035    1.0000 </r>
       <r>   -1.0988    1.0000 </r>
       <r>   -0.8718    1.0000 </r>
       <r>   -0.7580    1.0000 </r>
       <r>   -0.5488    1.0000 </r>
       <r>   -0.4476    1.0000 </r>
       <r>   -0.2880    1.0000 </r>
       <r>   -0.1759    1.0000 </r>
       <r>   -0.1461    1.0000 </r>
       <r>   -0.1019    1.0000 </r>
       <r>   -0.0425    1.0000 </r>
       <r>    0.0219    1.0000 </r>
       <r>    1.2741    1.0000 </r>
       <r>    1.2983    1.0000 </r>
       <r>    1.3510    1.0000 </r>
       <r>    1.4313    1.0000 </r>
       <r>    1.4526    1.0000 </r>
       <r>    1.4809    1.0000 </r>
       <r>    1.5039    1.0000 </r>
       <r>    1.5884    1.0000 </r>
       <r>    1.7208    1.0000 </r>
       <r>    1.9318    1.0000 </r>
       <r>    2.0785    1.0000 </r>
       <r>    2.1458    1.0000 </r>
       <r>    2.2684    1.0000 </r>
       <r>    2.4050    1.0000 </r>
       <r>    2.5691    1.0000 </r>
       <r>    2.5975    1.0000 </r>
       <r>    2.8972    1.0000 </r>
       <r>    3.0081    1.0000 </r>
       <r>    3.3546    1.0000 </r>
       <r>    3.8985    1.0000 </r>
       <r>    6.3664   -0.0000 </r>
       <r>    6.8992   -0.0000 </r>
       <r>    7.5829    0.0000 </r>
       <r>    8.0823    0.0000 </r>
       <r>    8.5500    0.0000 </r>
       <r>    8.7982    0.0000 </r>
       <r>    9.2773    0.0000 </r>
       <r>    9.6301    0.0000 </r>
       <r>    9.9317    0.0000 </r>
       <r>   10.2753    0.0000 </r>
       <r>   10.6500    0.0000 </r>
       <r>   10.9300    0.0000 </r>
       <r>   10.9732    0.0000 </r>
       <r>   11.2812    0.0000 </r>
       <r>   11.5197    0.0000 </r>
       <r>   11.7872    0.0000 </r>
       <r>   12.2449    0.0000 </r>
       <r>   12.5471    0.0000 </r>
       <r>   13.1060    0.0000 </r>
       <r>   13.5177    0.0000 </r>
       <r>   14.3024    0.0000 </r>
       <r>   14.6124    0.0000 </r>
       <r>   15.1322    0.0000 </r>
       <r>   16.2748    0.0000 </r>
      </set>
      <set comment="kpoint 14">
       <r>  -68.6503    1.0000 </r>
       <r>  -68.6452    1.0000 </r>
       <r>  -68.6342    1.0000 </r>
       <r>  -68.6252    1.0000 </r>
       <r>  -68.6173    1.0000 </r>
       <r>  -68.6130    1.0000 </r>
       <r>  -68.5998    1.0000 </r>
       <r>  -68.5957    1.0000 </r>
       <r>  -68.5789    1.0000 </r>
       <r>  -68.5697    1.0000 </r>
       <r>  -68.5618    1.0000 </r>
       <r>  -68.5514    1.0000 </r>
       <r>  -12.5438    1.0000 </r>
       <r>  -11.3405    1.0000 </r>
       <r>  -10.8745    1.0000 </r>
       <r>  -10.6097    1.0000 </r>
       <r>  -10.3979    1.0000 </r>
       <r>  -10.2841    1.0000 </r>
       <r>   -5.8242    1.0000 </r>
       <r>   -4.9762    1.0000 </r>
       <r>   -2.6659    1.0000 </r>
       <r>   -2.4542    1.0000 </r>
       <r>   -2.0400    1.0000 </r>
       <r>   -1.5777    1.0000 </r>
       <r>   -1.1710    1.0000 </r>
       <r>   -0.9850    1.0000 </r>
       <r>   -0.7956    1.0000 </r>
       <r>   -0.6572    1.0000 </r>
       <r>   -0.5156    1.0000 </r>
       <r>   -0.3820    1.0000 </r>
       <r>   -0.2685    1.0000 </r>
       <r>   -0.2523    1.0000 </r>
       <r>   -0.1909    1.0000 </r>
       <r>   -0.1442    1.0000 </r>
       <r>   -0.0457    1.0000 </r>
       <r>    0.0132    1.0000 </r>
       <r>    1.2910    1.0000 </r>
       <r>    1.3118    1.0000 </r>
       <r>    1.3927    1.0000 </r>
       <r>    1.4081    1.0000 </r>
       <r>    1.4348    1.0000 </r>
       <r>    1.4546    1.0000 </r>
       <r>    1.4930    1.0000 </r>
       <r>    1.5663    1.0000 </r>
       <r>    1.6880    1.0000 </r>
       <r>    1.9162    1.0000 </r>
       <r>    1.9882    1.0000 </r>
       <r>    2.1452    1.0000 </r>
       <r>    2.3366    1.0000 </r>
       <r>    2.5629    1.0000 </r>
       <r>    2.6168    1.0000 </r>
       <r>    2.8287    1.0000 </r>
       <r>    2.9727    1.0000 </r>
       <r>    3.2468    1.0000 </r>
       <r>    3.6826    1.0000 </r>
       <r>    3.9427    1.0004 </r>
       <r>    6.1809   -0.0000 </r>
       <r>    6.6404   -0.0000 </r>
       <r>    7.7658    0.0000 </r>
       <r>    7.9737    0.0000 </r>
       <r>    8.2199    0.0000 </r>
       <r>    8.5625    0.0000 </r>
       <r>    9.3789    0.0000 </r>
       <r>    9.5819    0.0000 </r>
       <r>    9.9078    0.0000 </r>
       <r>   10.2525    0.0000 </r>
       <r>   10.5442    0.0000 </r>
       <r>   10.7867    0.0000 </r>
       <r>   10.8412    0.0000 </r>
       <r>   11.0659    0.0000 </r>
       <r>   11.5635    0.0000 </r>
       <r>   12.0208    0.0000 </r>
       <r>   12.5301    0.0000 </r>
       <r>   12.7519    0.0000 </r>
       <r>   12.9541    0.0000 </r>
       <r>   13.3097    0.0000 </r>
       <r>   13.4140    0.0000 </r>
       <r>   13.7376    0.0000 </r>
       <r>   13.8456    0.0000 </r>
       <r>   14.7269    0.0000 </r>
      </set>
      <set comment="kpoint 15">
       <r>  -68.6502    1.0000 </r>
       <r>  -68.6451    1.0000 </r>
       <r>  -68.6342    1.0000 </r>
       <r>  -68.6252    1.0000 </r>
       <r>  -68.6174    1.0000 </r>
       <r>  -68.6130    1.0000 </r>
       <r>  -68.5998    1.0000 </r>
       <r>  -68.5957    1.0000 </r>
       <r>  -68.5789    1.0000 </r>
       <r>  -68.5697    1.0000 </r>
       <r>  -68.5617    1.0000 </r>
       <r>  -68.5514    1.0000 </r>
       <r>  -12.4606    1.0000 </r>
       <r>  -11.4704    1.0000 </r>
       <r>  -10.8669    1.0000 </r>
       <r>  -10.6895    1.0000 </r>
       <r>  -10.3749    1.0000 </r>
       <r>  -10.2460    1.0000 </r>
       <r>   -5.7661    1.0000 </r>
       <r>   -4.8041    1.0000 </r>
       <r>   -2.4467    1.0000 </r>
       <r>   -2.2331    1.0000 </r>
       <r>   -1.8540    1.0000 </r>
       <r>   -1.7135    1.0000 </r>
       <r>   -1.4343    1.0000 </r>
       <r>   -1.1889    1.0000 </r>
       <r>   -0.8902    1.0000 </r>
       <r>   -0.7466    1.0000 </r>
       <r>   -0.6044    1.0000 </r>
       <r>   -0.5235    1.0000 </r>
       <r>   -0.3082    1.0000 </r>
       <r>   -0.2428    1.0000 </r>
       <r>   -0.1732    1.0000 </r>
       <r>   -0.1187    1.0000 </r>
       <r>   -0.0534    1.0000 </r>
       <r>    0.0618    1.0000 </r>
       <r>    1.3035    1.0000 </r>
       <r>    1.3369    1.0000 </r>
       <r>    1.3704    1.0000 </r>
       <r>    1.4315    1.0000 </r>
       <r>    1.4460    1.0000 </r>
       <r>    1.4791    1.0000 </r>
       <r>    1.5228    1.0000 </r>
       <r>    1.5465    1.0000 </r>
       <r>    1.6462    1.0000 </r>
       <r>    1.8723    1.0000 </r>
       <r>    1.9765    1.0000 </r>
       <r>    2.0497    1.0000 </r>
       <r>    2.1939    1.0000 </r>
       <r>    2.4758    1.0000 </r>
       <r>    2.5942    1.0000 </r>
       <r>    2.8383    1.0000 </r>
       <r>    2.9643    1.0000 </r>
       <r>    3.1344    1.0000 </r>
       <r>    3.5647    1.0000 </r>
       <r>    3.7232    1.0000 </r>
       <r>    6.4437   -0.0000 </r>
       <r>    6.9608    0.0000 </r>
       <r>    8.1709    0.0000 </r>
       <r>    8.2503    0.0000 </r>
       <r>    8.8374    0.0000 </r>
       <r>    9.1297    0.0000 </r>
       <r>    9.4671    0.0000 </r>
       <r>    9.8001    0.0000 </r>
       <r>   10.0848    0.0000 </r>
       <r>   10.2976    0.0000 </r>
       <r>   10.7369    0.0000 </r>
       <r>   11.0773    0.0000 </r>
       <r>   11.2882    0.0000 </r>
       <r>   11.4251    0.0000 </r>
       <r>   11.6321    0.0000 </r>
       <r>   11.7269    0.0000 </r>
       <r>   12.0896    0.0000 </r>
       <r>   12.2640    0.0000 </r>
       <r>   12.5368    0.0000 </r>
       <r>   12.6593    0.0000 </r>
       <r>   12.9518    0.0000 </r>
       <r>   13.0545    0.0000 </r>
       <r>   13.6579    0.0000 </r>
       <r>   14.6990    0.0000 </r>
      </set>
      <set comment="kpoint 16">
       <r>  -68.6501    1.0000 </r>
       <r>  -68.6450    1.0000 </r>
       <r>  -68.6341    1.0000 </r>
       <r>  -68.6251    1.0000 </r>
       <r>  -68.6172    1.0000 </r>
       <r>  -68.6129    1.0000 </r>
       <r>  -68.5996    1.0000 </r>
       <r>  -68.5956    1.0000 </r>
       <r>  -68.5788    1.0000 </r>
       <r>  -68.5696    1.0000 </r>
       <r>  -68.5616    1.0000 </r>
       <r>  -68.5513    1.0000 </r>
       <r>  -12.3290    1.0000 </r>
       <r>  -11.4791    1.0000 </r>
       <r>  -10.8654    1.0000 </r>
       <r>  -10.8569    1.0000 </r>
       <r>  -10.4095    1.0000 </r>
       <r>  -10.2868    1.0000 </r>
       <r>   -5.7474    1.0000 </r>
       <r>   -4.6918    1.0000 </r>
       <r>   -2.2418    1.0000 </r>
       <r>   -2.1408    1.0000 </r>
       <r>   -1.9287    1.0000 </r>
       <r>   -1.8520    1.0000 </r>
       <r>   -1.4550    1.0000 </r>
       <r>   -1.3956    1.0000 </r>
       <r>   -1.0423    1.0000 </r>
       <r>   -0.5217    1.0000 </r>
       <r>   -0.4624    1.0000 </r>
       <r>   -0.3473    1.0000 </r>
       <r>   -0.2471    1.0000 </r>
       <r>   -0.2141    1.0000 </r>
       <r>   -0.1589    1.0000 </r>
       <r>   -0.1117    1.0000 </r>
       <r>   -0.0886    1.0000 </r>
       <r>    0.0809    1.0000 </r>
       <r>    1.2613    1.0000 </r>
       <r>    1.3476    1.0000 </r>
       <r>    1.4000    1.0000 </r>
       <r>    1.4359    1.0000 </r>
       <r>    1.4541    1.0000 </r>
       <r>    1.5107    1.0000 </r>
       <r>    1.5361    1.0000 </r>
       <r>    1.5433    1.0000 </r>
       <r>    1.7548    1.0000 </r>
       <r>    1.8188    1.0000 </r>
       <r>    2.0422    1.0000 </r>
       <r>    2.1340    1.0000 </r>
       <r>    2.2858    1.0000 </r>
       <r>    2.3108    1.0000 </r>
       <r>    2.5216    1.0000 </r>
       <r>    2.7679    1.0000 </r>
       <r>    2.8991    1.0000 </r>
       <r>    3.2622    1.0000 </r>
       <r>    3.4940    1.0000 </r>
       <r>    3.7988    1.0000 </r>
       <r>    6.1851   -0.0000 </r>
       <r>    6.8438   -0.0000 </r>
       <r>    7.8295    0.0000 </r>
       <r>    8.0472    0.0000 </r>
       <r>    8.1925    0.0000 </r>
       <r>    8.7271    0.0000 </r>
       <r>    9.1578    0.0000 </r>
       <r>    9.3053    0.0000 </r>
       <r>   10.2170    0.0000 </r>
       <r>   10.4408    0.0000 </r>
       <r>   10.5923    0.0000 </r>
       <r>   11.0095    0.0000 </r>
       <r>   11.2367    0.0000 </r>
       <r>   11.4886    0.0000 </r>
       <r>   11.8100    0.0000 </r>
       <r>   12.1710    0.0000 </r>
       <r>   12.2069    0.0000 </r>
       <r>   12.5760    0.0000 </r>
       <r>   12.6905    0.0000 </r>
       <r>   13.1143    0.0000 </r>
       <r>   13.4138    0.0000 </r>
       <r>   13.8816    0.0000 </r>
       <r>   14.0084    0.0000 </r>
       <r>   14.5207    0.0000 </r>
      </set>
      <set comment="kpoint 17">
       <r>  -68.6500    1.0000 </r>
       <r>  -68.6449    1.0000 </r>
       <r>  -68.6342    1.0000 </r>
       <r>  -68.6252    1.0000 </r>
       <r>  -68.6172    1.0000 </r>
       <r>  -68.6129    1.0000 </r>
       <r>  -68.5997    1.0000 </r>
       <r>  -68.5956    1.0000 </r>
       <r>  -68.5788    1.0000 </r>
       <r>  -68.5696    1.0000 </r>
       <r>  -68.5616    1.0000 </r>
       <r>  -68.5512    1.0000 </r>
       <r>  -12.3757    1.0000 </r>
       <r>  -11.4776    1.0000 </r>
       <r>  -10.9371    1.0000 </r>
       <r>  -10.6571    1.0000 </r>
       <r>  -10.4183    1.0000 </r>
       <r>  -10.3059    1.0000 </r>
       <r>   -5.8006    1.0000 </r>
       <r>   -4.8372    1.0000 </r>
       <r>   -2.5274    1.0000 </r>
       <r>   -2.2445    1.0000 </r>
       <r>   -1.8734    1.0000 </r>
       <r>   -1.6436    1.0000 </r>
       <r>   -1.5066    1.0000 </r>
       <r>   -1.3075    1.0000 </r>
       <r>   -0.9037    1.0000 </r>
       <r>   -0.5359    1.0000 </r>
       <r>   -0.3758    1.0000 </r>
       <r>   -0.3426    1.0000 </r>
       <r>   -0.2230    1.0000 </r>
       <r>   -0.1769    1.0000 </r>
       <r>   -0.1621    1.0000 </r>
       <r>   -0.0774    1.0000 </r>
       <r>   -0.0260    1.0000 </r>
       <r>    0.0813    1.0000 </r>
       <r>    1.1904    1.0000 </r>
       <r>    1.3647    1.0000 </r>
       <r>    1.3982    1.0000 </r>
       <r>    1.4431    1.0000 </r>
       <r>    1.4643    1.0000 </r>
       <r>    1.5061    1.0000 </r>
       <r>    1.5187    1.0000 </r>
       <r>    1.5877    1.0000 </r>
       <r>    1.7397    1.0000 </r>
       <r>    1.8212    1.0000 </r>
       <r>    2.0395    1.0000 </r>
       <r>    2.2355    1.0000 </r>
       <r>    2.2688    1.0000 </r>
       <r>    2.3613    1.0000 </r>
       <r>    2.4872    1.0000 </r>
       <r>    2.6720    1.0000 </r>
       <r>    3.0502    1.0000 </r>
       <r>    3.4088    1.0000 </r>
       <r>    3.7265    1.0000 </r>
       <r>    3.8656    1.0000 </r>
       <r>    5.9345   -0.0000 </r>
       <r>    6.6162   -0.0000 </r>
       <r>    7.3542    0.0000 </r>
       <r>    7.9491    0.0000 </r>
       <r>    8.0647    0.0000 </r>
       <r>    8.7224    0.0000 </r>
       <r>    8.9067    0.0000 </r>
       <r>    9.1428    0.0000 </r>
       <r>    9.8449    0.0000 </r>
       <r>   10.3277    0.0000 </r>
       <r>   10.5592    0.0000 </r>
       <r>   10.9238    0.0000 </r>
       <r>   11.2175    0.0000 </r>
       <r>   11.4175    0.0000 </r>
       <r>   11.7533    0.0000 </r>
       <r>   12.0028    0.0000 </r>
       <r>   12.4975    0.0000 </r>
       <r>   12.8271    0.0000 </r>
       <r>   13.2022    0.0000 </r>
       <r>   14.1860    0.0000 </r>
       <r>   14.7164    0.0000 </r>
       <r>   15.1615    0.0000 </r>
       <r>   15.9193    0.0000 </r>
       <r>   16.5687    0.0000 </r>
      </set>
      <set comment="kpoint 18">
       <r>  -68.6502    1.0000 </r>
       <r>  -68.6451    1.0000 </r>
       <r>  -68.6343    1.0000 </r>
       <r>  -68.6253    1.0000 </r>
       <r>  -68.6173    1.0000 </r>
       <r>  -68.6129    1.0000 </r>
       <r>  -68.5998    1.0000 </r>
       <r>  -68.5957    1.0000 </r>
       <r>  -68.5789    1.0000 </r>
       <r>  -68.5696    1.0000 </r>
       <r>  -68.5617    1.0000 </r>
       <r>  -68.5514    1.0000 </r>
       <r>  -12.5019    1.0000 </r>
       <r>  -11.4296    1.0000 </r>
       <r>  -10.9490    1.0000 </r>
       <r>  -10.5842    1.0000 </r>
       <r>  -10.3742    1.0000 </r>
       <r>  -10.2091    1.0000 </r>
       <r>   -5.8284    1.0000 </r>
       <r>   -4.9409    1.0000 </r>
       <r>   -2.5731    1.0000 </r>
       <r>   -2.3659    1.0000 </r>
       <r>   -1.9186    1.0000 </r>
       <r>   -1.5988    1.0000 </r>
       <r>   -1.4158    1.0000 </r>
       <r>   -1.1217    1.0000 </r>
       <r>   -0.8178    1.0000 </r>
       <r>   -0.6695    1.0000 </r>
       <r>   -0.5338    1.0000 </r>
       <r>   -0.4705    1.0000 </r>
       <r>   -0.2530    1.0000 </r>
       <r>   -0.1911    1.0000 </r>
       <r>   -0.1674    1.0000 </r>
       <r>   -0.1181    1.0000 </r>
       <r>   -0.0363    1.0000 </r>
       <r>    0.0584    1.0000 </r>
       <r>    1.2819    1.0000 </r>
       <r>    1.3241    1.0000 </r>
       <r>    1.3461    1.0000 </r>
       <r>    1.4356    1.0000 </r>
       <r>    1.4514    1.0000 </r>
       <r>    1.4679    1.0000 </r>
       <r>    1.4939    1.0000 </r>
       <r>    1.5599    1.0000 </r>
       <r>    1.7286    1.0000 </r>
       <r>    1.8423    1.0000 </r>
       <r>    1.9699    1.0000 </r>
       <r>    2.0998    1.0000 </r>
       <r>    2.3338    1.0000 </r>
       <r>    2.4510    1.0000 </r>
       <r>    2.5419    1.0000 </r>
       <r>    2.8482    1.0000 </r>
       <r>    3.0523    1.0000 </r>
       <r>    3.2622    1.0000 </r>
       <r>    3.6719    1.0000 </r>
       <r>    3.7819    1.0000 </r>
       <r>    6.2644   -0.0000 </r>
       <r>    6.8030   -0.0000 </r>
       <r>    7.8151    0.0000 </r>
       <r>    8.1365    0.0000 </r>
       <r>    8.3437    0.0000 </r>
       <r>    8.9289    0.0000 </r>
       <r>    9.3359    0.0000 </r>
[...]
       <r>   11.7022    0.0000 </r>
       <r>   11.8936    0.0000 </r>
       <r>   12.3000    0.0000 </r>
       <r>   12.6584    0.0000 </r>
       <r>   13.0107    0.0000 </r>
       <r>   13.2267    0.0000 </r>
       <r>   13.6677    0.0000 </r>
       <r>   14.0686    0.0000 </r>
       <r>   14.3902    0.0000 </r>
       <r>   16.5180    0.0000 </r>
      </set>
      <set comment="kpoint 42">
       <r>  -68.6502    1.0000 </r>
       <r>  -68.6451    1.0000 </r>
       <r>  -68.6340    1.0000 </r>
       <r>  -68.6250    1.0000 </r>
       <r>  -68.6172    1.0000 </r>
       <r>  -68.6130    1.0000 </r>
       <r>  -68.5996    1.0000 </r>
       <r>  -68.5955    1.0000 </r>
       <r>  -68.5788    1.0000 </r>
       <r>  -68.5696    1.0000 </r>
       <r>  -68.5617    1.0000 </r>
       <r>  -68.5513    1.0000 </r>
       <r>  -12.1815    1.0000 </r>
       <r>  -11.7084    1.0000 </r>
       <r>  -10.7204    1.0000 </r>
       <r>  -10.6939    1.0000 </r>
       <r>  -10.5877    1.0000 </r>
       <r>  -10.3920    1.0000 </r>
       <r>   -5.4452    1.0000 </r>
       <r>   -5.0717    1.0000 </r>
       <r>   -2.5110    1.0000 </r>
       <r>   -2.3815    1.0000 </r>
       <r>   -1.9626    1.0000 </r>
       <r>   -1.3711    1.0000 </r>
       <r>   -1.3304    1.0000 </r>
       <r>   -1.0550    1.0000 </r>
       <r>   -0.8334    1.0000 </r>
       <r>   -0.7658    1.0000 </r>
       <r>   -0.4227    1.0000 </r>
       <r>   -0.3388    1.0000 </r>
       <r>   -0.2724    1.0000 </r>
       <r>   -0.2059    1.0000 </r>
       <r>   -0.1414    1.0000 </r>
       <r>   -0.1369    1.0000 </r>
       <r>   -0.0127    1.0000 </r>
       <r>    0.0300    1.0000 </r>
       <r>    1.1737    1.0000 </r>
       <r>    1.3720    1.0000 </r>
       <r>    1.3980    1.0000 </r>
       <r>    1.4527    1.0000 </r>
       <r>    1.4555    1.0000 </r>
       <r>    1.5010    1.0000 </r>
       <r>    1.5185    1.0000 </r>
       <r>    1.5488    1.0000 </r>
       <r>    1.7457    1.0000 </r>
       <r>    1.8219    1.0000 </r>
       <r>    1.9745    1.0000 </r>
       <r>    2.2252    1.0000 </r>
       <r>    2.3974    1.0000 </r>
       <r>    2.6120    1.0000 </r>
       <r>    2.6563    1.0000 </r>
       <r>    2.9175    1.0000 </r>
       <r>    3.0673    1.0000 </r>
       <r>    3.1154    1.0000 </r>
       <r>    3.2862    1.0000 </r>
       <r>    3.5813    1.0000 </r>
       <r>    6.2922   -0.0000 </r>
       <r>    6.3831   -0.0000 </r>
       <r>    7.3575    0.0000 </r>
       <r>    7.5305    0.0000 </r>
       <r>    8.3120    0.0000 </r>
       <r>    8.3331    0.0000 </r>
       <r>    9.1067    0.0000 </r>
       <r>    9.3592    0.0000 </r>
       <r>    9.7147    0.0000 </r>
       <r>    9.9527    0.0000 </r>
       <r>   10.5242    0.0000 </r>
       <r>   10.9898    0.0000 </r>
       <r>   11.4220    0.0000 </r>
       <r>   11.5679    0.0000 </r>
       <r>   12.0103    0.0000 </r>
       <r>   12.2887    0.0000 </r>
       <r>   12.4259    0.0000 </r>
       <r>   12.4795    0.0000 </r>
       <r>   13.0325    0.0000 </r>
       <r>   13.1425    0.0000 </r>
       <r>   14.1386    0.0000 </r>
       <r>   14.4416    0.0000 </r>
       <r>   15.1675    0.0000 </r>
       <r>   15.8743    0.0000 </r>
      </set>
     </set>
    </set>
   </array>
  </eigenvalues>
  <separator name="orbital magnetization" >
   <v name="MAGDIPOLOUT">      0.00000000      0.00000000      0.00000000</v>
  </separator>
  <dos>
   <i name="efermi">      4.21619004 </i>
   <total>
    <array>
     <dimension dim="1">gridpoints</dimension>
     <dimension dim="2">spin</dimension>
     <field>energy</field>
     <field>total</field>
     <field>integrated</field>
     <set>
      <set comment="spin 1">
       <r>   -72.8301     0.0000     0.0000 </r>
       <r>   -72.5238     0.0000     0.0000 </r>
       <r>   -72.2174     0.0000     0.0000 </r>
       <r>   -71.9110     0.0000     0.0000 </r>
       <r>   -71.6046     0.0000     0.0000 </r>
       <r>   -71.2982     0.0000     0.0000 </r>
       <r>   -70.9918     0.0000     0.0000 </r>
       <r>   -70.6855     0.0000     0.0000 </r>
       <r>   -70.3791     0.0000     0.0000 </r>
       <r>   -70.0727     0.0000     0.0000 </r>
       <r>   -69.7663     0.0000     0.0000 </r>
       <r>   -69.4599    -0.0000    -0.0000 </r>
       <r>   -69.1536    -0.0000    -0.0000 </r>
       <r>   -68.8472    -0.2189    -0.0671 </r>
       <r>   -68.5408    69.5918    21.2546 </r>
       <r>   -68.2344     8.9614    24.0002 </r>
       <r>   -67.9280    -0.0005    24.0000 </r>
       <r>   -67.6217     0.0000    24.0000 </r>
       <r>   -67.3153     0.0000    24.0000 </r>
       <r>   -67.0089     0.0000    24.0000 </r>
       <r>   -66.7025     0.0000    24.0000 </r>
       <r>   -66.3961     0.0000    24.0000 </r>
       <r>   -66.0898     0.0000    24.0000 </r>
       <r>   -65.7834     0.0000    24.0000 </r>
       <r>   -65.4770     0.0000    24.0000 </r>
       <r>   -65.1706     0.0000    24.0000 </r>
       <r>   -64.8642     0.0000    24.0000 </r>
       <r>   -64.5578     0.0000    24.0000 </r>
       <r>   -64.2515     0.0000    24.0000 </r>
       <r>   -63.9451     0.0000    24.0000 </r>
       <r>   -63.6387     0.0000    24.0000 </r>
       <r>   -63.3323     0.0000    24.0000 </r>
       <r>   -63.0259     0.0000    24.0000 </r>
       <r>   -62.7196     0.0000    24.0000 </r>
       <r>   -62.4132     0.0000    24.0000 </r>
       <r>   -62.1068     0.0000    24.0000 </r>
       <r>   -61.8004     0.0000    24.0000 </r>
       <r>   -61.4940     0.0000    24.0000 </r>
       <r>   -61.1877     0.0000    24.0000 </r>
       <r>   -60.8813     0.0000    24.0000 </r>
       <r>   -60.5749     0.0000    24.0000 </r>
       <r>   -60.2685     0.0000    24.0000 </r>
       <r>   -59.9621     0.0000    24.0000 </r>
       <r>   -59.6557     0.0000    24.0000 </r>
       <r>   -59.3494     0.0000    24.0000 </r>
       <r>   -59.0430     0.0000    24.0000 </r>
       <r>   -58.7366     0.0000    24.0000 </r>
       <r>   -58.4302     0.0000    24.0000 </r>
       <r>   -58.1238     0.0000    24.0000 </r>
       <r>   -57.8175     0.0000    24.0000 </r>
       <r>   -57.5111     0.0000    24.0000 </r>
       <r>   -57.2047     0.0000    24.0000 </r>
       <r>   -56.8983     0.0000    24.0000 </r>
       <r>   -56.5919     0.0000    24.0000 </r>
       <r>   -56.2856     0.0000    24.0000 </r>
       <r>   -55.9792     0.0000    24.0000 </r>
       <r>   -55.6728     0.0000    24.0000 </r>
       <r>   -55.3664     0.0000    24.0000 </r>
       <r>   -55.0600     0.0000    24.0000 </r>
       <r>   -54.7537     0.0000    24.0000 </r>
       <r>   -54.4473     0.0000    24.0000 </r>
       <r>   -54.1409     0.0000    24.0000 </r>
       <r>   -53.8345     0.0000    24.0000 </r>
       <r>   -53.5281     0.0000    24.0000 </r>
       <r>   -53.2217     0.0000    24.0000 </r>
       <r>   -52.9154     0.0000    24.0000 </r>
       <r>   -52.6090     0.0000    24.0000 </r>
       <r>   -52.3026     0.0000    24.0000 </r>
       <r>   -51.9962     0.0000    24.0000 </r>
       <r>   -51.6898     0.0000    24.0000 </r>
       <r>   -51.3835     0.0000    24.0000 </r>
       <r>   -51.0771     0.0000    24.0000 </r>
       <r>   -50.7707     0.0000    24.0000 </r>
       <r>   -50.4643     0.0000    24.0000 </r>
       <r>   -50.1579     0.0000    24.0000 </r>
       <r>   -49.8516     0.0000    24.0000 </r>
       <r>   -49.5452     0.0000    24.0000 </r>
       <r>   -49.2388     0.0000    24.0000 </r>
       <r>   -48.9324     0.0000    24.0000 </r>
       <r>   -48.6260     0.0000    24.0000 </r>
       <r>   -48.3197     0.0000    24.0000 </r>
       <r>   -48.0133     0.0000    24.0000 </r>
       <r>   -47.7069     0.0000    24.0000 </r>
       <r>   -47.4005     0.0000    24.0000 </r>
       <r>   -47.0941     0.0000    24.0000 </r>
       <r>   -46.7877     0.0000    24.0000 </r>
       <r>   -46.4814     0.0000    24.0000 </r>
       <r>   -46.1750     0.0000    24.0000 </r>
       <r>   -45.8686     0.0000    24.0000 </r>
       <r>   -45.5622     0.0000    24.0000 </r>
       <r>   -45.2558     0.0000    24.0000 </r>
       <r>   -44.9495     0.0000    24.0000 </r>
       <r>   -44.6431     0.0000    24.0000 </r>
       <r>   -44.3367     0.0000    24.0000 </r>
       <r>   -44.0303     0.0000    24.0000 </r>
       <r>   -43.7239     0.0000    24.0000 </r>
       <r>   -43.4176     0.0000    24.0000 </r>
       <r>   -43.1112     0.0000    24.0000 </r>
       <r>   -42.8048     0.0000    24.0000 </r>
       <r>   -42.4984     0.0000    24.0000 </r>
       <r>   -42.1920     0.0000    24.0000 </r>
       <r>   -41.8856     0.0000    24.0000 </r>
       <r>   -41.5793     0.0000    24.0000 </r>
       <r>   -41.2729     0.0000    24.0000 </r>
       <r>   -40.9665     0.0000    24.0000 </r>
       <r>   -40.6601     0.0000    24.0000 </r>
       <r>   -40.3537     0.0000    24.0000 </r>
       <r>   -40.0474     0.0000    24.0000 </r>
       <r>   -39.7410     0.0000    24.0000 </r>
       <r>   -39.4346     0.0000    24.0000 </r>
       <r>   -39.1282     0.0000    24.0000 </r>
       <r>   -38.8218     0.0000    24.0000 </r>
       <r>   -38.5155     0.0000    24.0000 </r>
       <r>   -38.2091     0.0000    24.0000 </r>
       <r>   -37.9027     0.0000    24.0000 </r>
       <r>   -37.5963     0.0000    24.0000 </r>
       <r>   -37.2899     0.0000    24.0000 </r>
       <r>   -36.9836     0.0000    24.0000 </r>
       <r>   -36.6772     0.0000    24.0000 </r>
       <r>   -36.3708     0.0000    24.0000 </r>
       <r>   -36.0644     0.0000    24.0000 </r>
       <r>   -35.7580     0.0000    24.0000 </r>
       <r>   -35.4516     0.0000    24.0000 </r>
       <r>   -35.1453     0.0000    24.0000 </r>
       <r>   -34.8389     0.0000    24.0000 </r>
       <r>   -34.5325     0.0000    24.0000 </r>
       <r>   -34.2261     0.0000    24.0000 </r>
       <r>   -33.9197     0.0000    24.0000 </r>
       <r>   -33.6134     0.0000    24.0000 </r>
       <r>   -33.3070     0.0000    24.0000 </r>
       <r>   -33.0006     0.0000    24.0000 </r>
       <r>   -32.6942     0.0000    24.0000 </r>
       <r>   -32.3878     0.0000    24.0000 </r>
       <r>   -32.0815     0.0000    24.0000 </r>
       <r>   -31.7751     0.0000    24.0000 </r>
       <r>   -31.4687     0.0000    24.0000 </r>
       <r>   -31.1623     0.0000    24.0000 </r>
       <r>   -30.8559     0.0000    24.0000 </r>
       <r>   -30.5496     0.0000    24.0000 </r>
       <r>   -30.2432     0.0000    24.0000 </r>
       <r>   -29.9368     0.0000    24.0000 </r>
       <r>   -29.6304     0.0000    24.0000 </r>
       <r>   -29.3240     0.0000    24.0000 </r>
       <r>   -29.0176     0.0000    24.0000 </r>
       <r>   -28.7113     0.0000    24.0000 </r>
       <r>   -28.4049     0.0000    24.0000 </r>
       <r>   -28.0985     0.0000    24.0000 </r>
       <r>   -27.7921     0.0000    24.0000 </r>
       <r>   -27.4857     0.0000    24.0000 </r>
       <r>   -27.1794     0.0000    24.0000 </r>
       <r>   -26.8730     0.0000    24.0000 </r>
       <r>   -26.5666     0.0000    24.0000 </r>
       <r>   -26.2602     0.0000    24.0000 </r>
       <r>   -25.9538     0.0000    24.0000 </r>
       <r>   -25.6475     0.0000    24.0000 </r>
       <r>   -25.3411     0.0000    24.0000 </r>
       <r>   -25.0347     0.0000    24.0000 </r>
       <r>   -24.7283     0.0000    24.0000 </r>
       <r>   -24.4219     0.0000    24.0000 </r>
       <r>   -24.1155     0.0000    24.0000 </r>
       <r>   -23.8092     0.0000    24.0000 </r>
       <r>   -23.5028     0.0000    24.0000 </r>
       <r>   -23.1964     0.0000    24.0000 </r>
       <r>   -22.8900     0.0000    24.0000 </r>
       <r>   -22.5836     0.0000    24.0000 </r>
       <r>   -22.2773     0.0000    24.0000 </r>
       <r>   -21.9709     0.0000    24.0000 </r>
       <r>   -21.6645     0.0000    24.0000 </r>
       <r>   -21.3581     0.0000    24.0000 </r>
       <r>   -21.0517     0.0000    24.0000 </r>
       <r>   -20.7454     0.0000    24.0000 </r>
       <r>   -20.4390     0.0000    24.0000 </r>
       <r>   -20.1326     0.0000    24.0000 </r>
       <r>   -19.8262     0.0000    24.0000 </r>
       <r>   -19.5198     0.0000    24.0000 </r>
       <r>   -19.2135     0.0000    24.0000 </r>
       <r>   -18.9071     0.0000    24.0000 </r>
       <r>   -18.6007     0.0000    24.0000 </r>
       <r>   -18.2943     0.0000    24.0000 </r>
       <r>   -17.9879     0.0000    24.0000 </r>
       <r>   -17.6815     0.0000    24.0000 </r>
       <r>   -17.3752     0.0000    24.0000 </r>
       <r>   -17.0688     0.0000    24.0000 </r>
       <r>   -16.7624     0.0000    24.0000 </r>
       <r>   -16.4560     0.0000    24.0000 </r>
       <r>   -16.1496     0.0000    24.0000 </r>
       <r>   -15.8433     0.0000    24.0000 </r>
       <r>   -15.5369     0.0000    24.0000 </r>
       <r>   -15.2305     0.0000    24.0000 </r>
       <r>   -14.9241     0.0000    24.0000 </r>
       <r>   -14.6177     0.0000    24.0000 </r>
       <r>   -14.3114     0.0000    24.0000 </r>
       <r>   -14.0050     0.0000    24.0000 </r>
       <r>   -13.6986    -0.0000    24.0000 </r>
       <r>   -13.3922    -0.0000    24.0000 </r>
       <r>   -13.0858    -0.0000    24.0000 </r>
       <r>   -12.7795    -0.0037    23.9989 </r>
       <r>   -12.4731     1.5724    24.4806 </r>
       <r>   -12.1667     3.5704    25.5745 </r>
       <r>   -11.8603     1.9028    26.1575 </r>
       <r>   -11.5539     2.1408    26.8134 </r>
       <r>   -11.2475     3.1960    27.7926 </r>
       <r>   -10.9412     2.5473    28.5731 </r>
       <r>   -10.6348     9.3490    31.4375 </r>
       <r>   -10.3284     9.3454    34.3007 </r>
       <r>   -10.0220     5.5638    36.0054 </r>
       <r>    -9.7156    -0.0175    36.0000 </r>
       <r>    -9.4093    -0.0000    36.0000 </r>
       <r>    -9.1029     0.0000    36.0000 </r>
       <r>    -8.7965     0.0000    36.0000 </r>
       <r>    -8.4901     0.0000    36.0000 </r>
       <r>    -8.1837     0.0000    36.0000 </r>
       <r>    -7.8774     0.0000    36.0000 </r>
       <r>    -7.5710     0.0000    36.0000 </r>
       <r>    -7.2646     0.0000    36.0000 </r>
       <r>    -6.9582    -0.0000    36.0000 </r>
       <r>    -6.6518    -0.0000    36.0000 </r>
       <r>    -6.3454    -0.0000    36.0000 </r>
       <r>    -6.0391     0.0563    36.0172 </r>
       <r>    -5.7327     3.4892    37.0863 </r>
       <r>    -5.4263     2.0519    37.7149 </r>
       <r>    -5.1199     1.8780    38.2903 </r>
       <r>    -4.8135     3.3056    39.3031 </r>
       <r>    -4.5072     2.2092    39.9799 </r>
       <r>    -4.2008     0.0655    40.0000 </r>
       <r>    -3.8944    -0.0000    40.0000 </r>
       <r>    -3.5880    -0.0000    40.0000 </r>
       <r>    -3.2816    -0.0000    40.0000 </r>
       <r>    -2.9753    -0.0004    39.9999 </r>
       <r>    -2.6689     0.3874    40.1186 </r>
       <r>    -2.3625     6.1593    42.0057 </r>
       <r>    -2.0561     6.6969    44.0575 </r>
       <r>    -1.7497     7.3436    46.3074 </r>
       <r>    -1.4434     6.4182    48.2738 </r>
       <r>    -1.1370     8.7467    50.9536 </r>
       <r>    -0.8306     9.0550    53.7279 </r>
       <r>    -0.5242    11.3574    57.2076 </r>
       <r>    -0.2178    18.0444    62.7361 </r>
       <r>     0.0886    29.0511    71.6368 </r>
       <r>     0.3949     1.1862    72.0002 </r>
       <r>     0.7013    -0.0007    72.0000 </r>
       <r>     1.0077    -0.0198    71.9939 </r>
       <r>     1.3141     7.3566    74.2478 </r>
       <r>     1.6205    44.8520    87.9896 </r>
       <r>     1.9268    13.8380    92.2293 </r>
       <r>     2.2332    13.1740    96.2656 </r>
       <r>     2.5396    12.8493   100.2024 </r>
       <r>     2.8460    11.1762   103.6266 </r>
       <r>     3.1524     9.0747   106.4069 </r>
       <r>     3.4587     7.9272   108.8356 </r>
       <r>     3.7651     6.9545   110.9663 </r>
       <r>     4.0715     3.1370   111.9275 </r>
       <r>     4.3779     0.2373   112.0002 </r>
       <r>     4.6843    -0.0005   112.0000 </r>
       <r>     4.9907    -0.0000   112.0000 </r>
       <r>     5.2970    -0.0001   112.0000 </r>
       <r>     5.6034     0.0761   112.0233 </r>
       <r>     5.9098     0.1603   112.0724 </r>
       <r>     6.2162     2.6261   112.8770 </r>
       <r>     6.5226     4.3504   114.2099 </r>
       <r>     6.8289     3.4592   115.2697 </r>
       <r>     7.1353     2.4418   116.0178 </r>
       <r>     7.4417     1.4261   116.4547 </r>
       <r>     7.7481     3.1539   117.4210 </r>
       <r>     8.0545     5.5435   119.1195 </r>
       <r>     8.3608     5.5704   120.8261 </r>
       <r>     8.6672     4.6113   122.2390 </r>
       <r>     8.9736     4.4813   123.6119 </r>
       <r>     9.2800     5.6072   125.3299 </r>
       <r>     9.5864     5.6915   127.0737 </r>
       <r>     9.8927     4.7882   128.5407 </r>
       <r>    10.1991     4.4653   129.9088 </r>
       <r>    10.5055     6.4935   131.8982 </r>
       <r>    10.8119     8.2794   134.4349 </r>
       <r>    11.1183     8.3081   136.9803 </r>
       <r>    11.4247     7.9497   139.4160 </r>
       <r>    11.7310     7.8836   141.8313 </r>
       <r>    12.0374     6.5968   143.8525 </r>
       <r>    12.3438     5.8667   145.6499 </r>
       <r>    12.6502     6.6471   147.6865 </r>
       <r>    12.9566     5.7934   149.4615 </r>
       <r>    13.2629     6.2113   151.3645 </r>
       <r>    13.5693     5.2713   152.9795 </r>
       <r>    13.8757     4.1385   154.2475 </r>
       <r>    14.1821     3.1418   155.2101 </r>
       <r>    14.4885     4.5977   156.6187 </r>
       <r>    14.7948     3.5160   157.6959 </r>
       <r>    15.1012     1.3482   158.1090 </r>
       <r>    15.4076     1.6062   158.6011 </r>
       <r>    15.7140     1.2234   158.9760 </r>
       <r>    16.0204     1.6813   159.4911 </r>
       <r>    16.3267     0.3277   159.5915 </r>
       <r>    16.6331     0.6948   159.8043 </r>
       <r>    16.9395     0.5205   159.9638 </r>
       <r>    17.2459     0.1182   160.0000 </r>
       <r>    17.5523    -0.0000   160.0000 </r>
       <r>    17.8587     0.0000   160.0000 </r>
       <r>    18.1650     0.0000   160.0000 </r>
       <r>    18.4714     0.0000   160.0000 </r>
       <r>    18.7778     0.0000   160.0000 </r>
       <r>    19.0842     0.0000   160.0000 </r>
      </set>
     </set>
    </array>
   </total>
  </dos>
 </calculation>
 <structure name="finalpos" >
  <crystal>
   <varray name="basis" >
    <v>       3.22479600      -5.64383000       0.03157200 </v>
    <v>       3.22479600       5.64383000       0.03157200 </v>
    <v>      -2.10194600       0.00000000       6.07553700 </v>
   </varray>
   <i name="volume">    221.90106089 </i>
   <varray name="rec_basis" >
    <v>       0.15452516      -0.08859232       0.05346088 </v>
    <v>       0.15452516       0.08859232       0.05346088 </v>
    <v>      -0.00160600       0.00000000       0.16403888 </v>
   </varray>
  </crystal>
  <varray name="positions" >
   <v>       0.61844300       0.12117100       0.11953300 </v>
   <v>       0.12117100       0.61844300       0.61953300 </v>
   <v>       0.96295700       0.79032200       0.11881300 </v>
   <v>       0.79032200       0.96295700       0.61881300 </v>
   <v>       0.43973200       0.26728100       0.59904700 </v>
   <v>       0.26728100       0.43973200       0.09904700 </v>
   <v>       0.08103640       0.91167500       0.49736300 </v>
   <v>       0.57140300       0.41236400       0.98018400 </v>
   <v>       0.73711100       0.25006200       0.49504900 </v>
   <v>       0.41236400       0.57140300       0.48018400 </v>
   <v>       0.91167500       0.07949800       0.99736300 </v>
   <v>       0.25006200       0.73711100       0.99504900 </v>
  </varray>
 </structure>
</modeling>
