   12   12    1    1
  0.1849176E+02  0.6500240E-09  0.6500240E-09  0.6428867E-09  0.5000000E-15
  1.000000000000000E-004
  CAR 
 CGS                                     
  112   42   80
 
  0.0000000E+00  0.0000000E+00  0.0000000E+00  0.1250000E-01
   1      -68.648705
   2      -68.645297
   3      -68.633717
   4      -68.624969
   5      -68.617773
   6      -68.613870
   7      -68.600046
   8      -68.596172
   9      -68.577944
  10      -68.570032
  11      -68.561124
  12      -68.551304
  13      -12.722703
  14      -11.133423
  15      -10.916973
  16      -10.602434
  17      -10.254041
  18      -10.236605
  19       -5.984065
  20       -4.985073
  21       -2.761391
  22       -2.210821
  23       -2.073308
  24       -1.922893
  25       -1.576377
  26       -0.977955
  27       -0.950699
  28       -0.684697
  29       -0.399020
  30       -0.275485
  31       -0.262817
  32       -0.234654
  33       -0.188564
  34       -0.152891
  35       -0.035350
  36        0.030201
  37        1.349272
  38        1.362569
  39        1.414156
  40        1.459743
  41        1.472145
  42        1.475788
  43        1.520168
  44        1.534946
  45        1.574063
  46        1.711728
  47        1.893142
  48        1.928423
  49        2.059852
  50        2.649890
  51        2.731775
  52        3.090960
  53        3.216629
  54        4.003084
  55        4.036018
  56        4.169356
  57        5.540894
  58        6.362109
  59        7.631911
  60        7.985573
  61        8.620418
  62        8.793005
  63        9.579008
  64        9.737012
  65        9.814321
  66       10.416661
  67       10.581494
  68       10.696916
  69       10.711581
  70       11.273311
  71       11.713180
  72       12.397183
  73       12.453941
  74       12.729417
  75       13.320406
  76       13.378708
  77       13.834259
  78       13.882754
  79       14.144268
  80       14.182749
 
  0.2500000E+00  0.7372575E-17  0.1387779E-16  0.2500000E-01
   1      -68.648658
   2      -68.645273
   3      -68.633692
   4      -68.624928
   5      -68.617656
   6      -68.613766
   7      -68.600080
   8      -68.596174
   9      -68.577875
  10      -68.569982
  11      -68.561090
  12      -68.551268
  13      -12.597648
  14      -11.131890
  15      -10.981871
  16      -10.676277
  17      -10.367065
  18      -10.281041
  19       -5.932073
  20       -4.773864
  21       -2.645582
  22       -2.254047
  23       -2.088289
  24       -1.690966
  25       -1.347296
  26       -0.997701
  27       -0.767600
  28       -0.618926
  29       -0.552949
  30       -0.438381
  31       -0.361178
  32       -0.239870
  33       -0.190961
  34       -0.168956
  35       -0.042804
  36        0.039773
  37        1.280163
  38        1.337661
  39        1.356262
  40        1.391695
  41        1.426722
  42        1.472983
  43        1.500794
  44        1.530068
  45        1.725364
  46        1.858987
  47        2.058562
  48        2.096404
  49        2.231364
  50        2.414251
  51        2.555674
  52        2.824841
  53        2.947551
  54        3.241568
  55        3.659801
  56        4.036885
  57        6.174298
  58        6.910100
  59        8.138425
  60        8.269878
  61        8.596122
  62        9.007790
  63        9.243670
  64        9.532531
  65        9.871044
  66       10.372508
  67       10.633138
  68       10.811661
  69       10.934931
  70       11.193872
  71       11.661343
  72       11.771694
  73       12.116987
  74       12.440014
  75       12.613151
  76       13.008866
  77       13.504573
  78       13.875345
  79       14.215915
  80       14.711208
 
  0.5000000E+00  0.1474515E-16  0.2775558E-16  0.1250000E-01
   1      -68.648545
   2      -68.645104
   3      -68.633612
   4      -68.624850
   5      -68.617598
   6      -68.613752
   7      -68.599995
   8      -68.596109
   9      -68.577820
  10      -68.569971
  11      -68.560975
  12      -68.551099
  13      -12.438133
  14      -11.253345
  15      -10.956232
  16      -10.764466
  17      -10.427126
  18      -10.362749
  19       -5.869374
  20       -4.547966
  21       -2.493773
  22       -2.247594
  23       -1.945836
  24       -1.464666
  25       -1.229007
  26       -1.106155
  27       -0.901717
  28       -0.861654
  29       -0.596942
  30       -0.536582
  31       -0.272000
  32       -0.204659
  33       -0.198656
  34       -0.144687
  35       -0.026231
  36        0.081326
  37        1.256541
  38        1.329441
  39        1.346343
  40        1.397676
  41        1.471581
  42        1.481517
  43        1.500803
  44        1.552506
  45        1.751960
  46        1.793663
  47        1.969989
  48        2.148079
  49        2.322345
  50        2.364067
  51        2.551488
  52        2.668896
  53        2.936657
  54        3.076950
  55        3.251128
  56        3.858750
  57        6.389251
  58        7.100981
  59        7.979651
  60        8.202805
  61        8.518323
  62        8.822908
  63        9.327838
  64        9.883190
  65       10.020864
  66       10.521202
  67       10.695491
  68       10.794789
  69       11.134273
  70       11.407692
  71       11.612804
  72       11.774110
  73       11.937401
  74       12.503550
  75       12.781194
  76       12.998812
  77       13.399862
  78       13.538064
  79       13.936751
  80       14.266620
 
  0.7372575E-17  0.2500000E+00  0.1387779E-16  0.2500000E-01
   1      -68.648681
   2      -68.645250
   3      -68.633678
   4      -68.624941
   5      -68.617659
   6      -68.613762
   7      -68.600053
   8      -68.596202
   9      -68.577890
  10      -68.569966
  11      -68.561089
  12      -68.551272
  13      -12.597874
  14      -11.130955
  15      -10.981502
  16      -10.676257
  17      -10.370020
  18      -10.279238
  19       -5.932015
  20       -4.774300
  21       -2.646747
  22       -2.252433
  23       -2.088747
  24       -1.690221
  25       -1.345423
  26       -0.997154
  27       -0.768686
  28       -0.618878
  29       -0.553946
  30       -0.437455
  31       -0.359901
  32       -0.242019
  33       -0.191846
  34       -0.167290
  35       -0.043681
  36        0.039582
  37        1.279274
  38        1.337371
  39        1.355589
  40        1.393112
  41        1.426496
  42        1.472571
  43        1.498644
  44        1.533425
  45        1.725445
  46        1.858880
  47        2.057981
  48        2.094982
  49        2.232286
  50        2.414257
  51        2.557196
  52        2.823903
  53        2.946321
  54        3.241516
  55        3.660346
  56        4.037148
  57        6.173441
  58        6.910738
  59        8.137969
  60        8.270252
  61        8.594707
  62        9.013099
  63        9.247393
  64        9.533305
  65        9.863734
  66       10.373633
  67       10.632942
  68       10.812892
  69       10.937272
  70       11.183943
  71       11.659103
  72       11.771708
  73       12.118424
  74       12.444894
  75       12.617565
  76       13.006208
  77       13.520592
  78       13.899658
  79       14.268976
  80       14.838437
 
  0.2500000E+00  0.2500000E+00  0.0000000E+00  0.2500000E-01
   1      -68.648681
   2      -68.645274
   3      -68.633580
   4      -68.624827
   5      -68.617789
   6      -68.613896
   7      -68.599959
   8      -68.596077
   9      -68.578007
  10      -68.570096
  11      -68.561108
  12      -68.551288
  13      -12.442283
  14      -11.194115
  15      -10.943180
  16      -10.877085
  17      -10.392728
  18      -10.353691
  19       -5.874475
  20       -4.521867
  21       -2.418510
  22       -2.247258
  23       -1.792796
  24       -1.682928
  25       -1.355555
  26       -1.299838
  27       -1.078546
  28       -0.685199
  29       -0.525700
  30       -0.294905
  31       -0.281693
  32       -0.220452
  33       -0.188691
  34       -0.122181
  35       -0.091635
  36        0.081439
  37        1.294406
  38        1.312096
  39        1.416666
  40        1.425679
  41        1.462456
  42        1.483777
  43        1.496230
  44        1.572758
  45        1.672974
  46        1.881969
  47        1.942152
  48        2.135119
  49        2.280578
  50        2.319649
  51        2.558818
  52        2.648579
  53        2.900777
  54        2.945566
  55        3.697519
  56        3.829024
  57        6.176680
  58        6.994929
  59        8.005368
  60        8.324388
  61        8.438328
  62        8.569466
  63        9.147584
  64        9.248054
  65       10.365203
  66       10.501024
  67       10.916479
  68       11.181204
  69       11.328210
  70       11.562262
  71       11.808824
  72       11.960394
  73       12.315524
  74       12.504915
  75       12.706796
  76       12.916216
  77       13.336710
  78       13.445467
  79       14.260345
  80       14.362870
 
  0.5000000E+00  0.2500000E+00 -0.2775558E-16  0.2500000E-01
   1      -68.648468
   2      -68.645063
   3      -68.633642
   4      -68.624881
   5      -68.617572
   6      -68.613676
   7      -68.600018
   8      -68.596134
   9      -68.577772
  10      -68.569923
  11      -68.560973
  12      -68.551122
  13      -12.442404
  14      -11.358303
  15      -10.937633
  16      -10.737434
  17      -10.391252
  18      -10.273508
  19       -5.947211
  20       -4.643234
  21       -2.392214
  22       -2.227663
  23       -2.057547
  24       -1.641280
  25       -1.365044
  26       -1.281067
  27       -1.022545
  28       -0.512528
  29       -0.482265
  30       -0.328761
  31       -0.281131
  32       -0.213923
  33       -0.149211
  34       -0.136088
  35       -0.008593
  36        0.116662
  37        1.247879
  38        1.316269
  39        1.382425
  40        1.438655
  41        1.462842
  42        1.492402
  43        1.498714
  44        1.550258
  45        1.748462
  46        1.831234
  47        1.923693
  48        2.133141
  49        2.221328
  50        2.387283
  51        2.562020
  52        2.788840
  53        2.978779
  54        3.310707
  55        3.599840
  56        3.746245
  57        6.091735
  58        6.943365
  59        7.613776
  60        8.067284
  61        8.408852
  62        8.616165
  63        8.985930
  64        9.152924
  65       10.087583
  66       10.335002
  67       10.731263
  68       11.110108
  69       11.464988
  70       11.590974
  71       11.800245
  72       12.080585
  73       12.476189
  74       12.921506
  75       13.034357
  76       13.819597
  77       14.199162
  78       14.658156
  79       15.424030
  80       15.640149
 
 -0.2500000E+00  0.2500000E+00  0.0000000E+00  0.2500000E-01
   1      -68.648671
   2      -68.645263
   3      -68.633658
   4      -68.624906
   5      -68.617590
   6      -68.613696
   7      -68.600052
   8      -68.596173
   9      -68.577832
  10      -68.569922
  11      -68.561091
  12      -68.551271
  13      -12.600657
  14      -11.255893
  15      -10.990587
  16      -10.569694
  17      -10.369179
  18      -10.181626
  19       -6.009942
  20       -4.896345
  21       -2.647659
  22       -2.315851
  23       -1.972465
  24       -1.648390
  25       -1.492296
  26       -1.185986
  27       -0.788892
  28       -0.583230
  29       -0.445466
  30       -0.331772
  31       -0.291791
  32       -0.232530
  33       -0.174019
  34       -0.131015
  35       -0.009285
  36        0.075161
  37        1.259751
  38        1.322493
  39        1.363304
  40        1.425089
  41        1.432619
  42        1.477042
  43        1.505782
  44        1.541294
  45        1.724445
  46        1.813909
  47        1.996873
  48        2.074305
  49        2.419002
  50        2.463410
  51        2.525567
  52        2.873012
  53        3.141728
  54        3.228453
  55        3.783167
  56        4.066352
  57        5.981077
  58        6.690716
  59        7.537946
  60        8.220890
  61        8.619236
  62        8.914161
  63        9.312030
  64        9.429118
  65        9.806705
  66       10.271957
  67       10.540269
  68       10.831237
  69       10.965971
  70       11.382041
  71       11.462016
  72       11.736304
  73       12.102652
  74       12.663228
  75       12.944330
  76       13.106493
  77       13.348844
  78       13.522965
  79       14.476227
  80       14.755747
 
  0.1474515E-16  0.5000000E+00  0.2775558E-16  0.1250000E-01
   1      -68.648507
   2      -68.645130
   3      -68.633605
   4      -68.624854
   5      -68.617650
   6      -68.613709
   7      -68.599987
   8      -68.596119
   9      -68.577880
  10      -68.569907
  11      -68.560921
  12      -68.551160
  13      -12.438798
  14      -11.250446
  15      -10.956581
  16      -10.764863
  17      -10.432133
  18      -10.359303
  19       -5.869414
  20       -4.548915
  21       -2.495039
  22       -2.246077
  23       -1.947021
  24       -1.462299
  25       -1.225307
  26       -1.102268
  27       -0.903593
  28       -0.862399
  29       -0.598482
  30       -0.536187
  31       -0.272175
  32       -0.204981
  33       -0.203630
  34       -0.138277
  35       -0.031557
  36        0.082732
  37        1.254434
  38        1.327855
  39        1.348571
  40        1.397254
  41        1.472319
  42        1.479943
  43        1.500654
  44        1.556434
  45        1.753047
  46        1.794429
  47        1.969383
  48        2.145028
  49        2.320553
  50        2.363251
  51        2.551032
  52        2.668737
  53        2.938925
  54        3.075772
  55        3.250266
  56        3.859346
  57        6.388431
  58        7.101803
  59        7.981142
  60        8.206589
  61        8.520452
  62        8.825995
  63        9.323932
  64        9.895301
  65       10.012978
  66       10.514936
  67       10.690055
  68       10.789293
  69       11.142281
  70       11.406933
  71       11.606581
  72       11.773661
  73       11.941576
  74       12.502672
  75       12.824801
  76       13.031482
  77       13.552378
  78       13.673014
  79       14.556795
  80       15.251762
 
  0.2500000E+00  0.5000000E+00 -0.2775558E-16  0.2500000E-01
   1      -68.648469
   2      -68.645061
   3      -68.633614
   4      -68.624862
   5      -68.617602
   6      -68.613684
   7      -68.600026
   8      -68.596144
   9      -68.577807
  10      -68.569882
  11      -68.560929
  12      -68.551165
  13      -12.442756
  14      -11.357098
  15      -10.937738
  16      -10.737654
  17      -10.392206
  18      -10.273130
  19       -5.947193
  20       -4.643617
  21       -2.392989
  22       -2.228152
  23       -2.057602
  24       -1.639172
  25       -1.361791
  26       -1.282921
  27       -1.022178
  28       -0.510782
  29       -0.484250
  30       -0.328128
  31       -0.281451
  32       -0.214162
  33       -0.151517
  34       -0.133307
  35       -0.009575
  36        0.115950
  37        1.246933
  38        1.315705
  39        1.383159
  40        1.437282
  41        1.461722
  42        1.492142
  43        1.499025
  44        1.553590
  45        1.749166
  46        1.830556
  47        1.922625
  48        2.133844
  49        2.221539
  50        2.385417
  51        2.561603
  52        2.789366
  53        2.977590
  54        3.311676
  55        3.599956
  56        3.747120
  57        6.091101
  58        6.943320
  59        7.613435
  60        8.069537
  61        8.410016
  62        8.614754
  63        8.982667
  64        9.156575
  65       10.090016
  66       10.335851
  67       10.731102
  68       11.109958
  69       11.454692
  70       11.569729
  71       11.785698
  72       12.034428
  73       12.516306
  74       12.672364
  75       12.914374
  76       13.218578
  77       14.224764
  78       14.768780
  79       15.260921
  80       15.913839
 
  0.5000000E+00  0.5000000E+00  0.0000000E+00  0.1250000E-01
   1      -68.648303
   2      -68.644887
   3      -68.633450
   4      -68.624700
   5      -68.617435
   6      -68.613601
   7      -68.599809
   8      -68.595952
   9      -68.577712
  10      -68.569798
  11      -68.560758
  12      -68.550938
  13      -12.434391
  14      -11.505234
  15      -10.912971
  16      -10.617426
  17      -10.400409
  18      -10.200223
  19       -6.026645
  20       -4.812525
  21       -2.312322
  22       -2.264568
  23       -2.094891
  24       -1.700632
  25       -1.248105
  26       -1.111055
  27       -0.842102
  28       -0.784746
  29       -0.726068
  30       -0.241797
  31       -0.196775
  32       -0.179694
  33       -0.151101
  34       -0.038864
  35       -0.003480
  36        0.190385
  37        1.268616
  38        1.316738
  39        1.374090
  40        1.415691
  41        1.437523
  42        1.491629
  43        1.510090
  44        1.548494
  45        1.790939
  46        1.847631
  47        1.997078
  48        2.151356
  49        2.254067
  50        2.335067
  51        2.560185
  52        2.763357
  53        2.775097
  54        3.367831
  55        3.762827
  56        4.002645
  57        5.858207
  58        6.765655
  59        7.090653
  60        8.408761
  61        8.560832
  62        8.766139
  63        9.143803
  64        9.241774
  65        9.960870
  66       10.283012
  67       10.727549
  68       10.820037
  69       10.878859
  70       11.275307
  71       11.751946
  72       11.915802
  73       11.976898
  74       12.363654
  75       12.542101
  76       13.454273
  77       14.283982
  78       14.677255
  79       16.742862
  80       16.758194
 
 -0.2168404E-18 -0.2168404E-18  0.2000000E+00  0.2500000E-01
   1      -68.648707
   2      -68.645297
   3      -68.633687
   4      -68.624935
   5      -68.617685
   6      -68.613790
   7      -68.600076
   8      -68.596196
   9      -68.577917
  10      -68.570008
  11      -68.561126
  12      -68.551306
  13      -12.619512
  14      -11.427652
  15      -10.779645
  16      -10.607779
  17      -10.252778
  18      -10.238717
  19       -5.830364
  20       -5.048208
  21       -2.601380
  22       -2.373282
  23       -1.962565
  24       -1.777385
  25       -1.443699
  26       -1.124956
  27       -1.062231
  28       -0.770668
  29       -0.469487
  30       -0.292393
  31       -0.237525
  32       -0.233357
  33       -0.192140
  34       -0.145292
  35       -0.012792
  36        0.023367
  37        1.333097
  38        1.381650
  39        1.415299
  40        1.440506
  41        1.465916
  42        1.469500
  43        1.514772
  44        1.548243
  45        1.632772
  46        1.758326
  47        1.787220
  48        1.951901
  49        2.089338
  50        2.661057
  51        2.717318
  52        3.195538
  53        3.252112
  54        3.516835
  55        3.891928
  56        3.975655
  57        6.050468
  58        6.421085
  59        7.824931
  60        7.907536
  61        8.368003
  62        8.820549
  63        9.775460
  64        9.797202
  65       10.064300
  66       10.586838
  67       10.644608
  68       10.807223
  69       10.855480
  70       11.491596
  71       11.557294
  72       12.024270
  73       12.583862
  74       12.780271
  75       12.909559
  76       13.203093
  77       13.533966
  78       13.819088
  79       14.199348
  80       14.705690
 
  0.2500000E+00  0.1517883E-17  0.2000000E+00  0.2500000E-01
   1      -68.648643
   2      -68.645236
   3      -68.633672
   4      -68.624923
   5      -68.617733
   6      -68.613832
   7      -68.600027
   8      -68.596153
   9      -68.577933
  10      -68.570011
  11      -68.561057
  12      -68.551250
  13      -12.460397
  14      -11.468806
  15      -10.865627
  16      -10.689654
  17      -10.374180
  18      -10.248361
  19       -5.765517
  20       -4.804474
  21       -2.446208
  22       -2.233750
  23       -1.852053
  24       -1.712686
  25       -1.436719
  26       -1.188062
  27       -0.888407
  28       -0.744476
  29       -0.607177
  30       -0.523569
  31       -0.310205
  32       -0.242460
  33       -0.170605
  34       -0.123504
  35       -0.047824
  36        0.061911
  37        1.302763
  38        1.336056
  39        1.368764
  40        1.434825
  41        1.446951
  42        1.480256
  43        1.522030
  44        1.549015
  45        1.644526
  46        1.872034
  47        1.981865
  48        2.047736
  49        2.195019
  50        2.476103
  51        2.593214
  52        2.836453
  53        2.963496
  54        3.131752
  55        3.565420
  56        3.722168
  57        6.447630
  58        6.961166
  59        8.171662
  60        8.248022
  61        8.834860
  62        9.127534
  63        9.465866
  64        9.795429
  65       10.081112
  66       10.302646
  67       10.738586
  68       11.079305
  69       11.290163
  70       11.425268
  71       11.634299
  72       11.721240
  73       12.086182
  74       12.266901
  75       12.541760
  76       12.650807
  77       12.953156
  78       13.064431
  79       13.640594
  80       14.692209
 
  0.5000000E+00  0.9107298E-17  0.2000000E+00  0.2500000E-01
   1      -68.648501
   2      -68.645055
   3      -68.633586
   4      -68.624814
   5      -68.617580
   6      -68.613700
   7      -68.599948
   8      -68.596082
   9      -68.577811
  10      -68.569932
  11      -68.561001
  12      -68.551159
  13      -12.357835
  14      -11.415796
  15      -10.954198
  16      -10.685085
  17      -10.479708
  18      -10.337063
  19       -5.750075
  20       -4.721384
  21       -2.522926
  22       -2.185022
  23       -1.954906
  24       -1.536859
  25       -1.303644
  26       -1.100072
  27       -0.868114
  28       -0.756378
  29       -0.547965
  30       -0.444435
  31       -0.287392
  32       -0.181826
  33       -0.143211
  34       -0.106632
  35       -0.040267
  36        0.023636
  37        1.273873
  38        1.299115
  39        1.350754
  40        1.431654
  41        1.452823
  42        1.480546
  43        1.503030
  44        1.587923
  45        1.720198
  46        1.932444
  47        2.078619
  48        2.145017
  49        2.267086
  50        2.404959
  51        2.567028
  52        2.597638
  53        2.898729
  54        3.007347
  55        3.360296
  56        3.896931
  57        6.370983
  58        6.899730
  59        7.573165
  60        8.083998
  61        8.549520
  62        8.797744
  63        9.278773
  64        9.634240
  65        9.930998
  66       10.276701
  67       10.660097
  68       10.927709
  69       10.973429
  70       11.277595
  71       11.521444
  72       11.787340
  73       12.247681
  74       12.535107
  75       13.094826
  76       13.514924
  77       14.300754
  78       14.564596
  79       15.138112
  80       16.268035
 
 -0.2500000E+00 -0.4098284E-16  0.2000000E+00  0.2500000E-01
   1      -68.648703
   2      -68.645289
   3      -68.633662
   4      -68.624910
   5      -68.617685
   6      -68.613801
   7      -68.600065
   8      -68.596182
   9      -68.577928
  10      -68.570032
  11      -68.561124
  12      -68.551295
  13      -12.543029
  14      -11.339755
  15      -10.874387
  16      -10.606040
  17      -10.401149
  18      -10.285068
  19       -5.823356
  20       -4.975100
  21       -2.664400
  22       -2.454416
  23       -2.040483
  24       -1.579721
  25       -1.171081
  26       -0.984639
  27       -0.794574
  28       -0.651940
  29       -0.515501
  30       -0.387940
  31       -0.268456
  32       -0.253292
  33       -0.191466
  34       -0.142080
  35       -0.041880
  36        0.012753
  37        1.291995
  38        1.311894
  39        1.390659
  40        1.408291
  41        1.434451
  42        1.455063
  43        1.493205
  44        1.565025
  45        1.687156
  46        1.915035
  47        1.987280
  48        2.146589
  49        2.333546
  50        2.566127
  51        2.618051
  52        2.829055
  53        2.973188
  54        3.249162
  55        3.680450
  56        3.941374
  57        6.183997
  58        6.641414
  59        7.767734
  60        7.974017
  61        8.214551
  62        8.564457
  63        9.381880
  64        9.577716
  65        9.905213
  66       10.252122
  67       10.545182
  68       10.786126
  69       10.839050
  70       11.070347
  71       11.567143
  72       12.023285
  73       12.528804
  74       12.762641
  75       12.946621
  76       13.303113
  77       13.406840
  78       13.740128
  79       13.849463
  80       14.724865
 
  0.1517883E-17  0.2500000E+00  0.2000000E+00  0.2500000E-01
   1      -68.648645
   2      -68.645234
   3      -68.633672
   4      -68.624923
   5      -68.617726
   6      -68.613839
   7      -68.600034
   8      -68.596146
   9      -68.577922
  10      -68.570022
  11      -68.561069
  12      -68.551237
  13      -12.460662
  14      -11.468573
  15      -10.864086
  16      -10.689987
  17      -10.376044
  18      -10.247701
  19       -5.765603
  20       -4.804953
  21       -2.446535
  22       -2.234639
  23       -1.850105
  24       -1.712329
  25       -1.434264
  26       -1.187192
  27       -0.891511
  28       -0.745046
  29       -0.606760
  30       -0.523221
  31       -0.310398
  32       -0.237467
  33       -0.172763
  34       -0.122646
  35       -0.050667
  36        0.061450
  37        1.302579
  38        1.337423
  39        1.370783
  40        1.431694
  41        1.445597
  42        1.478637
  43        1.522907
  44        1.547952
  45        1.645912
  46        1.871686
  47        1.978595
  48        2.050678
  49        2.195480
  50        2.474766
  51        2.596645
  52        2.836941
  53        2.959986
  54        3.130913
  55        3.565694
  56        3.724018
  57        6.446539
  58        6.962822
  59        8.171516
  60        8.246235
  61        8.837001
  62        9.127848
  63        9.463435
  64        9.802822
  65       10.084231
  66       10.295874
  67       10.738414
  68       11.079410
  69       11.284757
  70       11.426045
  71       11.631024
  72       11.720816
  73       12.090599
  74       12.266941
  75       12.541162
  76       12.656188
  77       12.955099
  78       13.059657
  79       13.654365
  80       14.695132
 
  0.2500000E+00  0.2500000E+00  0.2000000E+00  0.2500000E-01
   1      -68.648552
   2      -68.645145
   3      -68.633523
   4      -68.624769
   5      -68.617565
   6      -68.613672
   7      -68.599911
   8      -68.596031
   9      -68.577798
  10      -68.569886
  11      -68.560975
  12      -68.551153
  13      -12.328691
  14      -11.476833
  15      -10.863017
  16      -10.859295
  17      -10.407944
  18      -10.290073
  19       -5.746342
  20       -4.691304
  21       -2.244020
  22       -2.138438
  23       -1.927667
  24       -1.851115
  25       -1.455402
  26       -1.395426
  27       -1.039899
  28       -0.520031
  29       -0.463363
  30       -0.349054
  31       -0.250587
  32       -0.211596
  33       -0.157621
  34       -0.112092
  35       -0.089992
  36        0.082489
  37        1.262753
  38        1.347459
  39        1.400219
  40        1.435266
  41        1.453481
  42        1.511242
  43        1.535256
  44        1.542842
  45        1.755197
  46        1.818517
  47        2.042779
  48        2.136195
  49        2.282925
  50        2.312456
  51        2.518704
  52        2.770890
  53        2.897033
  54        3.259738
  55        3.495165
  56        3.799640
  57        6.189435
  58        6.845708
  59        7.824189
  60        8.044740
  61        8.193861
  62        8.728944
  63        9.154285
  64        9.310770
  65       10.214871
  66       10.441616
  67       10.593772
  68       11.003982
  69       11.237034
  70       11.489601
  71       11.810923
  72       12.172866
  73       12.206342
  74       12.570590
  75       12.693441
  76       13.116381
  77       13.415960
  78       13.877743
  79       14.007229
  80       14.529705
 
  0.5000000E+00  0.2500000E+00  0.2000000E+00  0.2500000E-01
   1      -68.648442
   2      -68.645015
   3      -68.633600
   4      -68.624880
   5      -68.617572
   6      -68.613725
   7      -68.599989
   8      -68.596103
   9      -68.577800
  10      -68.569927
  11      -68.560932
  12      -68.551127
  13      -12.375141
  14      -11.476439
  15      -10.937952
  16      -10.653140
  17      -10.421941
  18      -10.305878
  19       -5.799971
  20       -4.836763
  21       -2.526906
  22       -2.243766
  23       -1.873549
  24       -1.646442
  25       -1.505612
  26       -1.307273
  27       -0.901970
  28       -0.532823
  29       -0.374850
  30       -0.349799
  31       -0.221598
  32       -0.177883
  33       -0.160308
  34       -0.077103
  35       -0.026316
  36        0.084588
  37        1.191782
  38        1.365519
  39        1.396864
  40        1.444145
  41        1.464254
  42        1.505691
  43        1.518689
  44        1.586801
  45        1.738968
  46        1.819421
  47        2.038221
  48        2.234774
  49        2.271855
  50        2.363532
  51        2.487190
  52        2.669624
  53        3.053561
  54        3.411531
  55        3.726634
  56        3.860751
  57        5.936742
  58        6.615851
  59        7.356360
  60        7.940191
  61        8.067418
  62        8.726914
  63        8.907250
  64        9.141044
  65        9.842456
  66       10.326981
  67       10.556089
  68       10.924793
  69       11.223662
  70       11.419319
  71       11.747141
  72       12.003601
  73       12.497845
  74       12.825720
  75       13.201353
  76       14.191655
  77       14.716244
  78       15.161551
  79       15.917985
  80       16.564089
 
 -0.2500000E+00  0.2500000E+00  0.2000000E+00  0.2500000E-01
   1      -68.648607
   2      -68.645237
   3      -68.633721
   4      -68.624962
   5      -68.617666