 vasp.5.3.3 18Dez12 (build Nov 13 2015 09:58:40) complex                        
  
 executed on             LinuxIFC date 2017.10.18  13:20:26
 running on   48 total cores
 distrk:  each k-point on   16 cores,    3 groups
 distr:  one band on NCORES_PER_BAND=   1 cores,   16 groups


--------------------------------------------------------------------------------------------------------


 INCAR:
 POTCAR:    PAW_PBE Cu_pv 06Sep2000               
 POTCAR:    PAW_PBE Ge 05Jan2001                  
 POTCAR:    PAW_PBE S 17Jan2003                   

 ----------------------------------------------------------------------------- 
|                                                                             |
|           W    W    AA    RRRRR   N    N  II  N    N   GGGG   !!!           |
|           W    W   A  A   R    R  NN   N  II  NN   N  G    G  !!!           |
|           W    W  A    A  R    R  N N  N  II  N N  N  G       !!!           |
|           W WW W  AAAAAA  RRRRR   N  N N  II  N  N N  G  GGG   !            |
|           WW  WW  A    A  R   R   N   NN  II  N   NN  G    G                |
|           W    W  A    A  R    R  N    N  II  N    N   GGGG   !!!           |
|                                                                             |
|      For optimal performance we recommend that you set                      |
|        NPAR = 4 - approx SQRT( number of cores)                             |
|      (number of cores/NPAR must be integer)                                 |
|      This setting will greatly improve the performance of VASP for DFT.     |
|      The default NPAR=number of cores might be grossly inefficient          |
|      on modern multi-core architectures or massively parallel machines.     |
|      Do your own testing.                                                   |
|      Unfortunately you need to use the default for hybrid, GW and RPA       |
|      calculations.                                                          |
|                                                                             |
 ----------------------------------------------------------------------------- 


 ----------------------------------------------------------------------------- 
|                                                                             |
|           W    W    AA    RRRRR   N    N  II  N    N   GGGG   !!!           |
|           W    W   A  A   R    R  NN   N  II  NN   N  G    G  !!!           |
|           W    W  A    A  R    R  N N  N  II  N N  N  G       !!!           |
|           W WW W  AAAAAA  RRRRR   N  N N  II  N  N N  G  GGG   !            |
|           WW  WW  A    A  R   R   N   NN  II  N   NN  G    G                |
|           W    W  A    A  R    R  N    N  II  N    N   GGGG   !!!           |
|                                                                             |
|      You have enabled k-point parallelism (KPAR>1).                         |
|      This developmental code was originally  written by Paul Kent at ORNL,  |
|      and carefully double checked in Vienna.                                |
|      GW as well as linear response parallelism added by Martijn Marsman     |
|      and Georg Kresse.                                                      |
|      Carefully verify results versus KPAR=1.                                |
|      Report problems to Paul Kent and Vienna.                               |
|                                                                             |
 ----------------------------------------------------------------------------- 

 POTCAR:    PAW_PBE Cu_pv 06Sep2000               
   VRHFIN =Cu: d10 p1                                                           
   LEXCH  = PE                                                                  
   EATOM  =  4120.1201 eV,  302.8203 Ry                                         
                                                                                
   TITEL  = PAW_PBE Cu_pv 06Sep2000                                             
   LULTRA =        F    use ultrasoft PP ?                                      
   IUNSCR =        1    unscreen: 0-lin 1-nonlin 2-no                           
   RPACOR =    1.500    partial core radius                                     
   POMASS =   63.546; ZVAL   =   17.000    mass and valenz                      
   RCORE  =    2.000    outmost cutoff radius                                   
   RWIGS  =    2.000; RWIGS  =    1.058    wigner-seitz radius (au A)           
   ENMAX  =  368.648; ENMIN  =  276.486 eV                                      
   RCLOC  =    1.304    cutoff for local pot                                    
   LCOR   =        T    correct aug charges                                     
   LPAW   =        T    paw PP                                                  
   EAUG   =  758.233                                                            
   DEXC   =    0.000                                                            
   RMAX   =    2.046    core radius for proj-oper                               
   RAUG   =    1.300    factor for augmentation sphere                          
   RDEP   =    2.025    radius for radial grids                                 
   RDEPT  =    1.558    core radius for aug-charge                              
                                                                                
   Atomic configuration                                                         
    8 entries                                                                   
     n  l   j            E        occ.                                          
     1  0  0.50     -8850.2467   2.0000                                         
     2  0  0.50     -1062.3498   2.0000                                         
     2  1  1.50      -916.8226   6.0000                                         
     3  0  0.50      -114.6929   2.0000                                         
     3  1  1.50       -72.1325   6.0000                                         
     3  2  2.50        -5.0394  10.0000                                         
     4  0  0.50        -4.6097   1.0000                                         
     4  3  2.50        -1.3606   0.0000                                         
   Description                                                                  
     l       E           TYP  RCUT    TYP  RCUT                                 
     1    -72.1324777     23  1.700                                             
     1     -1.3605826     23  1.700                                             
     2     -5.0393776     23  2.000                                             
     2     -6.3999602     23  2.000                                             
     0     -4.6097062     23  1.800                                             
     0     14.1620818     23  1.800                                             
  local pseudopotential read in
  partial core-charges read in
  partial kinetic energy density read in
  atomic valenz-charges read in
  non local Contribution for L=           1  read in
    real space projection operators read in
  non local Contribution for L=           1  read in
    real space projection operators read in
  non local Contribution for L=           2  read in
    real space projection operators read in
  non local Contribution for L=           2  read in
    real space projection operators read in
  non local Contribution for L=           0  read in
    real space projection operators read in
  non local Contribution for L=           0  read in
    real space projection operators read in
    PAW grid and wavefunctions read in
 
   number of l-projection  operators is LMAX  =           6
   number of lm-projection operators is LMMAX =          18
 
 POTCAR:    PAW_PBE Ge 05Jan2001                  
   VRHFIN =Ge: s2p2                                                             
   LEXCH  = PE                                                                  
   EATOM  =   104.9960 eV,    7.7170 Ry                                         
                                                                                
   TITEL  = PAW_PBE Ge 05Jan2001                                                
   LULTRA =        F    use ultrasoft PP ?                                      
   IUNSCR =        1    unscreen: 0-lin 1-nonlin 2-no                           
   RPACOR =    2.170    partial core radius                                     
   POMASS =   72.610; ZVAL   =    4.000    mass and valenz                      
   RCORE  =    2.300    outmost cutoff radius                                   
   RWIGS  =    2.300; RWIGS  =    1.217    wigner-seitz radius (au A)           
   ENMAX  =  173.807; ENMIN  =  130.355 eV                                      
   ICORE  =        3    local potential                                         
   LCOR   =        T    correct aug charges                                     
   LPAW   =        T    paw PP                                                  
   EAUG   =  385.843                                                            
   DEXC   =    0.000                                                            
   RMAX   =    2.342    core radius for proj-oper                               
   RAUG   =    1.300    factor for augmentation sphere                          
   RDEP   =    2.318    radius for radial grids                                 
   RDEPT  =    2.103    core radius for aug-charge                              
                                                                                
   Atomic configuration                                                         
   10 entries                                                                   
     n  l   j            E        occ.                                          
     1  0  0.50    -10959.8463   2.0000                                         
     2  0  0.50     -1371.6056   2.0000                                         
     2  1  1.50     -1198.4791   6.0000                                         
     3  0  0.50      -168.4733   2.0000                                         
     3  1  1.50      -115.6019   6.0000                                         
     3  2  2.50       -29.3106  10.0000                                         
     4  0  0.50       -11.7309   2.0000                                         
     4  1  0.50        -3.8952   2.0000                                         
     4  2  1.50        -4.0817   0.0000                                         
     4  3  2.50        -4.0817   0.0000                                         
   Description                                                                  
     l       E           TYP  RCUT    TYP  RCUT                                 
     0    -11.7309493     23  2.300                                             
     0     -7.4578696     23  2.300                                             
     1     -3.8952261     23  2.300                                             
     1      6.1178114     23  2.300                                             
     2     -4.0817478     23  2.300                                             
     3     -1.3605826      7  2.300                                             
  local pseudopotential read in
  partial core-charges read in
  partial kinetic energy density read in
  atomic valenz-charges read in
  non local Contribution for L=           0  read in
    real space projection operators read in
  non local Contribution for L=           0  read in
    real space projection operators read in
  non local Contribution for L=           1  read in
    real space projection operators read in
  non local Contribution for L=           1  read in
    real space projection operators read in
  non local Contribution for L=           2  read in
    real space projection operators read in
    PAW grid and wavefunctions read in
 
   number of l-projection  operators is LMAX  =           5
   number of lm-projection operators is LMMAX =          13
 
 POTCAR:    PAW_PBE S 17Jan2003                   
   VRHFIN =S : s2p4                                                             
   LEXCH  = PE                                                                  
   EATOM  =   276.8230 eV,   20.3459 Ry                                         
                                                                                
   TITEL  = PAW_PBE S 17Jan2003                                                 
   LULTRA =        F    use ultrasoft PP ?                                      
   IUNSCR =        1    unscreen: 0-lin 1-nonlin 2-no                           
   RPACOR =    1.500    partial core radius                                     
   POMASS =   32.066; ZVAL   =    6.000    mass and valenz                      
   RCORE  =    1.900    outmost cutoff radius                                   
   RWIGS  =    2.200; RWIGS  =    1.164    wigner-seitz radius (au A)           
   ENMAX  =  280.000; ENMIN  =  194.016 eV                                      
   ICORE  =        2    local potential                                         
   LCOR   =        T    correct aug charges                                     
   LPAW   =        T    paw PP                                                  
   EAUG   =  335.092                                                            
   DEXC   =     .000                                                            
   RMAX   =    2.867    core radius for proj-oper                               
   RAUG   =    1.300    factor for augmentation sphere                          
   RDEP   =    1.954    radius for radial grids                                 
   QCUT   =   -4.360; QGAM   =    8.721    optimization parameters              
                                                                                
   Description                                                                  
     l     E      TYP  RCUT    TYP  RCUT                                        
     0   .000     23  1.900                                                     
     0   .000     23  1.900                                                     
     1   .000     23  1.900                                                     
     1   .000     23  1.900                                                     
     2   .000     23  1.900                                                     
  local pseudopotential read in
  partial core-charges read in
  atomic valenz-charges read in
  non local Contribution for L=           0  read in
    real space projection operators read in
  non local Contribution for L=           0  read in
    real space projection operators read in
  non local Contribution for L=           1  read in
    real space projection operators read in
  non local Contribution for L=           1  read in
    real space projection operators read in
    PAW grid and wavefunctions read in
 
   number of l-projection  operators is LMAX  =           4
   number of lm-projection operators is LMMAX =           8
 
  PAW_PBE Cu_pv 06Sep2000               :
 energy of atom  1       EATOM=-4120.1201
 kinetic energy error for atom=    0.0996 (will be added to EATOM!!)
  PAW_PBE Ge 05Jan2001                  :
 energy of atom  2       EATOM= -104.9960
 kinetic energy error for atom=    0.0003 (will be added to EATOM!!)
  PAW_PBE S 17Jan2003                   :
 energy of atom  3       EATOM= -276.8230
 kinetic energy error for atom=    0.0046 (will be added to EATOM!!)
 
 
 POSCAR: Cu Ge S                                 
  positions in direct lattice
  No initial velocities read in
 exchange correlation table for  LEXCH =        8
   RHO(1)=    0.500       N(1)  =     2000
   RHO(2)=  100.500       N(2)  =     4000
 


--------------------------------------------------------------------------------------------------------


 ion  position               nearest neighbor table
   1  0.618  0.121  0.120-   9 2.29  11 2.29  12 2.30   8 2.35
   2  0.121  0.618  0.620-  12 2.29   7 2.29   9 2.30  10 2.35
   3  0.963  0.790  0.119-  11 2.30  12 2.30   7 2.31   8 2.36
   4  0.790  0.963  0.619-   7 2.30   9 2.31  11 2.31  10 2.36
   5  0.440  0.267  0.599-   9 2.19   7 2.19  10 2.31   8 2.33
   6  0.267  0.440  0.099-  11 2.19  12 2.19   8 2.31  10 2.33
   7  0.079  0.912  0.497-   5 2.19   2 2.29   4 2.30   3 2.31
   8  0.571  0.412  0.980-   6 2.31   5 2.33   1 2.35   3 2.36
   9  0.737  0.252  0.495-   5 2.19   1 2.29   2 2.30   4 2.31
  10  0.412  0.571  0.480-   5 2.31   6 2.33   2 2.35   4 2.36
  11  0.912  0.079  0.997-   6 2.19   1 2.29   3 2.30   4 2.31
  12  0.250  0.737  0.995-   6 2.19   2 2.29   3 2.30   1 2.30
 
  Warning from LATTYP: Got some problem with cell dimensions!
  Tried to take original basis but could not verify dimensions!
  LATTYP: Found a base centered monoclinic cell.
 ALAT       =     6.4499010947
 B/A-ratio  =     1.7500516418
 C/A-ratio  =     1.9305142024
 COS(beta)  =    -0.4326083233
  
  Lattice vectors:
  
 A1 = (   3.2247960000,   5.6438300000,   0.0315720000)
 A2 = (   3.2247960000,  -5.6438300000,   0.0315720000)
 A3 = ( -10.7972380000,   0.0000000000,  -6.2018250000)


Analysis of symmetry for initial positions (statically):
=====================================================================
 Subroutine PRICEL returns:
 Original cell was already a primitive cell.
 

 Routine SETGRP: Setting up the symmetry group for a 
 base centered monoclinic supercell.


 Subroutine GETGRP returns: Found  1 space group operations
 (whereof  1 operations were pure point group operations)
 out of a pool of  4 trial point group operations.


The static configuration has the point symmetry C_1 .


Analysis of symmetry for dynamics (positions and initial velocities):
=====================================================================
 Subroutine PRICEL returns:
 Original cell was already a primitive cell.
 

 Routine SETGRP: Setting up the symmetry group for a 
 base centered monoclinic supercell.


 Subroutine GETGRP returns: Found  1 space group operations
 (whereof  1 operations were pure point group operations)
 out of a pool of  4 trial point group operations.


The dynamic configuration has the point symmetry C_1 .


 irot  :   1
 --------------------------------------------------------------------
 isymop:   1   0   0
           0   1   0
           0   0   1

 gtrans:     0.0000000     0.0000000     0.0000000

 ptrans:     0.0000000     0.0000000     0.0000000
 rotmap:
 (   1->   1)  (   2->   2)  (   3->   3)  (   4->   4)  (   5->   5) 
 (   6->   6)  (   7->   7)  (   8->   8)  (   9->   9)  (  10->  10) 
 (  11->  11)  (  12->  12) 
 
 
 KPOINTS: pymatgen 4.7.6+ generated KPOINTS with g

Automatic generation of k-mesh.
Space group operators:
 irot       det(A)        alpha          n_x          n_y          n_z        tau_x        tau_y        tau_z
    1     1.000000     0.000000     1.000000     0.000000     0.000000     0.000000     0.000000     0.000000
 
 Subroutine IBZKPT returns following result:
 ===========================================
 
 Found     42 irreducible k-points:
 
 Following reciprocal coordinates:
            Coordinates               Weight
  0.000000  0.000000  0.000000      1.000000
  0.250000  0.000000  0.000000      2.000000
  0.500000  0.000000  0.000000      1.000000
  0.000000  0.250000  0.000000      2.000000
  0.250000  0.250000  0.000000      2.000000
  0.500000  0.250000 -0.000000      2.000000
 -0.250000  0.250000  0.000000      2.000000
  0.000000  0.500000  0.000000      1.000000
  0.250000  0.500000 -0.000000      2.000000
  0.500000  0.500000  0.000000      1.000000
 -0.000000 -0.000000  0.200000      2.000000
  0.250000  0.000000  0.200000      2.000000
  0.500000  0.000000  0.200000      2.000000
 -0.250000 -0.000000  0.200000      2.000000
  0.000000  0.250000  0.200000      2.000000
  0.250000  0.250000  0.200000      2.000000
  0.500000  0.250000  0.200000      2.000000
 -0.250000  0.250000  0.200000      2.000000
  0.000000  0.500000  0.200000      2.000000
  0.250000  0.500000  0.200000      2.000000
  0.500000  0.500000  0.200000      2.000000
 -0.250000  0.500000  0.200000      2.000000
 -0.000000 -0.250000  0.200000      2.000000
  0.250000 -0.250000  0.200000      2.000000
  0.500000 -0.250000  0.200000      2.000000
 -0.250000 -0.250000  0.200000      2.000000
 -0.000000 -0.000000  0.400000      2.000000
  0.250000  0.000000  0.400000      2.000000
  0.500000  0.000000  0.400000      2.000000
 -0.250000  0.000000  0.400000      2.000000
  0.000000  0.250000  0.400000      2.000000
  0.250000  0.250000  0.400000      2.000000
  0.500000  0.250000  0.400000      2.000000
 -0.250000  0.250000  0.400000      2.000000
  0.000000  0.500000  0.400000      2.000000
  0.250000  0.500000  0.400000      2.000000
  0.500000  0.500000  0.400000      2.000000
 -0.250000  0.500000  0.400000      2.000000
  0.000000 -0.250000  0.400000      2.000000
  0.250000 -0.250000  0.400000      2.000000
  0.500000 -0.250000  0.400000      2.000000
 -0.250000 -0.250000  0.400000      2.000000
 
 Following cartesian coordinates:
            Coordinates               Weight
  0.000000  0.000000  0.000000      1.000000
  0.038631 -0.022148  0.013365      2.000000
  0.077263 -0.044296  0.026730      1.000000
  0.038631  0.022148  0.013365      2.000000
  0.077263  0.000000  0.026730      2.000000
  0.115894 -0.022148  0.040096      2.000000
  0.000000  0.044296  0.000000      2.000000
  0.077263  0.044296  0.026730      1.000000
  0.115894  0.022148  0.040096      2.000000
  0.154525  0.000000  0.053461      1.000000
 -0.000321  0.000000  0.032808      2.000000
  0.038310 -0.022148  0.046173      2.000000
  0.076941 -0.044296  0.059538      2.000000
 -0.038952  0.022148  0.019443      2.000000
  0.038310  0.022148  0.046173      2.000000
  0.076941  0.000000  0.059538      2.000000
  0.115573 -0.022148  0.072903      2.000000
 -0.000321  0.044296  0.032808      2.000000
  0.076941  0.044296  0.059538      2.000000
  0.115573  0.022148  0.072903      2.000000
  0.154204  0.000000  0.086269      2.000000
  0.038310  0.066444  0.046173      2.000000
 -0.038952 -0.022148  0.019443      2.000000
 -0.000321 -0.044296  0.032808      2.000000
  0.038310 -0.066444  0.046173      2.000000
 -0.077584  0.000000  0.006077      2.000000
 -0.000642  0.000000  0.065616      2.000000
  0.037989 -0.022148  0.078981      2.000000
  0.076620 -0.044296  0.092346      2.000000
 -0.039274  0.022148  0.052250      2.000000
  0.037989  0.022148  0.078981      2.000000
  0.076620  0.000000  0.092346      2.000000
  0.115251 -0.022148  0.105711      2.000000
 -0.000642  0.044296  0.065616      2.000000
  0.076620  0.044296  0.092346      2.000000
  0.115251  0.022148  0.105711      2.000000
  0.153883  0.000000  0.119076      2.000000
  0.037989  0.066444  0.078981      2.000000
 -0.039274 -0.022148  0.052250      2.000000
 -0.000642 -0.044296  0.065616      2.000000
  0.037989 -0.066444  0.078981      2.000000
 -0.077905  0.000000  0.038885      2.000000
 
 
 Subroutine IBZKPT_HF returns following result:
 ==============================================
 
 Found     80 k-points in 1st BZ
 the following     80 k-points will be used (e.g. in the exchange kernel)
 Following reciprocal coordinates:   # in IRBZ
  0.000000  0.000000  0.000000       1 t-inv F
  0.250000  0.000000  0.000000       2 t-inv F
  0.500000  0.000000  0.000000       3 t-inv F
  0.000000  0.250000  0.000000       4 t-inv F
  0.250000  0.250000  0.000000       5 t-inv F
  0.500000  0.250000 -0.000000       6 t-inv F
 -0.250000  0.250000  0.000000       7 t-inv F
  0.000000  0.500000  0.000000       8 t-inv F
  0.250000  0.500000 -0.000000       9 t-inv F
  0.500000  0.500000  0.000000      10 t-inv F
 -0.000000 -0.000000  0.200000      11 t-inv F
  0.250000  0.000000  0.200000      12 t-inv F
  0.500000  0.000000  0.200000      13 t-inv F
 -0.250000 -0.000000  0.200000      14 t-inv F
  0.000000  0.250000  0.200000      15 t-inv F
  0.250000  0.250000  0.200000      16 t-inv F
  0.500000  0.250000  0.200000      17 t-inv F
 -0.250000  0.250000  0.200000      18 t-inv F
  0.000000  0.500000  0.200000      19 t-inv F
  0.250000  0.500000  0.200000      20 t-inv F
  0.500000  0.500000  0.200000      21 t-inv F
 -0.250000  0.500000  0.200000      22 t-inv F
 -0.000000 -0.250000  0.200000      23 t-inv F
  0.250000 -0.250000  0.200000      24 t-inv F
  0.500000 -0.250000  0.200000      25 t-inv F
 -0.250000 -0.250000  0.200000      26 t-inv F
 -0.000000 -0.000000  0.400000      27 t-inv F
  0.250000  0.000000  0.400000      28 t-inv F
  0.500000  0.000000  0.400000      29 t-inv F
 -0.250000  0.000000  0.400000      30 t-inv F
  0.000000  0.250000  0.400000      31 t-inv F
  0.250000  0.250000  0.400000      32 t-inv F
  0.500000  0.250000  0.400000      33 t-inv F
 -0.250000  0.250000  0.400000      34 t-inv F
  0.000000  0.500000  0.400000      35 t-inv F
  0.250000  0.500000  0.400000      36 t-inv F
  0.500000  0.500000  0.400000      37 t-inv F
 -0.250000  0.500000  0.400000      38 t-inv F
  0.000000 -0.250000  0.400000      39 t-inv F
  0.250000 -0.250000  0.400000      40 t-inv F
  0.500000 -0.250000  0.400000      41 t-inv F
 -0.250000 -0.250000  0.400000      42 t-inv F
 -0.250000 -0.000000 -0.000000       2 t-inv T
 -0.000000 -0.250000 -0.000000       4 t-inv T
 -0.250000 -0.250000  0.000000       5 t-inv T
 -0.500000 -0.250000  0.000000       6 t-inv T
  0.250000 -0.250000  0.000000       7 t-inv T
 -0.250000 -0.500000  0.000000       9 t-inv T
  0.000000  0.000000 -0.200000      11 t-inv T
 -0.250000 -0.000000 -0.200000      12 t-inv T
 -0.500000 -0.000000 -0.200000      13 t-inv T
  0.250000  0.000000 -0.200000      14 t-inv T
 -0.000000 -0.250000 -0.200000      15 t-inv T
 -0.250000 -0.250000 -0.200000      16 t-inv T
 -0.500000 -0.250000 -0.200000      17 t-inv T
  0.250000 -0.250000 -0.200000      18 t-inv T
 -0.000000 -0.500000 -0.200000      19 t-inv T
 -0.250000 -0.500000 -0.200000      20 t-inv T
 -0.500000 -0.500000 -0.200000      21 t-inv T
  0.250000 -0.500000 -0.200000      22 t-inv T
  0.000000  0.250000 -0.200000      23 t-inv T
 -0.250000  0.250000 -0.200000      24 t-inv T
 -0.500000  0.250000 -0.200000      25 t-inv T
  0.250000  0.250000 -0.200000      26 t-inv T
  0.000000  0.000000 -0.400000      27 t-inv T
 -0.250000 -0.000000 -0.400000      28 t-inv T
 -0.500000 -0.000000 -0.400000      29 t-inv T
  0.250000 -0.000000 -0.400000      30 t-inv T
 -0.000000 -0.250000 -0.400000      31 t-inv T
 -0.250000 -0.250000 -0.400000      32 t-inv T
 -0.500000 -0.250000 -0.400000      33 t-inv T
  0.250000 -0.250000 -0.400000      34 t-inv T
 -0.000000 -0.500000 -0.400000      35 t-inv T
 -0.250000 -0.500000 -0.400000      36 t-inv T
 -0.500000 -0.500000 -0.400000      37 t-inv T
  0.250000 -0.500000 -0.400000      38 t-inv T
 -0.000000  0.250000 -0.400000      39 t-inv T
 -0.250000  0.250000 -0.400000      40 t-inv T
 -0.500000  0.250000 -0.400000      41 t-inv T
  0.250000  0.250000 -0.400000      42 t-inv T


--------------------------------------------------------------------------------------------------------




 Dimension of arrays:
   k-points           NKPTS =     42   k-points in BZ     NKDIM =     80   number of bands    NBANDS=     80
   number of dos      NEDOS =    301   number of ions     NIONS =     12
   non local maximal  LDIM  =      6   non local SUM 2l+1 LMDIM =     18
   total plane-waves  NPLWV =  32768
   max r-space proj   IRMAX =      1   max aug-charges    IRDMAX=   8224
   dimension x,y,z NGX =    32 NGY =   32 NGZ =   32
   dimension x,y,z NGXF=    64 NGYF=   64 NGZF=   64
   support grid    NGXF=    64 NGYF=   64 NGZF=   64
   ions per type =               4   2   6
 NGX,Y,Z   is equivalent  to a cutoff of   8.18,  8.18,  8.27 a.u.
 NGXF,Y,Z  is equivalent  to a cutoff of  16.37, 16.37, 16.55 a.u.


 I would recommend the setting:
   dimension x,y,z NGX =    32 NGY =   32 NGZ =   31
 SYSTEM =  CGS                                     
 POSCAR =  Cu Ge S                                 

 Startparameter for this run:
   NWRITE =      2    write-flag & timer
   PREC   = normal    normal or accurate (medium, high low for compatibility)
   ISTART =      1    job   : 0-new  1-cont  2-samecut
   ICHARG =      0    charge: 1-file 2-atom 10-const
   ISPIN  =      1    spin polarized calculation?
   LNONCOLLINEAR =      F non collinear calculations
   LSORBIT =      F    spin-orbit coupling
   INIWAV =      1    electr: 0-lowe 1-rand  2-diag
   LASPH  =      F    aspherical Exc in radial PAW
   METAGGA=      F    non-selfconsistent MetaGGA calc.

 Electronic Relaxation 1
   ENCUT  =  400.0 eV  29.40 Ry    5.42 a.u.  10.60 10.60 10.48*2*pi/ulx,y,z
   ENINI  =  400.0     initial cutoff
   ENAUG  =  758.2 eV  augmentation charge cutoff
   NELM   =     60;   NELMIN=  2; NELMDL=  0     # of ELM steps 
   EDIFF  = 0.1E-04   stopping-criterion for ELM
   LREAL  =      F    real-space projection
   NLSPLINE    = F    spline interpolate recip. space projectors
   LCOMPAT=      F    compatible to vasp.4.4
   GGA_COMPAT  = T    GGA compatible to vasp.4.4-vasp.4.6
   LMAXPAW     = -100 max onsite density
   LMAXMIX     =    2 max onsite mixed and CHGCAR
   VOSKOWN=      0    Vosko Wilk Nusair interpolation
   ROPT   =    0.00000   0.00000   0.00000
 Ionic relaxation
   EDIFFG = 0.1E-03   stopping-criterion for IOM
   NSW    =      0    number of steps for IOM
   NBLOCK =      1;   KBLOCK =      1    inner block; outer block 
   IBRION =     -1    ionic relax: 0-MD 1-quasi-New 2-CG
   NFREE  =      0    steps in history (QN), initial steepest desc. (CG)
   ISIF   =      0    stress and relaxation
   IWAVPR =     10    prediction:  0-non 1-charg 2-wave 3-comb
   ISYM   =      3    0-nonsym 1-usesym 2-fastsym
   LCORR  =      T    Harris-Foulkes like correction to forces

   POTIM  = 0.5000    time-step for ionic-motion
   TEIN   =    0.0    initial temperature
   TEBEG  =    0.0;   TEEND  =   0.0 temperature during run
   SMASS  =  -3.00    Nose mass-parameter (am)
   estimated Nose-frequenzy (Omega)   =  0.10E-29 period in steps =****** mass=  -0.966E-27a.u.
   SCALEE = 1.0000    scale energy and forces
   NPACO  =    256;   APACO  = 16.0  distance and # of slots for P.C.
   PSTRESS=    0.0 pullay stress

  Mass of Ions in am
   POMASS =  63.55 72.61 32.07
  Ionic Valenz
   ZVAL   =  17.00  4.00  6.00
  Atomic Wigner-Seitz radii
   RWIGS  =  -1.00 -1.00 -1.00
  virtual crystal weights 
   VCA    =   1.00  1.00  1.00
   NELECT =     112.0000    total number of electrons
   NUPDOWN=      -1.0000    fix difference up-down

 DOS related values:
   EMIN   =  10.00;   EMAX   =-10.00  energy-range for DOS
   EFERMI =   0.00
   ISMEAR =     1;   SIGMA  =   0.10  broadening in eV -4-tet -1-fermi 0-gaus

 Electronic relaxation 2 (details)
   IALGO  =     53    algorithm
   LDIAG  =      T    sub-space diagonalisation (order eigenvalues)
   LSUBROT=      T    optimize rotation matrix (better conditioning)
   TURBO    =      0    0=normal 1=particle mesh
   IRESTART =      0    0=no restart 2=restart with 2 vectors
   NREBOOT  =      0    no. of reboots
   NMIN     =      0    reboot dimension
   EREF     =   0.00    reference energy to select bands
   IMIX   =      4    mixing-type and parameters
     AMIX     =   0.40;   BMIX     =  1.00
     AMIX_MAG =   1.60;   BMIX_MAG =  1.00
     AMIN     =   0.10
     WC   =   100.;   INIMIX=   1;  MIXPRE=   1;  MAXMIX= -45

 Intra band minimization:
   WEIMIN = 0.0000     energy-eigenvalue tresh-hold
   EBREAK =  0.31E-07  absolut break condition
   DEPER  =   0.30     relativ break condition  

   TIME   =   0.40     timestep for ELM

  volume/ion in A,a.u.               =      18.49       124.79
  Fermi-wavevector in a.u.,A,eV,Ry     =   1.303450  2.463163 23.116052  1.698982
  Thomas-Fermi vector in A             =   2.434451
 
 Write flags
   LWAVE  =      T    write WAVECAR
   LCHARG =      T    write CHGCAR
   LVTOT  =      F    write LOCPOT, total local potential
   LVHAR  =      F    write LOCPOT, Hartree potential only
   LELF   =      F    write electronic localiz. function (ELF)
   LORBIT =      0    0 simple, 1 ext, 2 COOP (PROOUT)


 Dipole corrections
   LMONO  =      F    monopole corrections only (constant potential shift)
   LDIPOL =      F    correct potential (dipole corrections)
   IDIPOL =      0    1-x, 2-y, 3-z, 4-all directions 
   EPSILON=  1.0000000 bulk dielectric constant

 Exchange correlation treatment:
   GGA     =    PE    GGA type
   LEXCH   =     8    internal setting for exchange type
   VOSKOWN=      0    Vosko Wilk Nusair interpolation
   EXXOEP  =     0    0=HF, 1=EXX-LHF (local Hartree Fock) 2=EXX OEP
   LHFCALC =     T    Hartree Fock is set to
   LSYMGRAD=     F    symmetrize gradient (conserves proper symmetry)
   PRECFOCK=fast      Normal, Fast or Accurate (Low or Medium for compatibility)
   LRHFCALC=     F    long range Hartree Fock
   LRSCOR  =     F    long range correlation only (use DFT for short range part)
   LTHOMAS =     F    Thomas Fermi screening in HF
   LMODELHF=     F    short range full HF, long range fraction AEXX
   ENCUT4O =  -1.0   cutoff for four orbital integrals eV
   LMAXFOCK=     4    L truncation for augmentation on plane wave grid
   LMAXFOCKAE=  -1    L truncation for all-electron charge restoration on plane wave grid
   NMAXFOCKAE=   1    number of basis functions for all-electron charge restoration
   LFOCKAEDFT=     F  apply the AE augmentation even for DFT
   NKREDX  =     1    reduce k-point grid by
   NKREDY  =     1    reduce k-point grid by
   NKREDZ  =     1    reduce k-point grid by
   SHIFTRED=     F    shift reduced grid of Gamma
   HFKIDENT=     F    idential grid for each k-point
   ODDONLY =     F    use only odd q-grid points
   EVENONLY=     F    use only even q-grid points
   HFALPHA =   -1.0000 decay constant for conv. correction
   MCALPHA =    0.0000 extent of test-charge in conv. correction in multipole expansion
   AEXX    =    0.2500 exact exchange contribution
   HFSCREEN=    0.2000 screening length (either q_TF or 0.3 A-1)
   HFSCREENC=   0.2000 screening length for correlation (either q_TF or 0.3 A-1)
   HFRCUT  =    0.0000 spherical cutoff for potential kernel
   ALDAX   =    0.7500 LDA exchange part
   AGGAX   =    0.7500 GGA exchange part
   ALDAC   =    1.0000 LDA correlation
   AGGAC   =    1.0000 GGA correlation
   NBANDSGWLOW=     1    first orbital included in HF term
 Linear response parameters
   LEPSILON=     F    determine dielectric tensor
   LRPA    =     F    only Hartree local field effects (RPA)
   LNABLA  =     F    use nabla operator in PAW spheres
   LVEL    =     F    velocity operator in full k-point grid
   LINTERFAST=   F  fast interpolation
   KINTER  =     0    interpolate to denser k-point grid
   CSHIFT  =0.1000    complex shift for real part using Kramers Kronig
   OMEGAMAX=  -1.0    maximum frequency
   DEG_THRESHOLD= 0.2000000E-02 threshold for treating states as degnerate
   RTIME   =    0.100 relaxation time in fs

 Orbital magnetization related:
   ORBITALMAG=     F  switch on orbital magnetization
   LCHIMAG   =     F  perturbation theory with respect to B field
   DQ        =  0.001000  dq finite difference perturbation B field



--------------------------------------------------------------------------------------------------------


 Static calculation
 charge density and potential will be updated during run
 non-spin polarized calculation
 Conjugate gradient for all bands, subspace preconditioning
 perform sub-space diagonalisation
    before iterative eigenvector-optimisation
 modified Broyden-mixing scheme, WC =      100.0
 initial mixing is a Kerker type mixing with AMIX =  0.4000 and BMIX =      1.0000
 Hartree-type preconditioning will be used
 using additional bands           24
 reciprocal scheme for non local part
 use partial core corrections
 no Harris-corrections to forces 
 use gradient corrections 
 use of overlap-Matrix (Vanderbilt PP)
 Methfessel and Paxton  Order N= 1 SIGMA  =   0.10


--------------------------------------------------------------------------------------------------------


  energy-cutoff  :      400.00
  volume of cell :      221.90
      direct lattice vectors                 reciprocal lattice vectors
     3.224796000 -5.643830000  0.031572000     0.154525165 -0.088592321  0.053460880
     3.224796000  5.643830000  0.031572000     0.154525165  0.088592321  0.053460880
    -2.101946000  0.000000000  6.075537000    -0.001606004  0.000000000  0.164038877

  length of vectors
     6.500240234  6.500240234  6.428866683     0.185969598  0.185969598  0.164046738


 
 old parameters found on file WAVECAR:
  energy-cutoff  :      400.00
  volume of cell :      222.35
      direct lattice vectors                 reciprocal lattice vectors
     3.227235519 -5.642745207  0.030241751     0.154430495 -0.088609353  0.053450002
     3.227235519  5.642745207  0.030241751     0.154430495  0.088609353  0.053450002
    -2.106135241  0.000000000  6.085154262    -0.001534965  0.000000000  0.163803104

  length of vectors

 
 k-points in units of 2pi/SCALE and weight: pymatgen 4.7.6+ generated KPOINTS with g
   0.00000000  0.00000000  0.00000000       0.013
   0.03863129 -0.02214808  0.01336522       0.025
   0.07726258 -0.04429616  0.02673044       0.013
   0.03863129  0.02214808  0.01336522       0.025
   0.07726258  0.00000000  0.02673044       0.025
   0.11589387 -0.02214808  0.04009566       0.025
   0.00000000  0.04429616  0.00000000       0.025
   0.07726258  0.04429616  0.02673044       0.013
   0.11589387  0.02214808  0.04009566       0.025
   0.15452516  0.00000000  0.05346088       0.013
  -0.00032120  0.00000000  0.03280778       0.025
   0.03831009 -0.02214808  0.04617300       0.025
   0.07694138 -0.04429616  0.05953822       0.025
  -0.03895249  0.02214808  0.01944256       0.025
   0.03831009  0.02214808  0.04617300       0.025
   0.07694138  0.00000000  0.05953822       0.025
   0.11557267 -0.02214808  0.07290344       0.025
  -0.00032120  0.04429616  0.03280778       0.025
   0.07694138  0.04429616  0.05953822       0.025
   0.11557267  0.02214808  0.07290344       0.025
   0.15420396  0.00000000  0.08626865       0.025
   0.03831009  0.06644424  0.04617300       0.025
  -0.03895249 -0.02214808  0.01944256       0.025
  -0.00032120 -0.04429616  0.03280778       0.025
   0.03831009 -0.06644424  0.04617300       0.025
  -0.07758378  0.00000000  0.00607734       0.025
  -0.00064240  0.00000000  0.06561555       0.025
   0.03798889 -0.02214808  0.07898077       0.025
   0.07662018 -0.04429616  0.09234599       0.025
  -0.03927369  0.02214808  0.05225033       0.025
   0.03798889  0.02214808  0.07898077       0.025
   0.07662018  0.00000000  0.09234599       0.025
   0.11525147 -0.02214808  0.10571121       0.025
  -0.00064240  0.04429616  0.06561555       0.025
   0.07662018  0.04429616  0.09234599       0.025
   0.11525147  0.02214808  0.10571121       0.025
   0.15388276  0.00000000  0.11907643       0.025
   0.03798889  0.06644424  0.07898077       0.025
  -0.03927369 -0.02214808  0.05225033       0.025
  -0.00064240 -0.04429616  0.06561555       0.025
   0.03798889 -0.06644424  0.07898077       0.025
  -0.07790498  0.00000000  0.03888511       0.025
 
 k-points in reciprocal lattice and weights: pymatgen 4.7.6+ generated KPOINTS with g
   0.00000000  0.00000000  0.00000000       0.013
   0.25000000  0.00000000  0.00000000       0.025
   0.50000000  0.00000000  0.00000000       0.013
   0.00000000  0.25000000  0.00000000       0.025
   0.25000000  0.25000000  0.00000000       0.025
   0.50000000  0.25000000 -0.00000000       0.025
  -0.25000000  0.25000000  0.00000000       0.025
   0.00000000  0.50000000  0.00000000       0.013
   0.25000000  0.50000000 -0.00000000       0.025
   0.50000000  0.50000000  0.00000000       0.013
  -0.00000000 -0.00000000  0.20000000       0.025
   0.25000000  0.00000000  0.20000000       0.025
   0.50000000  0.00000000  0.20000000       0.025
  -0.25000000 -0.00000000  0.20000000       0.025
   0.00000000  0.25000000  0.20000000       0.025
   0.25000000  0.25000000  0.20000000       0.025
   0.50000000  0.25000000  0.20000000       0.025
  -0.25000000  0.25000000  0.20000000       0.025
   0.00000000  0.50000000  0.20000000       0.025
   0.25000000  0.50000000  0.20000000       0.025
   0.50000000  0.50000000  0.20000000       0.025
  -0.25000000  0.50000000  0.20000000       0.025
  -0.00000000 -0.25000000  0.20000000       0.025
   0.25000000 -0.25000000  0.20000000       0.025
   0.50000000 -0.25000000  0.20000000       0.025
  -0.25000000 -0.25000000  0.20000000       0.025
  -0.00000000 -0.00000000  0.40000000       0.025
   0.25000000  0.00000000  0.40000000       0.025
   0.50000000  0.00000000  0.40000000       0.025
  -0.25000000  0.00000000  0.40000000       0.025
   0.00000000  0.25000000  0.40000000       0.025
   0.25000000  0.25000000  0.40000000       0.025
   0.50000000  0.25000000  0.40000000       0.025
  -0.25000000  0.25000000  0.40000000       0.025
   0.00000000  0.50000000  0.40000000       0.025
   0.25000000  0.50000000  0.40000000       0.025
   0.50000000  0.50000000  0.40000000       0.025
  -0.25000000  0.50000000  0.40000000       0.025
   0.00000000 -0.25000000  0.40000000       0.025
   0.25000000 -0.25000000  0.40000000       0.025
   0.50000000 -0.25000000  0.40000000       0.025
  -0.25000000 -0.25000000  0.40000000       0.025
 
 position of ions in fractional coordinates (direct lattice) 
   0.61844300  0.12117100  0.11953300
   0.12117100  0.61844300  0.61953300
   0.96295700  0.79032200  0.11881300
   0.79032200  0.96295700  0.61881300
   0.43973200  0.26728100  0.59904700
   0.26728100  0.43973200  0.09904700
   0.07949800  0.91167500  0.49736300
   0.57140300  0.41236400  0.98018400
   0.73711100  0.25160040  0.49504900
   0.41236400  0.57140300  0.48018400
   0.91167500  0.07949800  0.99736300
   0.25006200  0.73711100  0.99504900
 
 position of ions in cartesian coordinates  (Angst):
   2.13385236 -2.80651863  0.74957826
   1.08287936  2.80651863  3.78734676
   5.40422860 -0.97432259  0.77720730
   4.35325560  0.97432259  3.81497580
   1.02080825 -0.97328413  3.66185403
   2.07178125  0.97328413  0.62408553
   2.15090056  4.69666552  3.05304062
   1.11215405 -0.89758908  5.98620365
   2.14782632 -2.74013926  3.03890411
   2.16312705  0.89758908  2.94843515
   1.09992756 -4.69666552  6.09080912
   1.09189228  2.74882176  6.07662404
 


--------------------------------------------------------------------------------------------------------


 k-point  1 :   0.0000 0.0000 0.0000  plane waves:    4051
 k-point  2 :   0.2500 0.0000 0.0000  plane waves:    4032
 k-point  3 :   0.5000 0.0000 0.0000  plane waves:    4030
 k-point  4 :   0.0000 0.2500 0.0000  plane waves:    4032
 k-point  5 :   0.2500 0.2500 0.0000  plane waves:    4038
 k-point  6 :   0.5000 0.2500-0.0000  plane waves:    4037
 k-point  7 :  -0.2500 0.2500 0.0000  plane waves:    4042
 k-point  8 :   0.0000 0.5000 0.0000  plane waves:    4030
 k-point  9 :   0.2500 0.5000-0.0000  plane waves:    4037
 k-point 10 :   0.5000 0.5000 0.0000  plane waves:    4026
 k-point 11 :  -0.0000-0.0000 0.2000  plane waves:    4046
 k-point 12 :   0.2500 0.0000 0.2000  plane waves:    4034
 k-point 13 :   0.5000 0.0000 0.2000  plane waves:    4025
 k-point 14 :  -0.2500-0.0000 0.2000  plane waves:    4044
 k-point 15 :   0.0000 0.2500 0.2000  plane waves:    4034
 k-point 16 :   0.2500 0.2500 0.2000  plane waves:    4017
 k-point 17 :   0.5000 0.2500 0.2000  plane waves:    4039
 k-point 18 :  -0.2500 0.2500 0.2000  plane waves:    4042
 k-point 19 :   0.0000 0.5000 0.2000  plane waves:    4025
 k-point 20 :   0.2500 0.5000 0.2000  plane waves:    4039
 k-point 21 :   0.5000 0.5000 0.2000  plane waves:    4030
 k-point 22 :  -0.2500 0.5000 0.2000  plane waves:    4030
 k-point 23 :  -0.0000-0.2500 0.2000  plane waves:    4044
 k-point 24 :   0.2500-0.2500 0.2000  plane waves:    4042
 k-point 25 :   0.5000-0.2500 0.2000  plane waves:    4030
 k-point 26 :  -0.2500-0.2500 0.2000  plane waves:    4020
 k-point 27 :  -0.0000-0.0000 0.4000  plane waves:    4027
 k-point 28 :   0.2500 0.0000 0.4000  plane waves:    4034
 k-point 29 :   0.5000 0.0000 0.4000  plane waves:    4013
 k-point 30 :  -0.2500 0.0000 0.4000  plane waves:    4042
 k-point 31 :   0.0000 0.2500 0.4000  plane waves:    4034
 k-point 32 :   0.2500 0.2500 0.4000  plane waves:    4009
 k-point 33 :   0.5000 0.2500 0.4000  plane waves:    4026
 k-point 34 :  -0.2500 0.2500 0.4000  plane waves:    4027
 k-point 35 :   0.0000 0.5000 0.4000  plane waves:    4013
 k-point 36 :   0.2500 0.5000 0.4000  plane waves:    4026
 k-point 37 :   0.5000 0.5000 0.4000  plane waves:    4037
 k-point 38 :  -0.2500 0.5000 0.4000  plane waves:    4022
 k-point 39 :   0.0000-0.2500 0.4000  plane waves:    4042
 k-point 40 :   0.2500-0.2500 0.4000  plane waves:    4027
 k-point 41 :   0.5000-0.2500 0.4000  plane waves:    4022
 k-point 42 :  -0.2500-0.2500 0.4000  plane waves:    4015

 maximum and minimum number of plane-waves per node :      4051     4009

 maximum number of plane-waves:      4051
 maximum index in each direction: 
   IXMAX=   10   IYMAX=   10   IZMAX=   10
   IXMIN=  -11   IYMIN=  -11   IZMIN=  -10

 WARNING: aliasing errors must be expected set NGX to  44 to avoid them
 WARNING: aliasing errors must be expected set NGY to  44 to avoid them
 WARNING: aliasing errors must be expected set NGZ to  42 to avoid them
 aliasing errors are usually negligible using standard VASP settings
 and one can safely disregard these warnings

 serial   3D FFT for wavefunctions
 parallel 3D FFT for charge:
    minimum data exchange during FFTs selected (reduces bandwidth)


 FFT grid for exact exchange (Hartree Fock) 
  NGX = 24; NGY = 24; NGZ = 24

 
 Radii for the augmentation spheres in the non-local exchange
 for species   1 augmentation radius   1.120 (default was   0.830)
       energy cutoff for augmentation   1600.0
 for species   2 augmentation radius   1.570 (default was   1.163)
       energy cutoff for augmentation   1600.0
 for species   3 augmentation radius   1.034 (default was   0.970)
       energy cutoff for augmentation   1600.0

 total amount of memory used by VASP on root node   151696. kBytes
========================================================================

   base      :      30000. kBytes
   nonl-proj :      74517. kBytes
   fftplans  :        702. kBytes
   grid      :       2400. kBytes
   one-center:        186. kBytes
   HF        :        194. kBytes
   nonlr-proj:       1121. kBytes
   wavefun   :      42576. kBytes
 
 Broyden mixing: mesh for mixing (old mesh)
   NGX = 21   NGY = 21   NGZ = 21
  (NGX  = 64   NGY  = 64   NGZ  = 64)
  gives a total of   9261 points

 charge density for first step will be calculated from the start-wavefunctions


--------------------------------------------------------------------------------------------------------


 Maximum index for augmentation-charges          485 (set IRDMAX)


--------------------------------------------------------------------------------------------------------


 initial charge from wavefunction
 First call to EWALD:  gamma=   0.293
 Maximum number of real-space cells 3x 3x 3
 Maximum number of reciprocal cells 3x 3x 3

 FEWALD executed in parallel
    FEWALD:  cpu time    0.00: real time    0.00


----------------------------------------- Iteration    1(   1)  ---------------------------------------


    POTLOK:  cpu time    0.05: real time    0.05
    SETDIJ:  cpu time    1.98: real time    1.98
 
    SUBROT:  cpu time    0.81: real time    0.81
    SUBROT:  cpu time    0.38: real time    0.41
    SUBROT:  cpu time    0.37: real time    0.38
    SUBROT:  cpu time    0.38: real time    0.38
    --------------------------------------------
    SUBRT+:  cpu time    1.95: real time    2.00

 Broyden mixing:
  rms(total) = 0.10233E-01    rms(broyden)= 0.10229E-01
  rms(prec ) = 0.18259E-01
  weight for this iteration     100.00

 eigenvalues of (default mixing * dielectric matrix)
  average eigenvalue GAMMA=   1.6140
  2.4510  1.5379  0.8531
 
    TRIAL :  cpu time  243.51: real time  243.34
    CORREC:  cpu time    0.00: real time    0.01
    CHARGE:  cpu time    0.10: real time    0.10
    --------------------------------------------
      LOOP:  cpu time  245.66: real time  245.49

 eigenvalue-minimisations  :     0
 total energy-change (2. order) : 0.7553750E+02  (-0.2131631E+03)
 number of electron     112.0001480 magnetization 
 augmentation part       38.9109218 magnetization 

 Free energy of the ion-electron system (eV)
  ---------------------------------------------------
  alpha Z        PSCENC =       339.31929130
  Ewald energy   TEWEN  =     -9065.44803161
  -1/2 Hartree   DENC   =     -8067.43340742
  -exchange  EXHF       =       327.45054670
  -V(xc)+E(xc)   XCENC  =       369.90455427
  PAW double counting   =     16899.66214064   -17392.47771194
  entropy T*S    EENTRO =        -0.00147266
  eigenvalues    EBANDS =     -1656.42356601
  atomic energy  EATOM  =     18320.98302006
  ---------------------------------------------------
  free energy    TOTEN  =        75.53749929 eV

  energy without entropy =       75.53897194  energy(sigma->0) =       75.53799017


--------------------------------------------------------------------------------------------------------




----------------------------------------- Iteration    1(   2)  ---------------------------------------


    POTLOK:  cpu time    0.12: real time    0.12
    SETDIJ:  cpu time    2.03: real time    2.03
 
    SUBROT:  cpu time    1.49: real time    1.49
    SUBROT:  cpu time    0.64: real time    0.64
    SUBROT:  cpu time    0.69: real time    0.69
    SUBROT:  cpu time    0.65: real time    0.65
    --------------------------------------------
    SUBRT+:  cpu time    3.47: real time    3.49

 Broyden mixing:
  rms(total) = 0.27830E-01    rms(broyden)= 0.27820E-01
  rms(prec ) = 0.51142E-01
  weight for this iteration     100.00

 eigenvalues of (default mixing * dielectric matrix)
  average eigenvalue GAMMA=   1.5629
  2.5475  1.2810  0.8603
 
    TRIAL :  cpu time  269.01: real time  268.79
    CORREC:  cpu time    0.01: real time    0.01
    CHARGE:  cpu time    0.09: real time    0.09
    --------------------------------------------
      LOOP:  cpu time  271.27: real time  271.07

 eigenvalue-minimisations  :     0
 total energy-change (2. order) :-0.8392084E+02  (-0.1468880E+03)
 number of electron     112.0001385 magnetization 
 augmentation part       35.4554468 magnetization 

 Free energy of the ion-electron system (eV)
  ---------------------------------------------------
  alpha Z        PSCENC =       339.31929130
  Ewald energy   TEWEN  =     -9065.44803161
  -1/2 Hartree   DENC   =     -8369.40725725
  -exchange  EXHF       =       338.95974747
  -V(xc)+E(xc)   XCENC  =       377.31909128
  PAW double counting   =     17400.63005398   -17939.74347976
  entropy T*S    EENTRO =        -0.00069548
  eigenvalues    EBANDS =     -1410.99430149
  atomic energy  EATOM  =     18320.98302006
  ---------------------------------------------------
  free energy    TOTEN  =        -8.38333867 eV

  energy without entropy =       -8.38264320  energy(sigma->0) =       -8.38310685


--------------------------------------------------------------------------------------------------------




----------------------------------------- Iteration    1(   3)  ---------------------------------------


    POTLOK:  cpu time    0.06: real time    0.06
    SETDIJ:  cpu time    1.99: real time    1.99
 
    SUBROT:  cpu time    0.81: real time    0.81
    SUBROT:  cpu time    0.38: real time    0.38
    SUBROT:  cpu time    0.38: real time    0.38
    SUBROT:  cpu time    0.38: real time    0.38
    --------------------------------------------
    SUBRT+:  cpu time    1.94: real time    1.95

 Broyden mixing:
  rms(total) = 0.28097E-01    rms(broyden)= 0.28085E-01
  rms(prec ) = 0.52383E-01
  weight for this iteration     100.00

 eigenvalues of (default mixing * dielectric matrix)
  average eigenvalue GAMMA=   1.7746
  1.0117  2.4995  1.8126
 
    TRIAL :  cpu time  255.48: real time  255.25
    CORREC:  cpu time    0.00: real time    0.00
    CHARGE:  cpu time    0.08: real time    0.08
    --------------------------------------------
      LOOP:  cpu time  257.62: real time  257.41

 eigenvalue-minimisations  :     0
 total energy-change (2. order) :-0.6780910E+01  (-0.2037332E+03)
 number of electron     112.0001511 magnetization 
 augmentation part       39.6845153 magnetization 

 Free energy of the ion-electron system (eV)
  ---------------------------------------------------
  alpha Z        PSCENC =       339.31929130
  Ewald energy   TEWEN  =     -9065.44803161
  -1/2 Hartree   DENC   =     -7477.06770859
  -exchange  EXHF       =       325.00076670
  -V(xc)+E(xc)   XCENC  =       357.40107586
  PAW double counting   =     15150.20046233   -15579.65656631
  entropy T*S    EENTRO =         0.00025518
  eigenvalues    EBANDS =     -2385.89586300
  atomic energy  EATOM  =     18320.98302006
  ---------------------------------------------------
  free energy    TOTEN  =       -15.16424874 eV

  energy without entropy =      -15.16450392  energy(sigma->0) =      -15.16433380


--------------------------------------------------------------------------------------------------------




----------------------------------------- Iteration    1(   4)  ---------------------------------------


    POTLOK:  cpu time    0.15: real time    0.15
    SETDIJ:  cpu time    2.03: real time    2.03
 
    SUBROT:  cpu time    1.25: real time    1.24
    SUBROT:  cpu time    0.61: real time    0.61
    SUBROT:  cpu time    0.57: real time    0.57
    SUBROT:  cpu time    0.61: real time    0.61
    SUBROT:  cpu time    0.66: real time    0.66
    --------------------------------------------
    SUBRT+:  cpu time    3.69: real time    3.71

 Broyden mixing:
  rms(total) = 0.12087E+00    rms(broyden)= 0.12069E+00
  rms(prec ) = 0.21240E+00
  weight for this iteration     100.00

 eigenvalues of (default mixing * dielectric matrix)
  average eigenvalue GAMMA=   1.1802
  2.5256  1.2012  0.6218  0.3722
 
    TRIAL :  cpu time  261.37: real time  261.15
    CORREC:  cpu time    0.00: real time    0.00
    CHARGE:  cpu time    0.07: real time    0.07
    --------------------------------------------
      LOOP:  cpu time  263.63: real time  263.42

 eigenvalue-minimisations  :     0
 total energy-change (2. order) :-0.7483839E+01  (-0.1073884E+03)
 number of electron     112.0001430 magnetization 
 augmentation part       37.2428568 magnetization 

 Free energy of the ion-electron system (eV)
  ---------------------------------------------------
  alpha Z        PSCENC =       339.31929130
  Ewald energy   TEWEN  =     -9065.44803161
  -1/2 Hartree   DENC   =     -8542.43690582
  -exchange  EXHF       =       343.00471011
  -V(xc)+E(xc)   XCENC  =       381.65852793
  PAW double counting   =     17632.22535989   -18212.90258414
  entropy T*S    EENTRO =         0.00035385
  eigenvalues    EBANDS =     -1219.05173049
  atomic energy  EATOM  =     18320.98302006
  ---------------------------------------------------
  free energy    TOTEN  =       -22.64808758 eV

  energy without entropy =      -22.64844144  energy(sigma->0) =      -22.64820553


--------------------------------------------------------------------------------------------------------




----------------------------------------- Iteration    1(   5)  ---------------------------------------


    POTLOK:  cpu time    0.09: real time    0.09
    SETDIJ:  cpu time    2.02: real time    2.02
 
    SUBROT:  cpu time    1.41: real time    1.41
    SUBROT:  cpu time    0.67: real time    0.67
    SUBROT:  cpu time    0.67: real time    0.67
    SUBROT:  cpu time    0.70: real time    0.70
    --------------------------------------------
    SUBRT+:  cpu time    3.45: real time    3.45

 Broyden mixing:
  rms(total) = 0.47313E-01    rms(broyden)= 0.47302E-01
  rms(prec ) = 0.95592E-01
  weight for this iteration     100.00

 eigenvalues of (default mixing * dielectric matrix)
  average eigenvalue GAMMA=   1.6882
  2.4561  0.9361  1.6725
 
    TRIAL :  cpu time  263.19: real time  262.95
    CORREC:  cpu time    0.00: real time    0.00
    CHARGE:  cpu time    0.09: real time    0.09
    --------------------------------------------
      LOOP:  cpu time  265.39: real time  265.15

 eigenvalue-minimisations  :     0
 total energy-change (2. order) :-0.3815914E+02  (-0.1506182E+02)
 number of electron     112.0001430 magnetization 
 augmentation part       37.2443644 magnetization 

 Free energy of the ion-electron system (eV)
  ---------------------------------------------------
  alpha Z        PSCENC =       339.31929130
  Ewald energy   TEWEN  =     -9065.44803161
  -1/2 Hartree   DENC   =     -8007.18575719
  -exchange  EXHF       =       336.38398658
  -V(xc)+E(xc)   XCENC  =       368.39190597
  PAW double counting   =     15868.95115814   -16338.32632524
  entropy T*S    EENTRO =         0.00061452
  eigenvalues    EBANDS =     -1883.87682908
  atomic energy  EATOM  =     18320.98302006
  ---------------------------------------------------
  free energy    TOTEN  =       -60.80722721 eV

  energy without entropy =      -60.80784173  energy(sigma->0) =      -60.80743205


--------------------------------------------------------------------------------------------------------




----------------------------------------- Iteration    1(   6)  ---------------------------------------


    POTLOK:  cpu time    0.11: real time    0.11
    SETDIJ:  cpu time    2.00: real time    2.00
 
    SUBROT:  cpu time    1.54: real time    1.54
    SUBROT:  cpu time    0.78: real time    0.78
    SUBROT:  cpu time    0.77: real time    0.77
    SUBROT:  cpu time    0.80: real time    0.80
    --------------------------------------------
    SUBRT+:  cpu time    3.89: real time    3.91

 Broyden mixing:
  rms(total) = 0.27491E-02    rms(broyden)= 0.27485E-02
  rms(prec ) = 0.45658E-02
  weight for this iteration     100.00

 eigenvalues of (default mixing * dielectric matrix)
  average eigenvalue GAMMA=   1.8280
  1.0164  2.5258  1.9418
 
    TRIAL :  cpu time  264.57: real time  264.34
    CORREC:  cpu time    0.00: real time    0.00
    CHARGE:  cpu time    0.09: real time    0.09
    --------------------------------------------
      LOOP:  cpu time  266.78: real time  266.56

 eigenvalue-minimisations  :     0
 total energy-change (2. order) :-0.5113978E+01  (-0.8202054E+01)
 number of electron     112.0001461 magnetization 
 augmentation part       38.2294853 magnetization 

 Free energy of the ion-electron system (eV)
  ---------------------------------------------------
  alpha Z        PSCENC =       339.31929130
  Ewald energy   TEWEN  =     -9065.44803161
  -1/2 Hartree   DENC   =     -7999.86935988
  -exchange  EXHF       =       337.13516669
  -V(xc)+E(xc)   XCENC  =       368.77057549
  PAW double counting   =     15769.94384487   -16238.95754006
  entropy T*S    EENTRO =         0.00068887
  eigenvalues    EBANDS =     -1897.79878673
  atomic energy  EATOM  =     18320.98302006
  ---------------------------------------------------
  free energy    TOTEN  =       -65.92120534 eV

  energy without entropy =      -65.92189421  energy(sigma->0) =      -65.92143497


--------------------------------------------------------------------------------------------------------




----------------------------------------- Iteration    1(   7)  ---------------------------------------


    POTLOK:  cpu time    0.10: real time    0.10
    SETDIJ:  cpu time    2.02: real time    2.02
 
    SUBROT:  cpu time    0.79: real time    0.79
    SUBROT:  cpu time    0.38: real time    0.38
    SUBROT:  cpu time    0.38: real time    0.38
    SUBROT:  cpu time    0.38: real time    0.38
    --------------------------------------------
    SUBRT+:  cpu time    1.93: real time    1.94

 Broyden mixing:
  rms(total) = 0.13370E-01    rms(broyden)= 0.13366E-01
  rms(prec ) = 0.23607E-01
  weight for this iteration     100.00

 eigenvalues of (default mixing * dielectric matrix)
  average eigenvalue GAMMA=   1.5794
  2.5005  1.3511  0.8865
 
    TRIAL :  cpu time  265.79: real time  265.56
    CORREC:  cpu time    0.00: real time    0.00
    CHARGE:  cpu time    0.06: real time    0.06
    --------------------------------------------
      LOOP:  cpu time  267.97: real time  267.74

 eigenvalue-minimisations  :     0
 total energy-change (2. order) :-0.1543431E+01  (-0.4152193E+01)
 number of electron     112.0001443 magnetization 
 augmentation part       37.7053046 magnetization 

 Free energy of the ion-electron system (eV)
  ---------------------------------------------------
  alpha Z        PSCENC =       339.31929130
  Ewald energy   TEWEN  =     -9065.44803161
  -1/2 Hartree   DENC   =     -8242.82288673
  -exchange  EXHF       =       341.62520771
  -V(xc)+E(xc)   XCENC  =       374.56669886
  PAW double counting   =     16208.20183372   -16711.65110500
  entropy T*S    EENTRO =         0.00044656
  eigenvalues    EBANDS =     -1632.23935311
  atomic energy  EATOM  =     18320.98302006
  ---------------------------------------------------
  free energy    TOTEN  =       -67.46463594 eV

  energy without entropy =      -67.46508250  energy(sigma->0) =      -67.46478479


--------------------------------------------------------------------------------------------------------




----------------------------------------- Iteration    1(   8)  ---------------------------------------


    POTLOK:  cpu time    0.11: real time    0.11
    SETDIJ:  cpu time    2.03: real time    2.03
 
    SUBROT:  cpu time    1.43: real time    1.43
    SUBROT:  cpu time    0.62: real time    0.62
    SUBROT:  cpu time    0.78: real time    0.78
    SUBROT:  cpu time    0.88: real time    0.88
    --------------------------------------------
    SUBRT+:  cpu time    3.72: real time    3.73

 Broyden mixing:
  rms(total) = 0.84664E-02    rms(broyden)= 0.84639E-02
  rms(prec ) = 0.14160E-01
  weight for this iteration     100.00

 eigenvalues of (default mixing * dielectric matrix)
  average eigenvalue GAMMA=   1.6676
  2.4584  0.9469  1.5976
 
    TRIAL :  cpu time  266.46: real time  266.22
    CORREC:  cpu time    0.00: real time    0.00
    CHARGE:  cpu time    0.09: real time    0.09
    --------------------------------------------
      LOOP:  cpu time  268.70: real time  268.47

 eigenvalue-minimisations  :     0
 total energy-change (2. order) :-0.1618348E+01  (-0.7733036E+00)
 number of electron     112.0001444 magnetization 
 augmentation part       37.7246666 magnetization 

 Free energy of the ion-electron system (eV)
  ---------------------------------------------------
  alpha Z        PSCENC =       339.31929130
  Ewald energy   TEWEN  =     -9065.44803161
  -1/2 Hartree   DENC   =     -8115.74638044
  -exchange  EXHF       =       339.51999218
  -V(xc)+E(xc)   XCENC  =       371.37786771
  PAW double counting   =     15915.99950865   -16397.34062960
  entropy T*S    EENTRO =         0.00073737
  eigenvalues    EBANDS =     -1777.74806885
  atomic energy  EATOM  =     18320.98302006
  ---------------------------------------------------
  free energy    TOTEN  =       -69.08298403 eV

  energy without entropy =      -69.08372140  energy(sigma->0) =      -69.08322982


--------------------------------------------------------------------------------------------------------




----------------------------------------- Iteration    1(   9)  ---------------------------------------


    POTLOK:  cpu time    0.06: real time    0.06
    SETDIJ:  cpu time    1.97: real time    1.97
 
    SUBROT:  cpu time    2.06: real time    2.06
    SUBROT:  cpu time    0.81: real time    0.81
    SUBROT:  cpu time    0.81: real time    0.81
    SUBROT:  cpu time    0.79: real time    0.79
    --------------------------------------------
    SUBRT+:  cpu time    4.48: real time    4.50

 Broyden mixing:
  rms(total) = 0.51382E-03    rms(broyden)= 0.51320E-03
  rms(prec ) = 0.82659E-03
  weight for this iteration     100.00

 eigenvalues of (default mixing * dielectric matrix)
  average eigenvalue GAMMA=   1.7086
  2.5282  1.0030  1.5946
 
    TRIAL :  cpu time  258.23: real time  258.01
    CORREC:  cpu time    0.00: real time    0.00
    CHARGE:  cpu time    0.09: real time    0.09
    --------------------------------------------
      LOOP:  cpu time  260.36: real time  260.14

 eigenvalue-minimisations  :     0
 total energy-change (2. order) :-0.3114532E+00  (-0.3876575E+00)
 number of electron     112.0001450 magnetization 
 augmentation part       37.9064615 magnetization 

 Free energy of the ion-electron system (eV)
  ---------------------------------------------------
  alpha Z        PSCENC =       339.31929130
  Ewald energy   TEWEN  =     -9065.44803161
  -1/2 Hartree   DENC   =     -8123.54568625
  -exchange  EXHF       =       339.59786309
  -V(xc)+E(xc)   XCENC  =       371.44414630
  PAW double counting   =     15912.55749518   -16393.79086081
  entropy T*S    EENTRO =         0.00087523
  eigenvalues    EBANDS =     -1770.51241190
  atomic energy  EATOM  =     18320.98302006
  ---------------------------------------------------
  free energy    TOTEN  =       -69.39443727 eV

  energy without entropy =      -69.39531250  energy(sigma->0) =      -69.39472901


--------------------------------------------------------------------------------------------------------




----------------------------------------- Iteration    1(  10)  ---------------------------------------


    POTLOK:  cpu time    0.05: real time    0.05
    SETDIJ:  cpu time    2.04: real time    2.03
 
    SUBROT:  cpu time    1.57: real time    1.57
    SUBROT:  cpu time    0.73: real time    0.73
    SUBROT:  cpu time    0.73: real time    0.73
    SUBROT:  cpu time    0.63: real time    0.63
    --------------------------------------------
    SUBRT+:  cpu time    3.67: real time    3.67

 Broyden mixing:
  rms(total) = 0.22981E-02    rms(broyden)= 0.22976E-02
  rms(prec ) = 0.38627E-02
  weight for this iteration     100.00

 eigenvalues of (default mixing * dielectric matrix)
  average eigenvalue GAMMA=   1.6860
  2.4749  0.9895  1.5936
 
    TRIAL :  cpu time  263.49: real time  263.26
    CORREC:  cpu time    0.00: real time    0.00
    CHARGE:  cpu time    0.09: real time    0.09
    --------------------------------------------
      LOOP:  cpu time  265.67: real time  265.44

 eigenvalue-minimisations  :     0
 total energy-change (2. order) :-0.1040375E+00  (-0.1528678E+00)
 number of electron     112.0001447 magnetization 
 augmentation part       37.8190663 magnetization 

 Free energy of the ion-electron system (eV)
  ---------------------------------------------------
  alpha Z        PSCENC =       339.31929130
  Ewald energy   TEWEN  =     -9065.44803161
  -1/2 Hartree   DENC   =     -8171.08166954
  -exchange  EXHF       =       340.40513318
  -V(xc)+E(xc)   XCENC  =       372.54503928
  PAW double counting   =     15994.60771757   -16482.58227056
  entropy T*S    EENTRO =         0.00072277
  eigenvalues    EBANDS =     -1718.24757970
  atomic energy  EATOM  =     18320.98302006
  ---------------------------------------------------
  free energy    TOTEN  =       -69.49847478 eV

  energy without entropy =      -69.49919755  energy(sigma->0) =      -69.49871570


--------------------------------------------------------------------------------------------------------




----------------------------------------- Iteration    1(  11)  ---------------------------------------


    POTLOK:  cpu time    0.13: real time    0.13
    SETDIJ:  cpu time    2.03: real time    2.02
 
    SUBROT:  cpu time    0.83: real time    0.83
    SUBROT:  cpu time    0.40: real time    0.40
    SUBROT:  cpu time    0.39: real time    0.39
    SUBROT:  cpu time    0.40: real time    0.40
    --------------------------------------------
    SUBRT+:  cpu time    2.03: real time    2.04

 Broyden mixing:
  rms(total) = 0.78370E-03    rms(broyden)= 0.78345E-03
  rms(prec ) = 0.15683E-02
  weight for this iteration     100.00

 eigenvalues of (default mixing * dielectric matrix)
  average eigenvalue GAMMA=   1.6640
  2.4957  0.9845  1.5118
 
    TRIAL :  cpu time  256.08: real time  255.86
    CORREC:  cpu time    0.00: real time    0.00
    CHARGE:  cpu time    0.09: real time    0.09
    --------------------------------------------
      LOOP:  cpu time  258.33: real time  258.12

 eigenvalue-minimisations  :     0
 total energy-change (2. order) :-0.6987513E-01  (-0.3691930E-01)
 number of electron     112.0001446 magnetization 
 augmentation part       37.7862543 magnetization 

 Free energy of the ion-electron system (eV)
  ---------------------------------------------------
  alpha Z        PSCENC =       339.31929130
  Ewald energy   TEWEN  =     -9065.44803161
  -1/2 Hartree   DENC   =     -8149.65481923
  -exchange  EXHF       =       340.07621718
  -V(xc)+E(xc)   XCENC  =       372.07044938
  PAW double counting   =     15942.41038233   -16427.33166464
  entropy T*S    EENTRO =         0.00060576
  eigenvalues    EBANDS =     -1741.99391746
  atomic energy  EATOM  =     18320.98302006
  ---------------------------------------------------
  free energy    TOTEN  =       -69.56834990 eV

  energy without entropy =      -69.56895566  energy(sigma->0) =      -69.56855182


--------------------------------------------------------------------------------------------------------




----------------------------------------- Iteration    1(  12)  ---------------------------------------


    POTLOK:  cpu time    0.16: real time    0.16
    SETDIJ:  cpu time    1.89: real time    1.89
 
    SUBROT:  cpu time    0.84: real time    0.84
    SUBROT:  cpu time    0.40: real time    0.40
    SUBROT:  cpu time    0.40: real time    0.40
    SUBROT:  cpu time    0.40: real time    0.40
    --------------------------------------------
    SUBRT+:  cpu time    2.05: real time    2.05

 Broyden mixing:
  rms(total) = 0.20825E-03    rms(broyden)= 0.20816E-03
  rms(prec ) = 0.45556E-03
  weight for this iteration     100.00

 eigenvalues of (default mixing * dielectric matrix)
  average eigenvalue GAMMA=   1.6554
  2.5057  1.0002  1.4605
 
    TRIAL :  cpu time  262.04: real time  261.81
    CORREC:  cpu time    0.00: real time    0.00
    CHARGE:  cpu time    0.11: real time    0.11
    --------------------------------------------
      LOOP:  cpu time  264.20: real time  263.97

 eigenvalue-minimisations  :     0
 total energy-change (2. order) :-0.1233929E-01  (-0.2293045E-01)
 number of electron     112.0001448 magnetization 
 augmentation part       37.8266755 magnetization 

 Free energy of the ion-electron system (eV)
  ---------------------------------------------------
  alpha Z        PSCENC =       339.31929130
  Ewald energy   TEWEN  =     -9065.44803161
  -1/2 Hartree   DENC   =     -8141.27658731
  -exchange  EXHF       =       339.96023627
  -V(xc)+E(xc)   XCENC  =       371.89546045
  PAW double counting   =     15920.53345572   -16404.36825666
  entropy T*S    EENTRO =         0.00055370
  eigenvalues    EBANDS =     -1751.17988319
  atomic energy  EATOM  =     18320.98302006
  ---------------------------------------------------
  free energy    TOTEN  =       -69.58068920 eV

  energy without entropy =      -69.58124290  energy(sigma->0) =      -69.58087377


--------------------------------------------------------------------------------------------------------




----------------------------------------- Iteration    1(  13)  ---------------------------------------


    POTLOK:  cpu time    0.13: real time    0.13
    SETDIJ:  cpu time    1.98: real time    1.98
 
    SUBROT:  cpu time    0.84: real time    0.84
    SUBROT:  cpu time    0.40: real time    0.40
    SUBROT:  cpu time    0.41: real time    0.41
    SUBROT:  cpu time    0.40: real time    0.40
    --------------------------------------------
    SUBRT+:  cpu time    2.05: real time    2.07

 Broyden mixing:
  rms(total) = 0.55446E-03    rms(broyden)= 0.55434E-03
  rms(prec ) = 0.94445E-03
  weight for this iteration     100.00

 eigenvalues of (default mixing * dielectric matrix)
  average eigenvalue GAMMA=   1.6951
  2.4801  0.9970  1.6083
 
    TRIAL :  cpu time  258.72: real time  258.51
    CORREC:  cpu time    0.00: real time    0.00
    CHARGE:  cpu time    0.09: real time    0.09
    --------------------------------------------
      LOOP:  cpu time  260.92: real time  260.71

 eigenvalue-minimisations  :     0
 total energy-change (2. order) :-0.9695887E-02  (-0.5131456E-02)
 number of electron     112.0001448 magnetization 
 augmentation part       37.8305610 magnetization 

 Free energy of the ion-electron system (eV)
  ---------------------------------------------------
  alpha Z        PSCENC =       339.31929130
  Ewald energy   TEWEN  =     -9065.44803161
  -1/2 Hartree   DENC   =     -8151.19715239
  -exchange  EXHF       =       340.13309333
  -V(xc)+E(xc)   XCENC  =       372.13005254
  PAW double counting   =     15936.76362073   -16422.09616664
  entropy T*S    EENTRO =         0.00054195
  eigenvalues    EBANDS =     -1740.17866611
  atomic energy  EATOM  =     18320.98302006
  ---------------------------------------------------
  free energy    TOTEN  =       -69.59038509 eV

  energy without entropy =      -69.59092704  energy(sigma->0) =      -69.59056574


--------------------------------------------------------------------------------------------------------




----------------------------------------- Iteration    1(  14)  ---------------------------------------


    POTLOK:  cpu time    0.13: real time    0.13
    SETDIJ:  cpu time    2.03: real time    2.03
 
    SUBROT:  cpu time    0.83: real time    0.84
    SUBROT:  cpu time    0.41: real time    0.41
    SUBROT:  cpu time    0.41: real time    0.41
    SUBROT:  cpu time    0.41: real time    0.41
    --------------------------------------------
    SUBRT+:  cpu time    2.07: real time    2.08

 Broyden mixing:
  rms(total) = 0.68430E-04    rms(broyden)= 0.68416E-04
  rms(prec ) = 0.14108E-03
  weight for this iteration     100.00

 eigenvalues of (default mixing * dielectric matrix)
  average eigenvalue GAMMA=   1.6830
  2.5138  0.9919  1.5433
 
    TRIAL :  cpu time  255.38: real time  255.16
    CORREC:  cpu time    0.00: real time    0.00
    CHARGE:  cpu time    0.11: real time    0.11
    --------------------------------------------
      LOOP:  cpu time  257.65: real time  257.43

 eigenvalue-minimisations  :     0
 total energy-change (2. order) :-0.2462890E-02  (-0.3794843E-02)
 number of electron     112.0001447 magnetization 
 augmentation part       37.8129636 magnetization 

 Free energy of the ion-electron system (eV)
  ---------------------------------------------------
  alpha Z        PSCENC =       339.31929130
  Ewald energy   TEWEN  =     -9065.44803161
  -1/2 Hartree   DENC   =     -8151.72431503
  -exchange  EXHF       =       340.13102962
  -V(xc)+E(xc)   XCENC  =       372.13933537
  PAW double counting   =     15934.68805991   -16420.18452619
  entropy T*S    EENTRO =         0.00055960
  eigenvalues    EBANDS =     -1739.49725335
  atomic energy  EATOM  =     18320.98302006
  ---------------------------------------------------
  free energy    TOTEN  =       -69.59284798 eV

  energy without entropy =      -69.59340757  energy(sigma->0) =      -69.59303451


--------------------------------------------------------------------------------------------------------




----------------------------------------- Iteration    1(  15)  ---------------------------------------


    POTLOK:  cpu time    0.11: real time    0.11
    SETDIJ:  cpu time    2.04: real time    2.03
 
    SUBROT:  cpu time    1.41: real time    1.41
    SUBROT:  cpu time    0.67: real time    0.67
    SUBROT:  cpu time    0.65: real time    0.65
    SUBROT:  cpu time    0.78: real time    0.78
    --------------------------------------------
    SUBRT+:  cpu time    3.52: real time    3.53

 Broyden mixing:
  rms(total) = 0.19304E-03    rms(broyden)= 0.19298E-03
  rms(prec ) = 0.33007E-03
  weight for this iteration     100.00

 eigenvalues of (default mixing * dielectric matrix)
  average eigenvalue GAMMA=   1.6899
  2.4715  0.9902  1.6080
 
    TRIAL :  cpu time  254.26: real time  254.05
    CORREC:  cpu time    0.00: real time    0.00
    CHARGE:  cpu time    0.13: real time    0.13
    --------------------------------------------
      LOOP:  cpu time  256.55: real time  256.33

 eigenvalue-minimisations  :     0
 total energy-change (2. order) :-0.1512010E-02  (-0.1041754E-02)
 number of electron     112.0001447 magnetization 
 augmentation part       37.8173022 magnetization 

 Free energy of the ion-electron system (eV)
  ---------------------------------------------------
  alpha Z        PSCENC =       339.31929130
  Ewald energy   TEWEN  =     -9065.44803161
  -1/2 Hartree   DENC   =     -8146.99811654
  -exchange  EXHF       =       340.04159809
  -V(xc)+E(xc)   XCENC  =       372.02775352
  PAW double counting   =     15922.59660857   -16407.48095428
  entropy T*S    EENTRO =         0.00057267
  eigenvalues    EBANDS =     -1744.63608871
  atomic energy  EATOM  =     18320.98302006
  ---------------------------------------------------
  free energy    TOTEN  =       -69.59435999 eV

  energy without entropy =      -69.59493265  energy(sigma->0) =      -69.59455088


--------------------------------------------------------------------------------------------------------




----------------------------------------- Iteration    1(  16)  ---------------------------------------


    POTLOK:  cpu time    0.20: real time    0.20
    SETDIJ:  cpu time    1.89: real time    1.89
 
    SUBROT:  cpu time    1.79: real time    1.79
    SUBROT:  cpu time    0.71: real time    0.70
    SUBROT:  cpu time    0.75: real time    0.75
    SUBROT:  cpu time    0.73: real time    0.73
    --------------------------------------------
    SUBRT+:  cpu time    3.98: real time    3.99

 Broyden mixing:
  rms(total) = 0.84892E-04    rms(broyden)= 0.84874E-04
  rms(prec ) = 0.14154E-03
  weight for this iteration     100.00

 eigenvalues of (default mixing * dielectric matrix)
  average eigenvalue GAMMA=   1.6832
  2.4868  0.9899  1.5729
 
    TRIAL :  cpu time  259.12: real time  258.89
    CORREC:  cpu time    0.00: real time    0.00
    CHARGE:  cpu time    0.08: real time    0.08
    --------------------------------------------
      LOOP:  cpu time  261.29: real time  261.07

 eigenvalue-minimisations  :     0
 total energy-change (2. order) :-0.5738586E-03  (-0.4109163E-03)
 number of electron     112.0001447 magnetization 
 augmentation part       37.8221257 magnetization 

 Free energy of the ion-electron system (eV)
  ---------------------------------------------------
  alpha Z        PSCENC =       339.31929130
  Ewald energy   TEWEN  =     -9065.44803161
  -1/2 Hartree   DENC   =     -8148.11995311
  -exchange  EXHF       =       340.06023350
  -V(xc)+E(xc)   XCENC  =       372.05503825
  PAW double counting   =     15923.45451866   -16408.52826230
  entropy T*S    EENTRO =         0.00057371
  eigenvalues    EBANDS =     -1743.37136126
  atomic energy  EATOM  =     18320.98302006
  ---------------------------------------------------
  free energy    TOTEN  =       -69.59493384 eV

[...]
     22      -2.2884      2.00000
     23      -1.9503      2.00000
     24      -1.6225      2.00000
     25      -1.2177      2.00000
     26      -1.0048      2.00000
     27      -0.9745      2.00000
     28      -0.7151      2.00000
     29      -0.5498      2.00000
     30      -0.3902      2.00000
     31      -0.2861      2.00000
     32      -0.1944      2.00000
     33      -0.1815      2.00000
     34      -0.1395      2.00000
     35      -0.0164      2.00000
     36       0.0202      2.00000
     37       1.2970      2.00000
     38       1.3095      2.00000
     39       1.3699      2.00000
     40       1.4128      2.00000
     41       1.4498      2.00000
     42       1.4660      2.00000
     43       1.5089      2.00000
     44       1.5513      2.00000
     45       1.7635      2.00000
     46       1.8938      2.00000
     47       1.9821      2.00000
     48       2.1519      2.00000
     49       2.3716      2.00000
     50       2.5758      2.00000
     51       2.7047      2.00000
     52       2.9112      2.00000
     53       3.0113      2.00000
     54       3.2207      2.00000
     55       3.3980      2.00000
     56       3.6543      2.00000
     57       6.3804     -0.00000
     58       6.5264     -0.00000
     59       7.7184      0.00000
     60       7.9033      0.00000
     61       8.3042      0.00000
     62       8.5748      0.00000
     63       9.3220      0.00000
     64       9.8460      0.00000
     65      10.0221      0.00000
     66      10.3548      0.00000
     67      10.5847      0.00000
     68      10.7877      0.00000
     69      10.9707      0.00000
     70      11.2554      0.00000
     71      11.3108      0.00000
     72      11.7060      0.00000
     73      12.2491      0.00000
     74      12.4669      0.00000
     75      13.0976      0.00000
     76      13.4858      0.00000
     77      13.8202      0.00000
     78      14.6861      0.00000
     79      15.0003      0.00000
     80      15.7202      0.00000

 k-point  40 :       0.2500   -0.2500    0.4000
  band No.  band energies     occupation 
      1     -68.6485      2.00000
      2     -68.6451      2.00000
      3     -68.6337      2.00000
      4     -68.6249      2.00000
      5     -68.6176      2.00000
      6     -68.6137      2.00000
      7     -68.6000      2.00000
      8     -68.5961      2.00000
      9     -68.5778      2.00000
     10     -68.5699      2.00000
     11     -68.5609      2.00000
     12     -68.5511      2.00000
     13     -12.2218      2.00000
     14     -11.8210      2.00000
     15     -10.8237      2.00000
     16     -10.6709      2.00000
     17     -10.3509      2.00000
     18     -10.2791      2.00000
     19      -5.4460      2.00000
     20      -5.1169      2.00000
     21      -2.4297      2.00000
     22      -2.1553      2.00000
     23      -2.0185      2.00000
     24      -1.5237      2.00000
     25      -1.3553      2.00000
     26      -1.1665      2.00000
     27      -0.9379      2.00000
     28      -0.8141      2.00000
     29      -0.5842      2.00000
     30      -0.5333      2.00000
     31      -0.2790      2.00000
     32      -0.2384      2.00000
     33      -0.1324      2.00000
     34      -0.0891      2.00000
     35      -0.0224      2.00000
     36       0.0345      2.00000
     37       1.3130      2.00000
     38       1.3455      2.00000
     39       1.3654      2.00000
     40       1.3959      2.00000
     41       1.4538      2.00000
     42       1.4837      2.00000
     43       1.5015      2.00000
     44       1.5675      2.00000
     45       1.8026      2.00000
     46       1.8468      2.00000
     47       1.9617      2.00000
     48       2.1096      2.00000
     49       2.2955      2.00000
     50       2.5291      2.00000
     51       2.6402      2.00000
     52       2.7713      2.00000
     53       2.9258      2.00000
     54       3.1585      2.00000
     55       3.3029      2.00000
     56       3.5733      2.00000
     57       6.5672     -0.00000
     58       6.7224     -0.00000
     59       7.9636      0.00000
     60       8.0029      0.00000
     61       8.7340      0.00000
     62       9.0922      0.00000
     63       9.4585      0.00000
     64       9.8274      0.00000
     65      10.2986      0.00000
     66      10.3647      0.00000
     67      10.7760      0.00000
     68      10.8544      0.00000
     69      11.1056      0.00000
     70      11.2718      0.00000
     71      11.3678      0.00000
     72      11.6221      0.00000
     73      12.0464      0.00000
     74      12.2969      0.00000
     75      12.6456      0.00000
     76      13.1212      0.00000
     77      13.2866      0.00000
     78      14.2436      0.00000
     79      15.6289      0.00000
     80      15.8397      0.00000

 k-point  41 :       0.5000   -0.2500    0.4000
  band No.  band energies     occupation 
      1     -68.6484      2.00000
      2     -68.6450      2.00000
      3     -68.6335      2.00000
      4     -68.6247      2.00000
      5     -68.6176      2.00000
      6     -68.6137      2.00000
      7     -68.5998      2.00000
      8     -68.5960      2.00000
      9     -68.5778      2.00000
     10     -68.5699      2.00000
     11     -68.5609      2.00000
     12     -68.5511      2.00000
     13     -12.0813      2.00000
     14     -11.7780      2.00000
     15     -10.8481      2.00000
     16     -10.7605      2.00000
     17     -10.5335      2.00000
     18     -10.3176      2.00000
     19      -5.4179      2.00000
     20      -4.9398      2.00000
     21      -2.4007      2.00000
     22      -2.1320      2.00000
     23      -1.8632      2.00000
     24      -1.7233      2.00000
     25      -1.4485      2.00000
     26      -1.1251      2.00000
     27      -0.8836      2.00000
     28      -0.6451      2.00000
     29      -0.6016      2.00000
     30      -0.4487      2.00000
     31      -0.2611      2.00000
     32      -0.1849      2.00000
     33      -0.1202      2.00000
     34      -0.0477      2.00000
     35      -0.0224      2.00000
     36       0.0245      2.00000
     37       1.2619      2.00000
     38       1.3169      2.00000
     39       1.4100      2.00000
     40       1.4369      2.00000
     41       1.4851      2.00000
     42       1.4943      2.00000
     43       1.5187      2.00000
     44       1.5770      2.00000
     45       1.7622      2.00000
     46       1.8426      2.00000
     47       2.1197      2.00000
     48       2.1859      2.00000
     49       2.3634      2.00000
     50       2.4586      2.00000
     51       2.4924      2.00000
     52       2.6940      2.00000
     53       2.8242      2.00000
     54       3.0883      2.00000
     55       3.2900      2.00000
     56       3.5228      2.00000
     57       6.5050     -0.00000
     58       6.5850     -0.00000
     59       7.4557      0.00000
     60       7.7183      0.00000
     61       8.5914      0.00000
     62       8.7476      0.00000
     63       9.3034      0.00000
     64       9.5322      0.00000
     65       9.9518      0.00000
     66      10.1828      0.00000
     67      10.6776      0.00000
     68      11.1123      0.00000
     69      11.2508      0.00000
     70      11.5681      0.00000
     71      11.7097      0.00000
     72      11.8945      0.00000
     73      12.2977      0.00000
     74      12.6493      0.00000
     75      13.0111      0.00000
     76      13.2337      0.00000
     77      13.6837      0.00000
     78      14.0638      0.00000
     79      14.3887      0.00000
     80      16.5167      0.00000

 k-point  42 :      -0.2500   -0.2500    0.4000
  band No.  band energies     occupation 
      1     -68.6486      2.00000
      2     -68.6452      2.00000
      3     -68.6334      2.00000
      4     -68.6247      2.00000
      5     -68.6175      2.00000
      6     -68.6138      2.00000
      7     -68.5998      2.00000
      8     -68.5960      2.00000
      9     -68.5778      2.00000
     10     -68.5699      2.00000
     11     -68.5610      2.00000
     12     -68.5512      2.00000
     13     -12.1804      2.00000
     14     -11.7077      2.00000
     15     -10.7174      2.00000
     16     -10.6940      2.00000
     17     -10.5887      2.00000
     18     -10.3948      2.00000
     19      -5.4436      2.00000
     20      -5.0710      2.00000
     21      -2.5088      2.00000
     22      -2.3804      2.00000
     23      -1.9646      2.00000
     24      -1.3671      2.00000
     25      -1.3325      2.00000
     26      -1.0562      2.00000
     27      -0.8333      2.00000
     28      -0.7671      2.00000
     29      -0.4230      2.00000
     30      -0.3362      2.00000
     31      -0.2695      2.00000
     32      -0.2068      2.00000
     33      -0.1444      2.00000
     34      -0.1380      2.00000
     35      -0.0125      2.00000
     36       0.0309      2.00000
     37       1.1749      2.00000
     38       1.3716      2.00000
     39       1.3979      2.00000
     40       1.4521      2.00000
     41       1.4561      2.00000
     42       1.5015      2.00000
     43       1.5183      2.00000
     44       1.5484      2.00000
     45       1.7440      2.00000
     46       1.8210      2.00000
     47       1.9720      2.00000
     48       2.2263      2.00000
     49       2.3984      2.00000
     50       2.6129      2.00000
     51       2.6536      2.00000
     52       2.9150      2.00000
     53       3.0703      2.00000
     54       3.1184      2.00000
     55       3.2850      2.00000
     56       3.5819      2.00000
     57       6.2946     -0.00000
     58       6.3850     -0.00000
     59       7.3600      0.00000
     60       7.5240      0.00000
     61       8.3134      0.00000
     62       8.3394      0.00000
     63       9.1025      0.00000
     64       9.3582      0.00000
     65       9.7153      0.00000
     66       9.9503      0.00000
     67      10.5266      0.00000
     68      10.9890      0.00000
     69      11.4217      0.00000
     70      11.5625      0.00000
     71      12.0249      0.00000
     72      12.2876      0.00000
     73      12.4313      0.00000
     74      12.4728      0.00000
     75      13.0290      0.00000
     76      13.1437      0.00000
     77      14.1353      0.00000
     78      14.4368      0.00000
     79      15.1654      0.00000
     80      15.8700      0.00000


--------------------------------------------------------------------------------------------------------


 soft charge-density along one line, spin component           1
         0         1         2         3         4         5         6         7         8         9
 total charge-density along one line
 
 pseudopotential strength for first ion, spin component:           1
-65.423   0.002   0.006   7.363   0.000  -0.003   0.001   0.007
  0.002 -65.393  -0.005   0.000   7.353   0.002  -0.001  -0.023
  0.006  -0.005 -65.384  -0.003   0.002   7.349  -0.036  -0.001
  7.363   0.000  -0.003   6.111   0.000   0.001   0.002  -0.003
  0.000   7.353   0.002   0.000   6.113  -0.000   0.000   0.007
 -0.003   0.002   7.349   0.001  -0.000   6.114   0.008   0.000
  0.001  -0.001  -0.036   0.002   0.000   0.008  -2.979  -0.003
  0.007  -0.023  -0.001  -0.003   0.007   0.000  -0.003  -2.984
  0.022   0.042   0.009  -0.005  -0.008  -0.003  -0.003   0.008
 -0.001  -0.017   0.007   0.000   0.004  -0.003   0.004   0.007
  0.025  -0.000  -0.034  -0.007  -0.000   0.007  -0.000   0.007
  0.001  -0.001  -0.036   0.002   0.000   0.008  -3.626  -0.003
  0.007  -0.023  -0.001  -0.003   0.007   0.000  -0.003  -3.631
  0.022   0.041   0.009  -0.005  -0.008  -0.002  -0.003   0.008
 -0.001  -0.017   0.007   0.000   0.004  -0.003   0.004   0.007
  0.025  -0.000  -0.034  -0.007  -0.000   0.006  -0.000   0.007
  0.007  -0.005   0.004  -0.001   0.001  -0.001  -0.002   0.001
  0.015  -0.010   0.009  -0.002   0.001  -0.002  -0.003   0.001
 total augmentation occupancy for first ion, spin component:           1
  2.000  -0.000   0.000  -0.003  -0.000   0.000   0.007  -0.005   0.001  -0.001  -0.005  -0.007   0.005  -0.001   0.001   0.004
 -0.000   2.000  -0.000  -0.000  -0.003   0.000  -0.001   0.005   0.004   0.001   0.000   0.001  -0.005  -0.005  -0.001  -0.000
  0.000  -0.000   2.000   0.000   0.000  -0.003  -0.000  -0.000  -0.001  -0.005  -0.004   0.001   0.000   0.001   0.005   0.005
 -0.003  -0.000   0.000   0.095   0.006  -0.005  -0.334   0.232  -0.075   0.011   0.017   0.281  -0.197   0.059  -0.007  -0.011
 -0.000  -0.003   0.000   0.006   0.102   0.001   0.020  -0.050  -0.444   0.014   0.011  -0.013   0.039   0.376  -0.009  -0.009
  0.000   0.000  -0.003  -0.005   0.001   0.099   0.098  -0.003  -0.014   0.236   0.354  -0.077   0.001   0.011  -0.202  -0.297
  0.007  -0.001  -0.000  -0.334   0.020   0.098   4.007  -0.793   0.096   0.216   0.147  -1.736   0.744  -0.089  -0.182  -0.141
 -0.005   0.005  -0.000   0.232  -0.050  -0.003  -0.793   3.517   0.300   0.160   0.297   0.744  -1.275  -0.223  -0.116  -0.206
  0.001   0.004  -0.001  -0.075  -0.444  -0.014   0.096   0.300   4.686  -0.038  -0.117  -0.089  -0.224  -2.395   0.031   0.087
 -0.001   0.001  -0.005   0.011   0.014   0.236   0.216   0.160  -0.038   3.632   0.796  -0.182  -0.116   0.031  -1.351  -0.758
 -0.005   0.000  -0.004   0.017   0.011   0.354   0.147   0.297  -0.117   0.796   3.994  -0.142  -0.205   0.087  -0.759  -1.741
 -0.007   0.001   0.001   0.281  -0.013  -0.077  -1.736   0.744  -0.089  -0.182  -0.142   1.442  -0.696   0.082   0.154   0.136
  0.005  -0.005   0.000  -0.197   0.039   0.001   0.744  -1.275  -0.224  -0.116  -0.205  -0.696   1.009   0.162   0.080   0.132
 -0.001  -0.005   0.001   0.059   0.376   0.011  -0.089  -0.223  -2.395   0.031   0.087   0.082   0.162   2.080  -0.025  -0.063
  0.001  -0.001   0.005  -0.007  -0.009  -0.202  -0.182  -0.116   0.031  -1.351  -0.759   0.154   0.080  -0.025   1.057   0.721
  0.004  -0.000   0.005  -0.011  -0.009  -0.297  -0.141  -0.206   0.087  -0.758  -1.741   0.136   0.132  -0.063   0.721   1.461
 -0.024   0.016  -0.013  -0.020   0.011  -0.006   0.080  -0.106  -0.022  -0.009   0.025  -0.063   0.092   0.033   0.008   0.006
  0.011  -0.007   0.006   0.001  -0.000  -0.000  -0.009   0.004  -0.004   0.005  -0.019   0.004  -0.006  -0.002  -0.001   0.003


------------------------ aborting loop because EDIFF is reached ----------------------------------------


    FORLOC:  cpu time    0.01: real time    0.01
    FORHF :  cpu time  545.65: real time  545.15
    FORNL :  cpu time    0.39: real time    0.39
    FORCOR:  cpu time    2.02: real time    2.02

 VOLUME and BASIS-vectors are now :
 -----------------------------------------------------------------------------
  energy-cutoff  :      400.00
  volume of cell :      221.90
      direct lattice vectors                 reciprocal lattice vectors
     3.224796000 -5.643830000  0.031572000     0.154525165 -0.088592321  0.053460880
     3.224796000  5.643830000  0.031572000     0.154525165  0.088592321  0.053460880
    -2.101946000  0.000000000  6.075537000    -0.001606004  0.000000000  0.164038877

  length of vectors
     6.500240234  6.500240234  6.428866683     0.185969598  0.185969598  0.164046738


 FORCES acting on ions:
    Electron-Ion                     Ewald-Force                    Non-Local-Force
 -----------------------------------------------------------------------------------------------
   -.140E+02 -.963E+02 0.114E+02   0.128E+02 0.939E+02 -.983E+01   0.102E+01 0.209E+01 -.138E+01
   -.155E+02 0.981E+02 0.110E+02   0.143E+02 -.957E+02 -.938E+01   0.103E+01 -.211E+01 -.141E+01
   0.253E+02 -.171E+02 0.432E+01   -.220E+02 0.169E+02 -.305E+01   -.284E+01 0.165E+00 -.111E+01
   0.243E+02 0.147E+02 0.547E+01   -.211E+02 -.146E+02 -.416E+01   -.280E+01 -.653E-01 -.116E+01
   -.106E+02 -.317E+02 -.113E+02   0.994E+01 0.303E+02 0.101E+02   0.649E+00 0.138E+01 0.115E+01
   -.110E+02 0.315E+02 -.111E+02   0.103E+02 -.301E+02 0.100E+02   0.683E+00 -.134E+01 0.113E+01
   -.135E+03 -.101E+02 -.492E+02   0.132E+03 0.101E+02 0.483E+02   0.280E+01 -.160E-01 0.728E+00
   0.703E+02 -.126E+03 0.962E+02   -.686E+02 0.123E+03 -.942E+02   -.156E+01 0.230E+01 -.187E+01
   0.683E+02 -.131E+03 -.500E+02   -.668E+02 0.129E+03 0.490E+02   -.137E+01 0.208E+01 0.863E+00
   0.702E+02 0.126E+03 0.962E+02   -.684E+02 -.123E+03 -.941E+02   -.155E+01 -.227E+01 -.187E+01
   -.135E+03 0.983E+01 -.491E+02   0.132E+03 -.987E+01 0.483E+02   0.278E+01 0.369E-01 0.729E+00
   0.665E+02 0.133E+03 -.498E+02   -.650E+02 -.130E+03 0.489E+02   -.135E+01 -.218E+01 0.880E+00
 -----------------------------------------------------------------------------------------------
   0.277E+01 -.797E-01 0.377E+01   0.000E+00 0.000E+00 -.924E-13   -.251E+01 0.794E-01 -.333E+01
 
 
 POSITION                                       TOTAL-FORCE (eV/Angst)
 -----------------------------------------------------------------------------------
      2.13385     -2.80652      0.74958        -0.004378     -0.002110     -0.000573
      1.08288      2.80652      3.78735         0.012958      0.000621      0.006273
      5.40423     -0.97432      0.77721         0.001807     -0.000600      0.000888
      4.35326      0.97432      3.81498         0.014061      0.023005     -0.007794
      1.02081     -0.97328      3.66185        -0.020565      0.052532      0.015973
      2.07178      0.97328      0.62409         0.001617     -0.007944      0.004388
      2.15090      4.69667      3.05304         0.011279      0.007501     -0.002318
      1.11215     -0.89759      5.98620        -0.000370     -0.003544     -0.001871
      2.14783     -2.74014      3.03890        -0.022238     -0.092688     -0.010964
      2.16313      0.89759      2.94844         0.003104      0.022319     -0.000704
      1.09993     -4.69667      6.09081         0.001777      0.003412     -0.005632
      1.09189      2.74882      6.07662         0.000947     -0.002504      0.002334
 -----------------------------------------------------------------------------------
    total drift:                               -0.058903     -0.001112     -0.054068


--------------------------------------------------------------------------------------------------------



  FREE ENERGIE OF THE ION-ELECTRON SYSTEM (eV)
  ---------------------------------------------------
  free  energy   TOTEN  =       -69.59528166 eV

  energy  without entropy=      -69.59584893  energy(sigma->0) =      -69.59547075
 


--------------------------------------------------------------------------------------------------------


    POTLOK:  cpu time    2.03: real time    2.03


--------------------------------------------------------------------------------------------------------


 writing wavefunctions
     LOOP+:  cpu time 6048.52: real time 6044.98
    4ORBIT:  cpu time    0.00: real time    0.00

 total amount of memory used by VASP on root node   155701. kBytes
========================================================================

   base      :      30000. kBytes
   nonl-proj :      74517. kBytes
   fftplans  :        702. kBytes
   grid      :       2400. kBytes
   one-center:        186. kBytes
   HF        :        194. kBytes
   nonlr-proj:       5126. kBytes
   wavefun   :      42576. kBytes
 
  
  
 General timing and accounting informations for this job:
 ========================================================
  
                  Total CPU time used (sec):     6085.923
                            User time (sec):     6081.508
                          System time (sec):        4.414
                         Elapsed time (sec):     6083.061
  
                   Maximum memory used (kb):      300648.
                   Average memory used (kb):           0.
  
                          Minor page faults:        79387
                          Major page faults:           16
                 Voluntary context switches:         3660
