<?xml version="1.0" encoding="ISO-8859-1"?>
<modeling>
 <generator>
  <i name="program" type="string">vasp </i>
  <i name="version" type="string">5.3.3  </i>
  <i name="subversion" type="string">18Dez12 (build Nov 13 2015 09:58:40) complex                          parallel </i>
  <i name="platform" type="string">LinuxIFC </i>
  <i name="date" type="string">2017 10 18 </i>
  <i name="time" type="string">13:22:28 </i>
 </generator>
 <incar>
  <i type="string" name="SYSTEM"> CGS</i>
  <i type="string" name="PREC">normal</i>
  <i type="string" name="ALGO"> D</i>
  <i type="logical" name="LDIAG"> T  </i>
  <i name="EDIFF">      0.00001000</i>
  <i name="ENCUT">    400.00000000</i>
  <i name="TIME">      0.40000000</i>
  <i type="int" name="ISMEAR">     1</i>
  <i name="SIGMA">      0.10000000</i>
  <i type="logical" name="LHFCALC"> T  </i>
  <i type="string" name="GGA"> PE</i>
  <i name="HFSCREEN">      0.20000000</i>
  <i name="AEXX">      0.25000000</i>
  <i type="string" name="PRECFOCK">fast</i>
 </incar>
 <kpoints>
  <generation param="Gamma">
   <v type="int" name="divisions">       4        4        5 </v>
   <v name="usershift">      0.00000000       0.00000000       0.00000000 </v>
   <v name="genvec1">      0.25000000       0.00000000       0.00000000 </v>
   <v name="genvec2">      0.00000000       0.25000000       0.00000000 </v>
   <v name="genvec3">      0.00000000       0.00000000       0.20000000 </v>
   <v name="shift">      0.00000000       0.00000000       0.00000000 </v>
  </generation>
  <varray name="kpointlist" >
   <v>       0.00000000       0.00000000       0.00000000 </v>
   <v>       0.25000000       0.00000000       0.00000000 </v>
   <v>       0.50000000       0.00000000       0.00000000 </v>
   <v>       0.00000000       0.25000000       0.00000000 </v>
   <v>       0.25000000       0.25000000       0.00000000 </v>
   <v>       0.50000000       0.25000000      -0.00000000 </v>
   <v>      -0.25000000       0.25000000       0.00000000 </v>
   <v>       0.00000000       0.50000000       0.00000000 </v>
   <v>       0.25000000       0.50000000      -0.00000000 </v>
   <v>       0.50000000       0.50000000       0.00000000 </v>
   <v>      -0.00000000      -0.00000000       0.20000000 </v>
   <v>       0.25000000       0.00000000       0.20000000 </v>
   <v>       0.50000000       0.00000000       0.20000000 </v>
   <v>      -0.25000000      -0.00000000       0.20000000 </v>
   <v>       0.00000000       0.25000000       0.20000000 </v>
   <v>       0.25000000       0.25000000       0.20000000 </v>
   <v>       0.50000000       0.25000000       0.20000000 </v>
   <v>      -0.25000000       0.25000000       0.20000000 </v>
   <v>       0.00000000       0.50000000       0.20000000 </v>
   <v>       0.25000000       0.50000000       0.20000000 </v>
   <v>       0.50000000       0.50000000       0.20000000 </v>
   <v>      -0.25000000       0.50000000       0.20000000 </v>
   <v>      -0.00000000      -0.25000000       0.20000000 </v>
   <v>       0.25000000      -0.25000000       0.20000000 </v>
   <v>       0.50000000      -0.25000000       0.20000000 </v>
   <v>      -0.25000000      -0.25000000       0.20000000 </v>
   <v>      -0.00000000      -0.00000000       0.40000000 </v>
   <v>       0.25000000       0.00000000       0.40000000 </v>
   <v>       0.50000000       0.00000000       0.40000000 </v>
   <v>      -0.25000000       0.00000000       0.40000000 </v>
   <v>       0.00000000       0.25000000       0.40000000 </v>
   <v>       0.25000000       0.25000000       0.40000000 </v>
   <v>       0.50000000       0.25000000       0.40000000 </v>
   <v>      -0.25000000       0.25000000       0.40000000 </v>
   <v>       0.00000000       0.50000000       0.40000000 </v>
   <v>       0.25000000       0.50000000       0.40000000 </v>
   <v>       0.50000000       0.50000000       0.40000000 </v>
   <v>      -0.25000000       0.50000000       0.40000000 </v>
   <v>       0.00000000      -0.25000000       0.40000000 </v>
   <v>       0.25000000      -0.25000000       0.40000000 </v>
   <v>       0.50000000      -0.25000000       0.40000000 </v>
   <v>      -0.25000000      -0.25000000       0.40000000 </v>
  </varray>
  <varray name="weights" >
   <v>       0.01250000 </v>
   <v>       0.02500000 </v>
   <v>       0.01250000 </v>
   <v>       0.02500000 </v>
   <v>       0.02500000 </v>
   <v>       0.02500000 </v>
   <v>       0.02500000 </v>
   <v>       0.01250000 </v>
   <v>       0.02500000 </v>
   <v>       0.01250000 </v>
   <v>       0.02500000 </v>
   <v>       0.02500000 </v>
   <v>       0.02500000 </v>
   <v>       0.02500000 </v>
   <v>       0.02500000 </v>
   <v>       0.02500000 </v>
   <v>       0.02500000 </v>
   <v>       0.02500000 </v>
   <v>       0.02500000 </v>
   <v>       0.02500000 </v>
   <v>       0.02500000 </v>
   <v>       0.02500000 </v>
   <v>       0.02500000 </v>
   <v>       0.02500000 </v>
   <v>       0.02500000 </v>
   <v>       0.02500000 </v>
   <v>       0.02500000 </v>
   <v>       0.02500000 </v>
   <v>       0.02500000 </v>
   <v>       0.02500000 </v>
   <v>       0.02500000 </v>
   <v>       0.02500000 </v>
   <v>       0.02500000 </v>
   <v>       0.02500000 </v>
   <v>       0.02500000 </v>
   <v>       0.02500000 </v>
   <v>       0.02500000 </v>
   <v>       0.02500000 </v>
   <v>       0.02500000 </v>
   <v>       0.02500000 </v>
   <v>       0.02500000 </v>
   <v>       0.02500000 </v>
  </varray>
 </kpoints>
 <parameters>
  <separator name="general" >
   <i type="string" name="SYSTEM">CGS</i>
   <i type="logical" name="LCOMPAT"> F  </i>
  </separator>
  <separator name="electronic" >
   <i type="string" name="PREC">normal</i>
   <i name="ENMAX">    400.00000000</i>
   <i name="ENAUG">    758.23300000</i>
   <i name="EDIFF">      0.00001000</i>
   <i type="int" name="IALGO">    53</i>
   <i type="int" name="IWAVPR">    10</i>
   <i type="int" name="NBANDS">    80</i>
   <i name="NELECT">    112.00000000</i>
   <i type="int" name="TURBO">     0</i>
   <i type="int" name="IRESTART">     0</i>
   <i type="int" name="NREBOOT">     0</i>
   <i type="int" name="NMIN">     0</i>
   <i name="EREF">      0.00000000</i>
   <separator name="electronic smearing" >
    <i type="int" name="ISMEAR">     1</i>
    <i name="SIGMA">      0.10000000</i>
    <i name="KSPACING">      0.50000000</i>
    <i type="logical" name="KGAMMA"> T  </i>
   </separator>
   <separator name="electronic projectors" >
    <i type="logical" name="LREAL"> F  </i>
    <v name="ROPT">      0.00000000      0.00000000      0.00000000</v>
    <i type="int" name="LMAXPAW">  -100</i>
    <i type="int" name="LMAXMIX">     2</i>
    <i type="logical" name="NLSPLINE"> F  </i>
   </separator>
   <separator name="electronic startup" >
    <i type="int" name="ISTART">     1</i>
    <i type="int" name="ICHARG">     0</i>
    <i type="int" name="INIWAV">     1</i>
   </separator>
   <separator name="electronic spin" >
    <i type="int" name="ISPIN">     1</i>
    <i type="logical" name="LNONCOLLINEAR"> F  </i>
    <v name="MAGMOM">      1.00000000      1.00000000      1.00000000      1.00000000      1.00000000      1.00000000      1.00000000      1.00000000      1.00000000      1.00000000      1.00000000      1.00000000</v>
    <i name="NUPDOWN">     -1.00000000</i>
    <i type="logical" name="LSORBIT"> F  </i>
    <v name="SAXIS">      0.00000000      0.00000000      1.00000000</v>
    <i type="logical" name="LSPIRAL"> F  </i>
    <v name="QSPIRAL">      0.00000000      0.00000000      0.00000000</v>
    <i type="logical" name="LZEROZ"> F  </i>
   </separator>
   <separator name="electronic exchange-correlation" >
    <i type="logical" name="LASPH"> F  </i>
    <i type="logical" name="LMETAGGA"> F  </i>
   </separator>
   <separator name="electronic convergence" >
    <i type="int" name="NELM">    60</i>
    <i type="int" name="NELMDL">     0</i>
    <i type="int" name="NELMIN">     2</i>
    <i name="ENINI">    400.00000000</i>
    <separator name="electronic convergence detail" >
     <i type="logical" name="LDIAG"> T  </i>
     <i type="logical" name="LSUBROT"> T  </i>
     <i name="WEIMIN">      0.00000000</i>
     <i name="EBREAK">      0.00000003</i>
     <i name="DEPER">      0.30000000</i>
     <i type="int" name="NRMM">     4</i>
     <i name="TIME">      0.40000000</i>
    </separator>
   </separator>
   <separator name="electronic mixer" >
    <i name="AMIX">      0.40000000</i>
    <i name="BMIX">      1.00000000</i>
    <i name="AMIN">      0.10000000</i>
    <i name="AMIX_MAG">      1.60000000</i>
    <i name="BMIX_MAG">      1.00000000</i>
    <separator name="electronic mixer details" >
     <i type="int" name="IMIX">     4</i>
     <i type="int" name="MAXMIX">   -45</i>
     <i name="WC">    100.00000000</i>
     <i type="int" name="INIMIX">     1</i>
     <i type="int" name="MIXPRE">     1</i>
     <i type="int" name="MREMOVE">     5</i>
    </separator>
   </separator>
   <separator name="electronic dipolcorrection" >
    <i type="logical" name="LDIPOL"> F  </i>
    <i type="logical" name="LMONO"> F  </i>
    <i type="int" name="IDIPOL">     0</i>
    <i name="EPSILON">      1.00000000</i>
    <v name="DIPOL">   -100.00000000   -100.00000000   -100.00000000</v>
    <i name="EFIELD">      0.00000000</i>
   </separator>
  </separator>
  <separator name="grids" >
   <i type="int" name="NGX">    32</i>
   <i type="int" name="NGY">    32</i>
   <i type="int" name="NGZ">    32</i>
   <i type="int" name="NGXF">    64</i>
   <i type="int" name="NGYF">    64</i>
   <i type="int" name="NGZF">    64</i>
   <i type="logical" name="ADDGRID"> F  </i>
  </separator>
  <separator name="ionic" >
   <i type="int" name="NSW">     0</i>
   <i type="int" name="IBRION">    -1</i>
   <i type="int" name="ISIF">     0</i>
   <i name="PSTRESS">      0.00000000</i>
   <i name="EDIFFG">      0.00010000</i>
   <i type="int" name="NFREE">     0</i>
   <i name="POTIM">      0.50000000</i>
   <i name="SMASS">     -3.00000000</i>
   <i name="SCALEE">      1.00000000</i>
  </separator>
  <separator name="ionic md" >
   <i name="TEBEG">      0.00010000</i>
   <i name="TEEND">      0.00010000</i>
   <i type="int" name="NBLOCK">     1</i>
   <i type="int" name="KBLOCK">     1</i>
   <i type="int" name="NPACO">   256</i>
   <i name="APACO">     16.00000000</i>
  </separator>
  <separator name="symmetry" >
   <i type="int" name="ISYM">     3</i>
   <i name="SYMPREC">      0.00001000</i>
  </separator>
  <separator name="dos" >
   <i type="logical" name="LORBIT"> F  </i>
   <v name="RWIGS">     -1.00000000     -1.00000000     -1.00000000</v>
   <i type="int" name="NEDOS">   301</i>
   <i name="EMIN">     10.00000000</i>
   <i name="EMAX">    -10.00000000</i>
   <i name="EFERMI">      0.00000000</i>
  </separator>
  <separator name="writing" >
   <i type="int" name="NWRITE">     2</i>
   <i type="logical" name="LWAVE"> T  </i>
   <i type="logical" name="LCHARG"> T  </i>
   <i type="logical" name="LPARD"> F  </i>
   <i type="logical" name="LVTOT"> F  </i>
   <i type="logical" name="LVHAR"> F  </i>
   <i type="logical" name="LELF"> F  </i>
   <i type="logical" name="LOPTICS"> F  </i>
   <v name="STM">      0.00000000      0.00000000      0.00000000      0.00000000      0.00000000      0.00000000      0.00000000</v>
  </separator>
  <separator name="performance" >
   <i type="int" name="NPAR">    16</i>
   <i type="int" name="NSIM">     4</i>
   <i type="int" name="NBLK">    -1</i>
   <i type="logical" name="LPLANE"> T  </i>
   <i type="logical" name="LSCALAPACK"> T  </i>
   <i type="logical" name="LSCAAWARE"> F  </i>
   <i type="logical" name="LSCALU"> F  </i>
   <i type="logical" name="LASYNC"> F  </i>
   <i type="logical" name="LORBITALREAL"> F  </i>
  </separator>
  <separator name="miscellaneous" >
   <i type="int" name="IDIOT">     3</i>
   <i type="logical" name="LMUSIC"> F  </i>
   <v name="POMASS">     63.54600000     72.61000000     32.06600000</v>
   <v name="DARWINR">      0.00000000      0.00000000      0.00000000</v>
   <v name="DARWINV">      1.00000000      1.00000000      1.00000000</v>
   <i type="logical" name="LCORR"> T  </i>
  </separator>
  <i type="logical" name="GGA_COMPAT"> T  </i>
  <i type="logical" name="LBERRY"> F  </i>
  <i type="int" name="ICORELEVEL">     0</i>
  <i type="logical" name="LDAU"> F  </i>
  <i type="int" name="I_CONSTRAINED_M">     0</i>
  <separator name="electronic exchange-correlation" >
   <i type="string" name="GGA">PE</i>
   <i type="int" name="VOSKOWN">     0</i>
   <i type="logical" name="LHFCALC"> T  </i>
   <i type="string" name="PRECFOCK">fast</i>
   <i type="logical" name="LSYMGRAD"> F  </i>
   <i type="logical" name="LHFONE"> F  </i>
   <i type="logical" name="LRHFCALC"> F  </i>
   <i type="logical" name="LTHOMAS"> F  </i>
   <i type="logical" name="LMODELHF"> F  </i>
   <i name="ENCUT4O">     -1.00000000</i>
   <i type="int" name="EXXOEP">     0</i>
   <i type="int" name="FOURORBIT">     0</i>
   <i name="AEXX">      0.25000000</i>
   <i name="HFALPHA">     -1.00000000</i>
   <i name="MCALPHA">      0.00000000</i>
   <i name="ALDAX">      0.75000000</i>
   <i name="AGGAX">      0.75000000</i>
   <i name="ALDAC">      1.00000000</i>
   <i name="AGGAC">      1.00000000</i>
   <i type="int" name="NKREDX">     1</i>
   <i type="int" name="NKREDY">     1</i>
   <i type="int" name="NKREDZ">     1</i>
   <i type="logical" name="SHIFTRED"> F  </i>
   <i type="logical" name="ODDONLY"> F  </i>
   <i type="logical" name="EVENONLY"> F  </i>
   <i type="int" name="LMAXFOCK">     4</i>
   <i type="int" name="NMAXFOCKAE">     1</i>
   <i type="logical" name="LFOCKAEDFT"> F  </i>
   <i name="HFSCREEN">      0.20000000</i>
   <i name="HFSCREENC">      0.20000000</i>
   <i type="int" name="NBANDSGWLOW">     1</i>
  </separator>
  <separator name="vdW DFT" >
   <i type="logical" name="LUSE_VDW"> F  </i>
   <i name="Zab_VDW">     -0.84910000</i>
   <i name="PARAM1">      0.12340000</i>
   <i name="PARAM2">      1.00000000</i>
   <i name="PARAM3">      0.00000000</i>
  </separator>
  <separator name="model GW" >
   <i type="int" name="MODEL_GW">     0</i>
   <i name="MODEL_EPS0">     11.09505304</i>
   <i name="MODEL_ALPHA">      1.00000000</i>
  </separator>
  <separator name="linear response parameters" >
   <i type="logical" name="LEPSILON"> F  </i>
   <i type="logical" name="LRPA"> F  </i>
   <i type="logical" name="LNABLA"> F  </i>
   <i type="logical" name="LVEL"> F  </i>
   <i type="int" name="KINTER">     0</i>
   <i name="CSHIFT">      0.10000000</i>
   <i name="OMEGAMAX">     -1.00000000</i>
   <i name="DEG_THRESHOLD">      0.00200000</i>
  </separator>
  <separator name="orbital magnetization" >
   <i type="logical" name="NUCIND"> F  </i>
   <v name="MAGPOS">      0.00000000      0.00000000      0.00000000</v>
   <i type="logical" name="LNICSALL"> T  </i>
   <i type="logical" name="ORBITALMAG"> F  </i>
   <i type="logical" name="LMAGBLOCH"> F  </i>
   <i type="logical" name="LCHIMAG"> F  </i>
   <i type="logical" name="LGAUGE"> T  </i>
   <i type="int" name="MAGATOM">     0</i>
   <v name="MAGDIPOL">      0.00000000      0.00000000      0.00000000</v>
   <v name="AVECCONST">      0.00000000      0.00000000      0.00000000</v>
  </separator>
  <separator name="response functions" >
   <i type="logical" name="LADDER"> F  </i>
   <i type="logical" name="LFXC"> F  </i>
   <i type="logical" name="LHARTREE"> T  </i>
   <i type="int" name="IBSE">     0</i>
   <i type="logical" name="LTCTE"> F  </i>
   <i type="logical" name="LTETE"> F  </i>
   <i type="logical" name="LTRIPLET"> F  </i>
   <i type="logical" name="LFXCEPS"> F  </i>
   <i type="logical" name="L2ORDER"> F  </i>
   <i type="logical" name="LUSEW"> F  </i>
   <i name="ENCUTGW">     -2.00000000</i>
   <i name="ENCUTGWSOFT">     -2.00000000</i>
   <i name="ENCUTLF">     -1.00000000</i>
   <i type="int" name="LMAXMP2">    -1</i>
   <i name="SCISSOR">      0.00000000</i>
   <i type="int" name="NOMEGA">     0</i>
   <i type="int" name="NOMEGAR">     0</i>
   <i type="int" name="NBANDSGW">    -1</i>
   <i type="int" name="NBANDSO">    -1</i>
   <i type="int" name="NBANDSV">    -1</i>
   <i type="int" name="NELM">     1</i>
   <i type="int" name="DIM">     3</i>
   <i type="int" name="ANTIRES">     0</i>
   <i name="OMEGAMAX">    -30.00000000</i>
   <i name="OMEGATL">   -200.00000000</i>
   <i type="int" name="OMEGAGRID">     0</i>
   <i name="CSHIFT">     -0.10000000</i>
   <i type="logical" name="SELFENERGY"> F  </i>
   <i type="logical" name="LSPECTRAL"> F  </i>
   <i type="logical" name="ODDONLYGW"> F  </i>
   <i type="logical" name="EVENONLYGW"> F  </i>
   <i type="int" name="NKREDLFX">     1</i>
   <i type="int" name="NKREDLFY">     1</i>
   <i type="int" name="NKREDLFZ">     1</i>
   <i type="int" name="MAXMEM">  1800</i>
   <i type="int" name="TELESCOPE">     0</i>
  </separator>
 </parameters>
 <atominfo>
  <atoms>      12 </atoms>
  <types>       3 </types>
  <array name="atoms" >
   <dimension dim="1">ion</dimension>
   <field type="string">element</field>
   <field type="int">atomtype</field>
   <set>
    <rc><c>Cu</c><c>   1</c></rc>
    <rc><c>Cu</c><c>   1</c></rc>
    <rc><c>Cu</c><c>   1</c></rc>
    <rc><c>Cu</c><c>   1</c></rc>
    <rc><c>Ge</c><c>   2</c></rc>
    <rc><c>Ge</c><c>   2</c></rc>
    <rc><c>S </c><c>   3</c></rc>
    <rc><c>S </c><c>   3</c></rc>
    <rc><c>S </c><c>   3</c></rc>
    <rc><c>S </c><c>   3</c></rc>
    <rc><c>S </c><c>   3</c></rc>
    <rc><c>S </c><c>   3</c></rc>
   </set>
  </array>
  <array name="atomtypes" >
   <dimension dim="1">type</dimension>
   <field type="int">atomspertype</field>
   <field type="string">element</field>
   <field>mass</field>
   <field>valence</field>
   <field type="string">pseudopotential</field>
   <set>
    <rc><c>   4</c><c>Cu</c><c>     63.54600000</c><c>     17.00000000</c><c>  PAW_PBE Cu_pv 06Sep2000               </c></rc>
    <rc><c>   2</c><c>Ge</c><c>     72.61000000</c><c>      4.00000000</c><c>  PAW_PBE Ge 05Jan2001                  </c></rc>
    <rc><c>   6</c><c>S </c><c>     32.06600000</c><c>      6.00000000</c><c>  PAW_PBE S 17Jan2003                   </c></rc>
   </set>
  </array>
 </atominfo>
 <structure name="initialpos" >
  <crystal>
   <varray name="basis" >
    <v>       3.22479600      -5.64383000       0.03157200 </v>
    <v>       3.22479600       5.64383000       0.03157200 </v>
    <v>      -2.10194600       0.00000000       6.07553700 </v>
   </varray>
   <i name="volume">    221.90106089 </i>
   <varray name="rec_basis" >
    <v>       0.15452516      -0.08859232       0.05346088 </v>
    <v>       0.15452516       0.08859232       0.05346088 </v>
    <v>      -0.00160600       0.00000000       0.16403888 </v>
   </varray>
  </crystal>
  <varray name="positions" >
   <v>       0.61844300       0.12117100       0.11953300 </v>
   <v>       0.12117100       0.61844300       0.61953300 </v>
   <v>       0.96295700       0.79032200       0.11881300 </v>
   <v>       0.79032200       0.96295700       0.61881300 </v>
   <v>       0.43973200       0.26728100       0.59904700 </v>
   <v>       0.26728100       0.43973200       0.09904700 </v>
   <v>       0.07949800       0.91167500       0.49736300 </v>
   <v>       0.57140300       0.41236400       0.98018400 </v>
   <v>       0.73711100       0.25006200       0.49349352 </v>
   <v>       0.41236400       0.57140300       0.48018400 </v>
   <v>       0.91167500       0.07949800       0.99736300 </v>
   <v>       0.25006200       0.73711100       0.99504900 </v>
  </varray>
 </structure>
 <calculation>
  <scstep>
   <time name="total">  252.47  252.27</time>
   <energy>
    <i name="alphaZ">    339.31929130 </i>
    <i name="ewald">  -9063.96382106 </i>
    <i name="hartreedc">  -8067.44171957 </i>
    <i name="XCdc">    369.90402834 </i>
    <i name="pawpsdc">  16899.31346227 </i>
    <i name="pawaedc"> -17392.12653840 </i>
    <i name="eentropy">     -0.00145914 </i>
    <i name="bandstr">  -1657.89510583 </i>
    <i name="atom">  18320.98302006 </i>
    <i name="e_fr_energy">     75.54237719 </i>
    <i name="e_wo_entrp">     75.54383633 </i>
    <i name="e_0_energy">     75.54286357 </i>
   </energy>
  </scstep>
  <scstep>
   <time name="total">  260.57  260.40</time>
   <energy>
    <i name="e_fr_energy">     -8.37714338 </i>
    <i name="e_wo_entrp">     -8.37637767 </i>
    <i name="e_0_energy">     -8.37688814 </i>
   </energy>
  </scstep>
  <scstep>
   <time name="total">  258.74  258.55</time>
   <energy>
    <i name="e_fr_energy">    -15.17649693 </i>
    <i name="e_wo_entrp">    -15.17675045 </i>
    <i name="e_0_energy">    -15.17658144 </i>
   </energy>
  </scstep>
  <scstep>
   <time name="total">  259.49  259.28</time>
   <energy>
    <i name="e_fr_energy">    -22.65274548 </i>
    <i name="e_wo_entrp">    -22.65312740 </i>
    <i name="e_0_energy">    -22.65287279 </i>
   </energy>
  </scstep>
  <scstep>
   <time name="total">  260.68  260.47</time>
   <energy>
    <i name="e_fr_energy">    -60.81182389 </i>
    <i name="e_wo_entrp">    -60.81246254 </i>
    <i name="e_0_energy">    -60.81203677 </i>
   </energy>
  </scstep>
  <scstep>
   <time name="total">  259.80  259.60</time>
   <energy>
    <i name="e_fr_energy">    -65.91185695 </i>
    <i name="e_wo_entrp">    -65.91253715 </i>
    <i name="e_0_energy">    -65.91208368 </i>
   </energy>
  </scstep>
  <scstep>
   <time name="total">  260.01  259.79</time>
   <energy>
    <i name="e_fr_energy">    -67.45889235 </i>
    <i name="e_wo_entrp">    -67.45933084 </i>
    <i name="e_0_energy">    -67.45903851 </i>
   </energy>
  </scstep>
  <scstep>
   <time name="total">  260.63  260.43</time>
   <energy>
    <i name="e_fr_energy">    -69.08226523 </i>
    <i name="e_wo_entrp">    -69.08297849 </i>
    <i name="e_0_energy">    -69.08250298 </i>
   </energy>
  </scstep>
  <scstep>
   <time name="total">  260.28  260.09</time>
   <energy>
    <i name="e_fr_energy">    -69.39397002 </i>
    <i name="e_wo_entrp">    -69.39481595 </i>
    <i name="e_0_energy">    -69.39425200 </i>
   </energy>
  </scstep>
  <scstep>
   <time name="total">  262.69  262.48</time>
   <energy>
    <i name="e_fr_energy">    -69.49833422 </i>
    <i name="e_wo_entrp">    -69.49904243 </i>
    <i name="e_0_energy">    -69.49857029 </i>
   </energy>
  </scstep>
  <scstep>
   <time name="total">  262.16  261.96</time>
   <energy>
    <i name="e_fr_energy">    -69.56837647 </i>
    <i name="e_wo_entrp">    -69.56896734 </i>
    <i name="e_0_energy">    -69.56857342 </i>
   </energy>
  </scstep>
  <scstep>
   <time name="total">  262.06  261.89</time>
   <energy>
    <i name="e_fr_energy">    -69.58069060 </i>
    <i name="e_wo_entrp">    -69.58123082 </i>
    <i name="e_0_energy">    -69.58087067 </i>
   </energy>
  </scstep>
  <scstep>
   <time name="total">  263.58  263.37</time>
   <energy>
    <i name="e_fr_energy">    -69.59041323 </i>
    <i name="e_wo_entrp">    -69.59094257 </i>
    <i name="e_0_energy">    -69.59058968 </i>
   </energy>
  </scstep>
  <scstep>
   <time name="total">  261.99  262.01</time>
   <energy>
    <i name="e_fr_energy">    -69.59287714 </i>
    <i name="e_wo_entrp">    -69.59342401 </i>
    <i name="e_0_energy">    -69.59305943 </i>
   </energy>
  </scstep>
  <scstep>
   <time name="total">  261.46  261.62</time>
   <energy>
    <i name="e_fr_energy">    -69.59439219 </i>
    <i name="e_wo_entrp">    -69.59495183 </i>
    <i name="e_0_energy">    -69.59457874 </i>
   </energy>
  </scstep>
  <scstep>
   <time name="total">  262.91  263.08</time>
   <energy>
    <i name="e_fr_energy">    -69.59496779 </i>
    <i name="e_wo_entrp">    -69.59552832 </i>
    <i name="e_0_energy">    -69.59515463 </i>
   </energy>
  </scstep>
  <scstep>
   <time name="total">  262.59  262.74</time>
   <energy>
    <i name="e_fr_energy">    -69.59514186 </i>
    <i name="e_wo_entrp">    -69.59569937 </i>
    <i name="e_0_energy">    -69.59532770 </i>
   </energy>
  </scstep>
  <scstep>
   <time name="total">  261.73  261.52</time>
   <energy>
    <i name="e_fr_energy">    -69.59525980 </i>
    <i name="e_wo_entrp">    -69.59581433 </i>
    <i name="e_0_energy">    -69.59544465 </i>
   </energy>
  </scstep>
  <scstep>
   <time name="total">  260.62  260.51</time>
   <energy>
    <i name="e_fr_energy">    -69.59528884 </i>
    <i name="e_wo_entrp">    -69.59584207 </i>
    <i name="e_0_energy">    -69.59547325 </i>
   </energy>
  </scstep>
  <scstep>
   <time name="total">  262.61  262.40</time>
   <energy>
    <i name="e_fr_energy">    -69.59530878 </i>
    <i name="e_wo_entrp">    -69.59586243 </i>
    <i name="e_0_energy">    -69.59549333 </i>
   </energy>
  </scstep>
  <scstep>
   <time name="total">  263.44  263.24</time>
   <energy>
    <i name="alphaZ">    339.31929130 </i>
    <i name="ewald">  -9063.96382106 </i>
    <i name="hartreedc">  -8150.09562522 </i>
    <i name="XCdc">    372.06556110 </i>
    <i name="pawpsdc">  15921.60376083 </i>
    <i name="pawaedc"> -16406.80914222 </i>
    <i name="eentropy">      0.00055421 </i>
    <i name="bandstr">  -1742.75833418 </i>
    <i name="atom">  18320.98302006 </i>
    <i name="e_fr_energy">    -69.59531624 </i>
    <i name="e_wo_entrp">    -69.59587045 </i>
    <i name="e_0_energy">    -69.59550097 </i>
   </energy>
  </scstep>
  <structure>
   <crystal>
    <varray name="basis" >
     <v>       3.22479600      -5.64383000       0.03157200 </v>
     <v>       3.22479600       5.64383000       0.03157200 </v>
     <v>      -2.10194600       0.00000000       6.07553700 </v>
    </varray>
    <i name="volume">    221.90106089 </i>
    <varray name="rec_basis" >
     <v>       0.15452516      -0.08859232       0.05346088 </v>
     <v>       0.15452516       0.08859232       0.05346088 </v>
     <v>      -0.00160600       0.00000000       0.16403888 </v>
    </varray>
   </crystal>
   <varray name="positions" >
    <v>       0.61844300       0.12117100       0.11953300 </v>
    <v>       0.12117100       0.61844300       0.61953300 </v>
    <v>       0.96295700       0.79032200       0.11881300 </v>
    <v>       0.79032200       0.96295700       0.61881300 </v>
    <v>       0.43973200       0.26728100       0.59904700 </v>
    <v>       0.26728100       0.43973200       0.09904700 </v>
    <v>       0.07949800       0.91167500       0.49736300 </v>
    <v>       0.57140300       0.41236400       0.98018400 </v>
    <v>       0.73711100       0.25006200       0.49349352 </v>
    <v>       0.41236400       0.57140300       0.48018400 </v>
    <v>       0.91167500       0.07949800       0.99736300 </v>
    <v>       0.25006200       0.73711100       0.99504900 </v>
   </varray>
  </structure>
  <varray name="forces" >
   <v>      -0.00225548      -0.00155282      -0.02995846 </v>
   <v>      -0.00634797       0.00007880      -0.00054401 </v>
   <v>       0.00215492      -0.00075178       0.00165016 </v>
   <v>       0.01113979       0.01356403      -0.00454242 </v>
   <v>       0.02598829      -0.02795127      -0.01796595 </v>
   <v>      -0.00028203      -0.00362769       0.00327232 </v>
   <v>       0.00570683      -0.00046254      -0.00157630 </v>
   <v>       0.00505456      -0.01134631      -0.01003606 </v>
   <v>      -0.04114503       0.02651452       0.08483928 </v>
   <v>       0.00371150       0.00930819      -0.00094874 </v>
   <v>       0.00371794      -0.00101690      -0.01342491 </v>
   <v>      -0.00744333      -0.00275623      -0.01076491 </v>
  </varray>
  <energy>
   <i name="e_fr_energy">    -69.59531624 </i>
   <i name="e_wo_entrp">    -69.59550097 </i>
   <i name="e_0_energy">      0.00055421 </i>
  </energy>
  <time name="totalsc"> 5994.71 5993.08</time>
  <eigenvalues>
   <array>
    <dimension dim="1">band</dimension>
    <dimension dim="2">kpoint</dimension>
    <dimension dim="3">spin</dimension>
    <field>eigene</field>
    <field>occ</field>
    <set>
     <set comment="spin 1">
      <set comment="kpoint 1">
       <r>  -68.6543    1.0000 </r>
       <r>  -68.6437    1.0000 </r>
       <r>  -68.6347    1.0000 </r>
       <r>  -68.6278    1.0000 </r>
       <r>  -68.6243    1.0000 </r>
       <r>  -68.6120    1.0000 </r>
       <r>  -68.6045    1.0000 </r>
       <r>  -68.5941    1.0000 </r>
       <r>  -68.5788    1.0000 </r>
       <r>  -68.5730    1.0000 </r>
       <r>  -68.5620    1.0000 </r>
       <r>  -68.5549    1.0000 </r>
       <r>  -12.7195    1.0000 </r>
       <r>  -11.1277    1.0000 </r>
       <r>  -10.9158    1.0000 </r>
       <r>  -10.6030    1.0000 </r>
       <r>  -10.2501    1.0000 </r>
       <r>  -10.2337    1.0000 </r>
       <r>   -5.9864    1.0000 </r>
       <r>   -4.9831    1.0000 </r>
       <r>   -2.7582    1.0000 </r>
       <r>   -2.2087    1.0000 </r>
       <r>   -2.0701    1.0000 </r>
       <r>   -1.9212    1.0000 </r>
       <r>   -1.5773    1.0000 </r>
       <r>   -0.9842    1.0000 </r>
       <r>   -0.9518    1.0000 </r>
       <r>   -0.6843    1.0000 </r>
       <r>   -0.4066    1.0000 </r>
       <r>   -0.2760    1.0000 </r>
       <r>   -0.2624    1.0000 </r>
       <r>   -0.2352    1.0000 </r>
       <r>   -0.1936    1.0000 </r>
       <r>   -0.1533    1.0000 </r>
       <r>   -0.0370    1.0000 </r>
       <r>    0.0287    1.0000 </r>
       <r>    1.3480    1.0000 </r>
       <r>    1.3617    1.0000 </r>
       <r>    1.4129    1.0000 </r>
       <r>    1.4585    1.0000 </r>
       <r>    1.4715    1.0000 </r>
       <r>    1.4741    1.0000 </r>
       <r>    1.5188    1.0000 </r>
       <r>    1.5329    1.0000 </r>
       <r>    1.5723    1.0000 </r>
       <r>    1.7105    1.0000 </r>
       <r>    1.8934    1.0000 </r>
       <r>    1.9292    1.0000 </r>
       <r>    2.0593    1.0000 </r>
       <r>    2.6497    1.0000 </r>
       <r>    2.7299    1.0000 </r>
       <r>    3.0903    1.0000 </r>
       <r>    3.2157    1.0000 </r>
       <r>    4.0076    1.0047 </r>
       <r>    4.0396    1.0130 </r>
       <r>    4.1742    0.8649 </r>
       <r>    5.5335   -0.0000 </r>
       <r>    6.3578   -0.0000 </r>
       <r>    7.6312    0.0000 </r>
       <r>    7.9874    0.0000 </r>
       <r>    8.6093    0.0000 </r>
       <r>    8.7894    0.0000 </r>
       <r>    9.5639    0.0000 </r>
       <r>    9.7382    0.0000 </r>
       <r>    9.8119    0.0000 </r>
       <r>   10.4193    0.0000 </r>
       <r>   10.5844    0.0000 </r>
       <r>   10.7002    0.0000 </r>
       <r>   10.7175    0.0000 </r>
       <r>   11.2779    0.0000 </r>
       <r>   11.7152    0.0000 </r>
       <r>   12.3956    0.0000 </r>
       <r>   12.4497    0.0000 </r>
       <r>   12.7346    0.0000 </r>
       <r>   13.3218    0.0000 </r>
       <r>   13.3855    0.0000 </r>
       <r>   13.8326    0.0000 </r>
       <r>   13.8862    0.0000 </r>
       <r>   14.1447    0.0000 </r>
       <r>   14.1807    0.0000 </r>
      </set>
      <set comment="kpoint 2">
       <r>  -68.6543    1.0000 </r>
       <r>  -68.6437    1.0000 </r>
       <r>  -68.6347    1.0000 </r>
       <r>  -68.6278    1.0000 </r>
       <r>  -68.6242    1.0000 </r>
       <r>  -68.6119    1.0000 </r>
       <r>  -68.6045    1.0000 </r>
       <r>  -68.5941    1.0000 </r>
       <r>  -68.5788    1.0000 </r>
       <r>  -68.5729    1.0000 </r>
       <r>  -68.5620    1.0000 </r>
       <r>  -68.5548    1.0000 </r>
       <r>  -12.5946    1.0000 </r>
       <r>  -11.1238    1.0000 </r>
       <r>  -10.9828    1.0000 </r>
       <r>  -10.6762    1.0000 </r>
       <r>  -10.3661    1.0000 </r>
       <r>  -10.2758    1.0000 </r>
       <r>   -5.9344    1.0000 </r>
       <r>   -4.7730    1.0000 </r>
       <r>   -2.6455    1.0000 </r>
       <r>   -2.2503    1.0000 </r>
       <r>   -2.0871    1.0000 </r>
       <r>   -1.6896    1.0000 </r>
       <r>   -1.3428    1.0000 </r>
       <r>   -0.9985    1.0000 </r>
       <r>   -0.7683    1.0000 </r>
       <r>   -0.6219    1.0000 </r>
       <r>   -0.5527    1.0000 </r>
       <r>   -0.4399    1.0000 </r>
       <r>   -0.3646    1.0000 </r>
       <r>   -0.2439    1.0000 </r>
       <r>   -0.1939    1.0000 </r>
       <r>   -0.1699    1.0000 </r>
       <r>   -0.0440    1.0000 </r>
       <r>    0.0345    1.0000 </r>
       <r>    1.2779    1.0000 </r>
       <r>    1.3370    1.0000 </r>
       <r>    1.3554    1.0000 </r>
       <r>    1.3897    1.0000 </r>
       <r>    1.4244    1.0000 </r>
       <r>    1.4710    1.0000 </r>
       <r>    1.4999    1.0000 </r>
       <r>    1.5293    1.0000 </r>
       <r>    1.7242    1.0000 </r>
       <r>    1.8567    1.0000 </r>
       <r>    2.0576    1.0000 </r>
       <r>    2.0965    1.0000 </r>
       <r>    2.2319    1.0000 </r>
       <r>    2.4141    1.0000 </r>
       <r>    2.5547    1.0000 </r>
       <r>    2.8247    1.0000 </r>
       <r>    2.9471    1.0000 </r>
       <r>    3.2431    1.0000 </r>
       <r>    3.6652    1.0000 </r>
       <r>    4.0398    1.0132 </r>
       <r>    6.1657   -0.0000 </r>
       <r>    6.9051   -0.0000 </r>
       <r>    8.1399    0.0000 </r>
       <r>    8.2673    0.0000 </r>
       <r>    8.5882    0.0000 </r>
       <r>    9.0118    0.0000 </r>
       <r>    9.2428    0.0000 </r>
       <r>    9.5316    0.0000 </r>
       <r>    9.8614    0.0000 </r>
       <r>   10.3738    0.0000 </r>
       <r>   10.6381    0.0000 </r>
       <r>   10.8128    0.0000 </r>
       <r>   10.9393    0.0000 </r>
       <r>   11.1895    0.0000 </r>
       <r>   11.6600    0.0000 </r>
       <r>   11.7698    0.0000 </r>
       <r>   12.1159    0.0000 </r>
       <r>   12.4461    0.0000 </r>
       <r>   12.6153    0.0000 </r>
       <r>   13.0073    0.0000 </r>
       <r>   13.5096    0.0000 </r>
       <r>   13.8747    0.0000 </r>
       <r>   14.2151    0.0000 </r>
       <r>   14.7086    0.0000 </r>
      </set>
      <set comment="kpoint 3">
       <r>  -68.6541    1.0000 </r>
       <r>  -68.6436    1.0000 </r>
       <r>  -68.6346    1.0000 </r>
       <r>  -68.6277    1.0000 </r>
       <r>  -68.6242    1.0000 </r>
       <r>  -68.6118    1.0000 </r>
       <r>  -68.6044    1.0000 </r>
       <r>  -68.5941    1.0000 </r>
       <r>  -68.5787    1.0000 </r>
       <r>  -68.5729    1.0000 </r>
       <r>  -68.5619    1.0000 </r>
       <r>  -68.5547    1.0000 </r>
       <r>  -12.4353    1.0000 </r>
       <r>  -11.2462    1.0000 </r>
       <r>  -10.9566    1.0000 </r>
       <r>  -10.7630    1.0000 </r>
       <r>  -10.4284    1.0000 </r>
       <r>  -10.3560    1.0000 </r>
       <r>   -5.8717    1.0000 </r>
       <r>   -4.5483    1.0000 </r>
       <r>   -2.4947    1.0000 </r>
       <r>   -2.2445    1.0000 </r>
       <r>   -1.9459    1.0000 </r>
       <r>   -1.4613    1.0000 </r>
       <r>   -1.2248    1.0000 </r>
       <r>   -1.1039    1.0000 </r>
       <r>   -0.9015    1.0000 </r>
       <r>   -0.8579    1.0000 </r>
       <r>   -0.5983    1.0000 </r>
       <r>   -0.5385    1.0000 </r>
       <r>   -0.2802    1.0000 </r>
       <r>   -0.2042    1.0000 </r>
       <r>   -0.2018    1.0000 </r>
       <r>   -0.1495    1.0000 </r>
       <r>   -0.0288    1.0000 </r>
       <r>    0.0763    1.0000 </r>
       <r>    1.2538    1.0000 </r>
       <r>    1.3296    1.0000 </r>
       <r>    1.3450    1.0000 </r>
       <r>    1.3930    1.0000 </r>
       <r>    1.4712    1.0000 </r>
       <r>    1.4808    1.0000 </r>
       <r>    1.4997    1.0000 </r>
       <r>    1.5525    1.0000 </r>
       <r>    1.7510    1.0000 </r>
       <r>    1.7901    1.0000 </r>
       <r>    1.9716    1.0000 </r>
       <r>    2.1446    1.0000 </r>
       <r>    2.3228    1.0000 </r>
       <r>    2.3638    1.0000 </r>
       <r>    2.5504    1.0000 </r>
       <r>    2.6704    1.0000 </r>
       <r>    2.9362    1.0000 </r>
       <r>    3.0804    1.0000 </r>
       <r>    3.2541    1.0000 </r>
       <r>    3.8598    1.0000 </r>
       <r>    6.3797   -0.0000 </r>
       <r>    7.0965    0.0000 </r>
       <r>    7.9809    0.0000 </r>
       <r>    8.2041    0.0000 </r>
       <r>    8.5177    0.0000 </r>
       <r>    8.8207    0.0000 </r>
       <r>    9.3255    0.0000 </r>
       <r>    9.8908    0.0000 </r>
       <r>   10.0111    0.0000 </r>
       <r>   10.5152    0.0000 </r>
       <r>   10.6902    0.0000 </r>
       <r>   10.7953    0.0000 </r>
       <r>   11.1408    0.0000 </r>
       <r>   11.4047    0.0000 </r>
       <r>   11.6198    0.0000 </r>
       <r>   11.7742    0.0000 </r>
       <r>   11.9434    0.0000 </r>
       <r>   12.4937    0.0000 </r>
       <r>   12.7741    0.0000 </r>
       <r>   13.0076    0.0000 </r>
       <r>   13.3948    0.0000 </r>
       <r>   13.5380    0.0000 </r>
       <r>   13.9394    0.0000 </r>
       <r>   14.2706    0.0000 </r>
      </set>
      <set comment="kpoint 4">
       <r>  -68.6543    1.0000 </r>
       <r>  -68.6437    1.0000 </r>
       <r>  -68.6347    1.0000 </r>
       <r>  -68.6278    1.0000 </r>
       <r>  -68.6242    1.0000 </r>
       <r>  -68.6119    1.0000 </r>
       <r>  -68.6045    1.0000 </r>
       <r>  -68.5941    1.0000 </r>
       <r>  -68.5788    1.0000 </r>
       <r>  -68.5729    1.0000 </r>
       <r>  -68.5620    1.0000 </r>
       <r>  -68.5548    1.0000 </r>
       <r>  -12.5945    1.0000 </r>
       <r>  -11.1242    1.0000 </r>
       <r>  -10.9825    1.0000 </r>
       <r>  -10.6775    1.0000 </r>
       <r>  -10.3628    1.0000 </r>
       <r>  -10.2777    1.0000 </r>
       <r>   -5.9350    1.0000 </r>
       <r>   -4.7729    1.0000 </r>
       <r>   -2.6433    1.0000 </r>
       <r>   -2.2521    1.0000 </r>
       <r>   -2.0841    1.0000 </r>
       <r>   -1.6884    1.0000 </r>
       <r>   -1.3468    1.0000 </r>
       <r>   -0.9988    1.0000 </r>
       <r>   -0.7696    1.0000 </r>
       <r>   -0.6259    1.0000 </r>
       <r>   -0.5565    1.0000 </r>
       <r>   -0.4366    1.0000 </r>
       <r>   -0.3604    1.0000 </r>
       <r>   -0.2408    1.0000 </r>
       <r>   -0.1967    1.0000 </r>
       <r>   -0.1658    1.0000 </r>
       <r>   -0.0508    1.0000 </r>
       <r>    0.0386    1.0000 </r>
       <r>    1.2781    1.0000 </r>
       <r>    1.3343    1.0000 </r>
       <r>    1.3537    1.0000 </r>
       <r>    1.3921    1.0000 </r>
       <r>    1.4257    1.0000 </r>
       <r>    1.4713    1.0000 </r>
       <r>    1.4969    1.0000 </r>
       <r>    1.5311    1.0000 </r>
       <r>    1.7243    1.0000 </r>
       <r>    1.8611    1.0000 </r>
       <r>    2.0568    1.0000 </r>
       <r>    2.0938    1.0000 </r>
       <r>    2.2314    1.0000 </r>
       <r>    2.4150    1.0000 </r>
       <r>    2.5553    1.0000 </r>
       <r>    2.8251    1.0000 </r>
       <r>    2.9480    1.0000 </r>
       <r>    3.2435    1.0000 </r>
       <r>    3.6629    1.0000 </r>
       <r>    4.0419    1.0139 </r>
       <r>    6.1638   -0.0000 </r>
       <r>    6.9049   -0.0000 </r>
       <r>    8.1379    0.0000 </r>
       <r>    8.2674    0.0000 </r>
       <r>    8.5888    0.0000 </r>
       <r>    9.0118    0.0000 </r>
       <r>    9.2401    0.0000 </r>
       <r>    9.5310    0.0000 </r>
       <r>    9.8618    0.0000 </r>
       <r>   10.3747    0.0000 </r>
       <r>   10.6307    0.0000 </r>
       <r>   10.8186    0.0000 </r>
       <r>   10.9423    0.0000 </r>
       <r>   11.1916    0.0000 </r>
       <r>   11.6579    0.0000 </r>
       <r>   11.7719    0.0000 </r>
       <r>   12.1188    0.0000 </r>
       <r>   12.4388    0.0000 </r>
       <r>   12.6216    0.0000 </r>
       <r>   13.0119    0.0000 </r>
       <r>   13.5264    0.0000 </r>
       <r>   13.8974    0.0000 </r>
       <r>   14.2701    0.0000 </r>
       <r>   14.8379    0.0000 </r>
      </set>
      <set comment="kpoint 5">
       <r>  -68.6543    1.0000 </r>
       <r>  -68.6437    1.0000 </r>
       <r>  -68.6346    1.0000 </r>
       <r>  -68.6277    1.0000 </r>
       <r>  -68.6243    1.0000 </r>
       <r>  -68.6120    1.0000 </r>
       <r>  -68.6044    1.0000 </r>
       <r>  -68.5940    1.0000 </r>
       <r>  -68.5789    1.0000 </r>
       <r>  -68.5730    1.0000 </r>
       <r>  -68.5620    1.0000 </r>
       <r>  -68.5549    1.0000 </r>
       <r>  -12.4391    1.0000 </r>
       <r>  -11.1874    1.0000 </r>
       <r>  -10.9429    1.0000 </r>
       <r>  -10.8778    1.0000 </r>
       <r>  -10.3904    1.0000 </r>
       <r>  -10.3487    1.0000 </r>
       <r>   -5.8773    1.0000 </r>
       <r>   -4.5217    1.0000 </r>
       <r>   -2.4170    1.0000 </r>
       <r>   -2.2440    1.0000 </r>
       <r>   -1.7908    1.0000 </r>
       <r>   -1.6815    1.0000 </r>
       <r>   -1.3559    1.0000 </r>
       <r>   -1.2990    1.0000 </r>
       <r>   -1.0794    1.0000 </r>
       <r>   -0.6836    1.0000 </r>
       <r>   -0.5284    1.0000 </r>
       <r>   -0.2992    1.0000 </r>
       <r>   -0.2843    1.0000 </r>
       <r>   -0.2228    1.0000 </r>
       <r>   -0.1875    1.0000 </r>
       <r>   -0.1279    1.0000 </r>
       <r>   -0.0914    1.0000 </r>
       <r>    0.0768    1.0000 </r>
       <r>    1.2918    1.0000 </r>
       <r>    1.3109    1.0000 </r>
       <r>    1.4142    1.0000 </r>
       <r>    1.4249    1.0000 </r>
       <r>    1.4614    1.0000 </r>
       <r>    1.4826    1.0000 </r>
       <r>    1.4958    1.0000 </r>
       <r>    1.5711    1.0000 </r>
       <r>    1.6718    1.0000 </r>
       <r>    1.8817    1.0000 </r>
       <r>    1.9412    1.0000 </r>
       <r>    2.1349    1.0000 </r>
       <r>    2.2796    1.0000 </r>
       <r>    2.3196    1.0000 </r>
       <r>    2.5587    1.0000 </r>
       <r>    2.6496    1.0000 </r>
       <r>    2.9042    1.0000 </r>
       <r>    2.9447    1.0000 </r>
       <r>    3.7003    1.0000 </r>
       <r>    3.8317    1.0000 </r>
       <r>    6.1652   -0.0000 </r>
       <r>    6.9899    0.0000 </r>
       <r>    8.0048    0.0000 </r>
       <r>    8.3212    0.0000 </r>
       <r>    8.4350    0.0000 </r>
       <r>    8.5706    0.0000 </r>
       <r>    9.1440    0.0000 </r>
       <r>    9.2490    0.0000 </r>
       <r>   10.3628    0.0000 </r>
       <r>   10.4938    0.0000 </r>
       <r>   10.9239    0.0000 </r>
       <r>   11.1840    0.0000 </r>
       <r>   11.3280    0.0000 </r>
       <r>   11.5618    0.0000 </r>
       <r>   11.8093    0.0000 </r>
       <r>   11.9653    0.0000 </r>
       <r>   12.3152    0.0000 </r>
       <r>   12.5044    0.0000 </r>
       <r>   12.7106    0.0000 </r>
       <r>   12.9158    0.0000 </r>
       <r>   13.3365    0.0000 </r>
       <r>   13.4430    0.0000 </r>
       <r>   14.2602    0.0000 </r>
       <r>   14.3600    0.0000 </r>
      </set>
      <set comment="kpoint 6">
       <r>  -68.6541    1.0000 </r>
       <r>  -68.6435    1.0000 </r>
       <r>  -68.6346    1.0000 </r>
       <r>  -68.6277    1.0000 </r>
       <r>  -68.6241    1.0000 </r>
       <r>  -68.6118    1.0000 </r>
       <r>  -68.6045    1.0000 </r>
       <r>  -68.5941    1.0000 </r>
       <r>  -68.5787    1.0000 </r>
       <r>  -68.5729    1.0000 </r>
       <r>  -68.5619    1.0000 </r>
       <r>  -68.5547    1.0000 </r>
       <r>  -12.4397    1.0000 </r>
       <r>  -11.3509    1.0000 </r>
       <r>  -10.9379    1.0000 </r>
       <r>  -10.7375    1.0000 </r>
       <r>  -10.3881    1.0000 </r>
       <r>  -10.2703    1.0000 </r>
       <r>   -5.9488    1.0000 </r>
       <r>   -4.6429    1.0000 </r>
       <r>   -2.3936    1.0000 </r>
       <r>   -2.2252    1.0000 </r>
       <r>   -2.0585    1.0000 </r>
       <r>   -1.6393    1.0000 </r>
       <r>   -1.3553    1.0000 </r>
       <r>   -1.2818    1.0000 </r>
       <r>   -1.0218    1.0000 </r>
       <r>   -0.5137    1.0000 </r>
       <r>   -0.4822    1.0000 </r>
       <r>   -0.3306    1.0000 </r>
       <r>   -0.2836    1.0000 </r>
       <r>   -0.2175    1.0000 </r>
       <r>   -0.1522    1.0000 </r>
       <r>   -0.1396    1.0000 </r>
       <r>   -0.0110    1.0000 </r>
       <r>    0.1110    1.0000 </r>
       <r>    1.2457    1.0000 </r>
       <r>    1.3125    1.0000 </r>
       <r>    1.3839    1.0000 </r>
       <r>    1.4369    1.0000 </r>
       <r>    1.4612    1.0000 </r>
       <r>    1.4901    1.0000 </r>
       <r>    1.4969    1.0000 </r>
       <r>    1.5491    1.0000 </r>
       <r>    1.7470    1.0000 </r>
       <r>    1.8275    1.0000 </r>
       <r>    1.9241    1.0000 </r>
       <r>    2.1329    1.0000 </r>
       <r>    2.2215    1.0000 </r>
       <r>    2.3863    1.0000 </r>
       <r>    2.5598    1.0000 </r>
       <r>    2.7908    1.0000 </r>
       <r>    2.9789    1.0000 </r>
       <r>    3.3141    1.0000 </r>
       <r>    3.6058    1.0000 </r>
       <r>    3.7475    1.0000 </r>
       <r>    6.0826   -0.0000 </r>
       <r>    6.9387   -0.0000 </r>
       <r>    7.6124    0.0000 </r>
       <r>    8.0689    0.0000 </r>
       <r>    8.4061    0.0000 </r>
       <r>    8.6167    0.0000 </r>
       <r>    8.9826    0.0000 </r>
       <r>    9.1508    0.0000 </r>
       <r>   10.0871    0.0000 </r>
       <r>   10.3386    0.0000 </r>
       <r>   10.7283    0.0000 </r>
       <r>   11.1103    0.0000 </r>
       <r>   11.4612    0.0000 </r>
       <r>   11.5961    0.0000 </r>
       <r>   11.7917    0.0000 </r>
       <r>   12.0877    0.0000 </r>
       <r>   12.4736    0.0000 </r>
       <r>   12.9083    0.0000 </r>
       <r>   13.0285    0.0000 </r>
       <r>   13.8151    0.0000 </r>
       <r>   14.2067    0.0000 </r>
       <r>   14.6342    0.0000 </r>
       <r>   15.4183    0.0000 </r>
       <r>   15.6360    0.0000 </r>
      </set>
      <set comment="kpoint 7">
       <r>  -68.6543    1.0000 </r>
       <r>  -68.6437    1.0000 </r>
       <r>  -68.6347    1.0000 </r>
       <r>  -68.6277    1.0000 </r>
       <r>  -68.6241    1.0000 </r>
       <r>  -68.6118    1.0000 </r>
       <r>  -68.6045    1.0000 </r>
       <r>  -68.5941    1.0000 </r>
       <r>  -68.5787    1.0000 </r>
       <r>  -68.5729    1.0000 </r>
       <r>  -68.5620    1.0000 </r>
       <r>  -68.5548    1.0000 </r>
       <r>  -12.5976    1.0000 </r>
       <r>  -11.2484    1.0000 </r>
       <r>  -10.9917    1.0000 </r>
       <r>  -10.5702    1.0000 </r>
       <r>  -10.3644    1.0000 </r>
       <r>  -10.1792    1.0000 </r>
       <r>   -6.0115    1.0000 </r>
       <r>   -4.8950    1.0000 </r>
       <r>   -2.6468    1.0000 </r>
       <r>   -2.3141    1.0000 </r>
       <r>   -1.9701    1.0000 </r>
       <r>   -1.6446    1.0000 </r>
       <r>   -1.4926    1.0000 </r>
       <r>   -1.1866    1.0000 </r>
       <r>   -0.7895    1.0000 </r>
       <r>   -0.5840    1.0000 </r>
       <r>   -0.4467    1.0000 </r>
       <r>   -0.3327    1.0000 </r>
       <r>   -0.2961    1.0000 </r>
       <r>   -0.2353    1.0000 </r>
       <r>   -0.1753    1.0000 </r>
       <r>   -0.1346    1.0000 </r>
       <r>   -0.0119    1.0000 </r>
       <r>    0.0721    1.0000 </r>
       <r>    1.2586    1.0000 </r>
       <r>    1.3198    1.0000 </r>
       <r>    1.3620    1.0000 </r>
       <r>    1.4234    1.0000 </r>
       <r>    1.4315    1.0000 </r>
       <r>    1.4751    1.0000 </r>
       <r>    1.5037    1.0000 </r>
       <r>    1.5405    1.0000 </r>
       <r>    1.7221    1.0000 </r>
       <r>    1.8118    1.0000 </r>
       <r>    1.9967    1.0000 </r>
       <r>    2.0729    1.0000 </r>
       <r>    2.4174    1.0000 </r>
       <r>    2.4641    1.0000 </r>
       <r>    2.5290    1.0000 </r>
       <r>    2.8707    1.0000 </r>
       <r>    3.1433    1.0000 </r>
       <r>    3.2300    1.0000 </r>
       <r>    3.7852    1.0000 </r>
       <r>    4.0719    1.0271 </r>
       <r>    5.9744   -0.0000 </r>
       <r>    6.6881   -0.0000 </r>
       <r>    7.5343    0.0000 </r>
       <r>    8.2227    0.0000 </r>
       <r>    8.6136    0.0000 </r>
       <r>    8.9138    0.0000 </r>
       <r>    9.3053    0.0000 </r>
       <r>    9.4298    0.0000 </r>
       <r>    9.8027    0.0000 </r>
       <r>   10.2683    0.0000 </r>
       <r>   10.5408    0.0000 </r>
       <r>   10.8291    0.0000 </r>
       <r>   10.9708    0.0000 </r>
       <r>   11.3857    0.0000 </r>
       <r>   11.4707    0.0000 </r>
       <r>   11.7365    0.0000 </r>
       <r>   12.1015    0.0000 </r>
       <r>   12.6626    0.0000 </r>
       <r>   12.9394    0.0000 </r>
       <r>   13.1095    0.0000 </r>
       <r>   13.3511    0.0000 </r>
       <r>   13.5223    0.0000 </r>
       <r>   14.4763    0.0000 </r>
       <r>   14.7561    0.0000 </r>
      </set>
      <set comment="kpoint 8">
       <r>  -68.6542    1.0000 </r>
       <r>  -68.6435    1.0000 </r>
       <r>  -68.6346    1.0000 </r>
       <r>  -68.6277    1.0000 </r>
       <r>  -68.6241    1.0000 </r>
       <r>  -68.6119    1.0000 </r>
       <r>  -68.6044    1.0000 </r>
       <r>  -68.5941    1.0000 </r>
       <r>  -68.5788    1.0000 </r>
       <r>  -68.5728    1.0000 </r>
       <r>  -68.5618    1.0000 </r>
       <r>  -68.5547    1.0000 </r>
       <r>  -12.4352    1.0000 </r>
       <r>  -11.2461    1.0000 </r>
       <r>  -10.9569    1.0000 </r>
       <r>  -10.7656    1.0000 </r>
       <r>  -10.4222    1.0000 </r>
       <r>  -10.3593    1.0000 </r>
       <r>   -5.8729    1.0000 </r>
       <r>   -4.5480    1.0000 </r>
       <r>   -2.4914    1.0000 </r>
       <r>   -2.2441    1.0000 </r>
       <r>   -1.9429    1.0000 </r>
       <r>   -1.4625    1.0000 </r>
       <r>   -1.2281    1.0000 </r>
       <r>   -1.1022    1.0000 </r>
       <r>   -0.9032    1.0000 </r>
       <r>   -0.8627    1.0000 </r>
       <r>   -0.6033    1.0000 </r>
       <r>   -0.5414    1.0000 </r>
       <r>   -0.2730    1.0000 </r>
       <r>   -0.2064    1.0000 </r>
       <r>   -0.2006    1.0000 </r>
       <r>   -0.1428    1.0000 </r>
       <r>   -0.0308    1.0000 </r>
       <r>    0.0771    1.0000 </r>
       <r>    1.2531    1.0000 </r>
       <r>    1.3251    1.0000 </r>
       <r>    1.3457    1.0000 </r>
       <r>    1.3968    1.0000 </r>
       <r>    1.4694    1.0000 </r>
       <r>    1.4786    1.0000 </r>
       <r>    1.4985    1.0000 </r>
       <r>    1.5554    1.0000 </r>
       <r>    1.7532    1.0000 </r>
       <r>    1.7944    1.0000 </r>
       <r>    1.9667    1.0000 </r>
       <r>    2.1488    1.0000 </r>
       <r>    2.3189    1.0000 </r>
       <r>    2.3605    1.0000 </r>
       <r>    2.5565    1.0000 </r>
       <r>    2.6698    1.0000 </r>
       <r>    2.9407    1.0000 </r>
       <r>    3.0773    1.0000 </r>
       <r>    3.2497    1.0000 </r>
       <r>    3.8633    1.0000 </r>
       <r>    6.3774   -0.0000 </r>
       <r>    7.0967    0.0000 </r>
       <r>    7.9802    0.0000 </r>
       <r>    8.2025    0.0000 </r>
       <r>    8.5061    0.0000 </r>
       <r>    8.8215    0.0000 </r>
       <r>    9.3305    0.0000 </r>
       <r>    9.8878    0.0000 </r>
       <r>   10.0133    0.0000 </r>
       <r>   10.5206    0.0000 </r>
       <r>   10.6917    0.0000 </r>
       <r>   10.7920    0.0000 </r>
       <r>   11.1414    0.0000 </r>
       <r>   11.4130    0.0000 </r>
       <r>   11.6091    0.0000 </r>
       <r>   11.7786    0.0000 </r>
       <r>   11.9416    0.0000 </r>
       <r>   12.5202    0.0000 </r>
       <r>   12.8274    0.0000 </r>
       <r>   13.0187    0.0000 </r>
       <r>   13.5493    0.0000 </r>
       <r>   13.6861    0.0000 </r>
       <r>   14.5529    0.0000 </r>
       <r>   15.2529    0.0000 </r>
      </set>
      <set comment="kpoint 9">
       <r>  -68.6541    1.0000 </r>
       <r>  -68.6435    1.0000 </r>
       <r>  -68.6346    1.0000 </r>
       <r>  -68.6277    1.0000 </r>
       <r>  -68.6241    1.0000 </r>
       <r>  -68.6118    1.0000 </r>
       <r>  -68.6045    1.0000 </r>
       <r>  -68.5941    1.0000 </r>
       <r>  -68.5787    1.0000 </r>
       <r>  -68.5728    1.0000 </r>
       <r>  -68.5618    1.0000 </r>
       <r>  -68.5547    1.0000 </r>
       <r>  -12.4396    1.0000 </r>
       <r>  -11.3511    1.0000 </r>
       <r>  -10.9381    1.0000 </r>
       <r>  -10.7380    1.0000 </r>
       <r>  -10.3858    1.0000 </r>
       <r>  -10.2716    1.0000 </r>
       <r>   -5.9493    1.0000 </r>
       <r>   -4.6429    1.0000 </r>
       <r>   -2.3909    1.0000 </r>
       <r>   -2.2264    1.0000 </r>
       <r>   -2.0532    1.0000 </r>
       <r>   -1.6413    1.0000 </r>
       <r>   -1.3637    1.0000 </r>
       <r>   -1.2800    1.0000 </r>
       <r>   -1.0217    1.0000 </r>
       <r>   -0.5128    1.0000 </r>
       <r>   -0.4851    1.0000 </r>
       <r>   -0.3306    1.0000 </r>
       <r>   -0.2861    1.0000 </r>
       <r>   -0.2137    1.0000 </r>
       <r>   -0.1512    1.0000 </r>
       <r>   -0.1367    1.0000 </r>
       <r>   -0.0127    1.0000 </r>
       <r>    0.1115    1.0000 </r>
       <r>    1.2447    1.0000 </r>
       <r>    1.3153    1.0000 </r>
       <r>    1.3797    1.0000 </r>
       <r>    1.4353    1.0000 </r>
       <r>    1.4594    1.0000 </r>
       <r>    1.4915    1.0000 </r>
       <r>    1.4984    1.0000 </r>
       <r>    1.5518    1.0000 </r>
       <r>    1.7511    1.0000 </r>
       <r>    1.8290    1.0000 </r>
       <r>    1.9192    1.0000 </r>
       <r>    2.1328    1.0000 </r>
       <r>    2.2191    1.0000 </r>
       <r>    2.3857    1.0000 </r>
       <r>    2.5645    1.0000 </r>
       <r>    2.7906    1.0000 </r>
       <r>    2.9797    1.0000 </r>
       <r>    3.3127    1.0000 </r>
       <r>    3.6037    1.0000 </r>
       <r>    3.7497    1.0000 </r>
       <r>    6.0812   -0.0000 </r>
       <r>    6.9377   -0.0000 </r>
       <r>    7.6126    0.0000 </r>
       <r>    8.0694    0.0000 </r>
       <r>    8.4064    0.0000 </r>
       <r>    8.6130    0.0000 </r>
       <r>    8.9835    0.0000 </r>
       <r>    9.1523    0.0000 </r>
       <r>   10.0930    0.0000 </r>
       <r>   10.3265    0.0000 </r>
       <r>   10.7312    0.0000 </r>
       <r>   11.1064    0.0000 </r>
       <r>   11.4580    0.0000 </r>
       <r>   11.5765    0.0000 </r>
       <r>   11.7929    0.0000 </r>
       <r>   12.0348    0.0000 </r>
       <r>   12.5162    0.0000 </r>
       <r>   12.6801    0.0000 </r>
       <r>   12.9192    0.0000 </r>
       <r>   13.2085    0.0000 </r>
       <r>   14.2327    0.0000 </r>
       <r>   14.7644    0.0000 </r>
       <r>   15.2550    0.0000 </r>
       <r>   15.9104    0.0000 </r>
      </set>
      <set comment="kpoint 10">
       <r>  -68.6539    1.0000 </r>
       <r>  -68.6433    1.0000 </r>
       <r>  -68.6344    1.0000 </r>
       <r>  -68.6275    1.0000 </r>
       <r>  -68.6240    1.0000 </r>
       <r>  -68.6117    1.0000 </r>
       <r>  -68.6043    1.0000 </r>
       <r>  -68.5939    1.0000 </r>
       <r>  -68.5786    1.0000 </r>
       <r>  -68.5727    1.0000 </r>
       <r>  -68.5617    1.0000 </r>
       <r>  -68.5545    1.0000 </r>
       <r>  -12.4317    1.0000 </r>
       <r>  -11.4984    1.0000 </r>
       <r>  -10.9133    1.0000 </r>
       <r>  -10.6177    1.0000 </r>
       <r>  -10.3950    1.0000 </r>
       <r>  -10.1986    1.0000 </r>
       <r>   -6.0275    1.0000 </r>
       <r>   -4.8115    1.0000 </r>
       <r>   -2.3137    1.0000 </r>
       <r>   -2.2636    1.0000 </r>
       <r>   -2.0946    1.0000 </r>
       <r>   -1.6990    1.0000 </r>
       <r>   -1.2417    1.0000 </r>
       <r>   -1.1094    1.0000 </r>
       <r>   -0.8430    1.0000 </r>
       <r>   -0.7814    1.0000 </r>
       <r>   -0.7267    1.0000 </r>
       <r>   -0.2454    1.0000 </r>
       <r>   -0.2008    1.0000 </r>
       <r>   -0.1860    1.0000 </r>
       <r>   -0.1521    1.0000 </r>
       <r>   -0.0411    1.0000 </r>
       <r>   -0.0054    1.0000 </r>
       <r>    0.1853    1.0000 </r>
       <r>    1.2668    1.0000 </r>
       <r>    1.3155    1.0000 </r>
       <r>    1.3728    1.0000 </r>
       <r>    1.4144    1.0000 </r>
       <r>    1.4349    1.0000 </r>
       <r>    1.4888    1.0000 </r>
       <r>    1.5089    1.0000 </r>
       <r>    1.5473    1.0000 </r>
       <r>    1.7869    1.0000 </r>
       <r>    1.8449    1.0000 </r>
       <r>    1.9978    1.0000 </r>
       <r>    2.1513    1.0000 </r>
       <r>    2.2542    1.0000 </r>
       <r>    2.3334    1.0000 </r>
       <r>    2.5599    1.0000 </r>
       <r>    2.7652    1.0000 </r>
       <r>    2.7746    1.0000 </r>
       <r>    3.3720    1.0000 </r>
       <r>    3.7637    1.0000 </r>
       <r>    4.0092    1.0050 </r>
       <r>    5.8495   -0.0000 </r>
       <r>    6.7652   -0.0000 </r>
       <r>    7.0834    0.0000 </r>
       <r>    8.4125    0.0000 </r>
       <r>    8.5623    0.0000 </r>
       <r>    8.7695    0.0000 </r>
       <r>    9.1378    0.0000 </r>
       <r>    9.2376    0.0000 </r>
       <r>    9.9594    0.0000 </r>
       <r>   10.2841    0.0000 </r>
       <r>   10.7174    0.0000 </r>
       <r>   10.8244    0.0000 </r>
       <r>   10.8805    0.0000 </r>
       <r>   11.2759    0.0000 </r>
       <r>   11.7512    0.0000 </r>
       <r>   11.9169    0.0000 </r>
       <r>   11.9736    0.0000 </r>
       <r>   12.3714    0.0000 </r>
       <r>   12.5407    0.0000 </r>
       <r>   13.4566    0.0000 </r>
       <r>   14.2788    0.0000 </r>
       <r>   14.6735    0.0000 </r>
       <r>   16.7433    0.0000 </r>
       <r>   16.7570    0.0000 </r>
      </set>
      <set comment="kpoint 11">
       <r>  -68.6543    1.0000 </r>
       <r>  -68.6437    1.0000 </r>
       <r>  -68.6347    1.0000 </r>
       <r>  -68.6278    1.0000 </r>
       <r>  -68.6242    1.0000 </r>
       <r>  -68.6119    1.0000 </r>
       <r>  -68.6045    1.0000 </r>
       <r>  -68.5941    1.0000 </r>
       <r>  -68.5788    1.0000 </r>
       <r>  -68.5729    1.0000 </r>
       <r>  -68.5620    1.0000 </r>
       <r>  -68.5549    1.0000 </r>
       <r>  -12.6163    1.0000 </r>
       <r>  -11.4233    1.0000 </r>
       <r>  -10.7776    1.0000 </r>
       <r>  -10.6081    1.0000 </r>
       <r>  -10.2490    1.0000 </r>
       <r>  -10.2356    1.0000 </r>
       <r>   -5.8323    1.0000 </r>
       <r>   -5.0466    1.0000 </r>
       <r>   -2.5988    1.0000 </r>
       <r>   -2.3717    1.0000 </r>
       <r>   -1.9611    1.0000 </r>
       <r>   -1.7739    1.0000 </r>
       <r>   -1.4436    1.0000 </r>
       <r>   -1.1269    1.0000 </r>
       <r>   -1.0659    1.0000 </r>
       <r>   -0.7727    1.0000 </r>
       <r>   -0.4724    1.0000 </r>
       <r>   -0.2961    1.0000 </r>
       <r>   -0.2397    1.0000 </r>
       <r>   -0.2334    1.0000 </r>
       <r>   -0.1943    1.0000 </r>
       <r>   -0.1465    1.0000 </r>
       <r>   -0.0155    1.0000 </r>
       <r>    0.0223    1.0000 </r>
       <r>    1.3315    1.0000 </r>
       <r>    1.3805    1.0000 </r>
       <r>    1.4137    1.0000 </r>
       <r>    1.4389    1.0000 </r>
       <r>    1.4639    1.0000 </r>
       <r>    1.4692    1.0000 </r>
       <r>    1.5136    1.0000 </r>
       <r>    1.5467    1.0000 </r>
       <r>    1.6311    1.0000 </r>
       <r>    1.7565    1.0000 </r>
       <r>    1.7872    1.0000 </r>
       <r>    1.9535    1.0000 </r>
       <r>    2.0887    1.0000 </r>
       <r>    2.6604    1.0000 </r>
       <r>    2.7183    1.0000 </r>
       <r>    3.1950    1.0000 </r>
       <r>    3.2510    1.0000 </r>
       <r>    3.5208    1.0000 </r>
       <r>    3.8960    1.0000 </r>
       <r>    3.9770    1.0014 </r>
       <r>    6.0419   -0.0000 </r>
       <r>    6.4157   -0.0000 </r>
       <r>    7.8245    0.0000 </r>
       <r>    7.9077    0.0000 </r>
       <r>    8.3611    0.0000 </r>
       <r>    8.8171    0.0000 </r>
       <r>    9.7726    0.0000 </r>
       <r>    9.7927    0.0000 </r>
       <r>   10.0613    0.0000 </r>
       <r>   10.5872    0.0000 </r>
       <r>   10.6453    0.0000 </r>
       <r>   10.8123    0.0000 </r>
       <r>   10.8572    0.0000 </r>
       <r>   11.4938    0.0000 </r>
       <r>   11.5607    0.0000 </r>
       <r>   12.0296    0.0000 </r>
       <r>   12.5762    0.0000 </r>
       <r>   12.7784    0.0000 </r>
       <r>   12.9131    0.0000 </r>
       <r>   13.2096    0.0000 </r>
       <r>   13.5380    0.0000 </r>
       <r>   13.8245    0.0000 </r>
       <r>   14.1974    0.0000 </r>
       <r>   14.7057    0.0000 </r>
      </set>
      <set comment="kpoint 12">
       <r>  -68.6543    1.0000 </r>
       <r>  -68.6437    1.0000 </r>
       <r>  -68.6347    1.0000 </r>
       <r>  -68.6277    1.0000 </r>
       <r>  -68.6242    1.0000 </r>
       <r>  -68.6120    1.0000 </r>
       <r>  -68.6045    1.0000 </r>
       <r>  -68.5941    1.0000 </r>
       <r>  -68.5788    1.0000 </r>
       <r>  -68.5729    1.0000 </r>
       <r>  -68.5620    1.0000 </r>
       <r>  -68.5548    1.0000 </r>
       <r>  -12.4573    1.0000 </r>
       <r>  -11.4642    1.0000 </r>
       <r>  -10.8642    1.0000 </r>
       <r>  -10.6877    1.0000 </r>
       <r>  -10.3735    1.0000 </r>
       <r>  -10.2439    1.0000 </r>
       <r>   -5.7672    1.0000 </r>
       <r>   -4.8041    1.0000 </r>
       <r>   -2.4451    1.0000 </r>
       <r>   -2.2318    1.0000 </r>
       <r>   -1.8505    1.0000 </r>
       <r>   -1.7127    1.0000 </r>
       <r>   -1.4299    1.0000 </r>
       <r>   -1.1901    1.0000 </r>
       <r>   -0.8910    1.0000 </r>
       <r>   -0.7447    1.0000 </r>
       <r>   -0.6105    1.0000 </r>
       <r>   -0.5220    1.0000 </r>
       <r>   -0.3129    1.0000 </r>
       <r>   -0.2457    1.0000 </r>
       <r>   -0.1736    1.0000 </r>
       <r>   -0.1245    1.0000 </r>
       <r>   -0.0510    1.0000 </r>
       <r>    0.0583    1.0000 </r>
       <r>    1.3017    1.0000 </r>
       <r>    1.3334    1.0000 </r>
       <r>    1.3685    1.0000 </r>
       <r>    1.4341    1.0000 </r>
       <r>    1.4441    1.0000 </r>
       <r>    1.4791    1.0000 </r>
       <r>    1.5195    1.0000 </r>
       <r>    1.5478    1.0000 </r>
       <r>    1.6430    1.0000 </r>
       <r>    1.8695    1.0000 </r>
       <r>    1.9823    1.0000 </r>
       <r>    2.0478    1.0000 </r>
       <r>    2.1940    1.0000 </r>
       <r>    2.4774    1.0000 </r>
       <r>    2.5932    1.0000 </r>
       <r>    2.8390    1.0000 </r>
       <r>    2.9624    1.0000 </r>
       <r>    3.1321    1.0000 </r>
       <r>    3.5684    1.0000 </r>
       <r>    3.7255    1.0000 </r>
       <r>    6.4364   -0.0000 </r>
       <r>    6.9558    0.0000 </r>
       <r>    8.1687    0.0000 </r>
       <r>    8.2458    0.0000 </r>
       <r>    8.8352    0.0000 </r>
       <r>    9.1263    0.0000 </r>
       <r>    9.4671    0.0000 </r>
       <r>    9.7939    0.0000 </r>
       <r>   10.0788    0.0000 </r>
       <r>   10.2976    0.0000 </r>
       <r>   10.7438    0.0000 </r>
       <r>   11.0801    0.0000 </r>
       <r>   11.2919    0.0000 </r>
       <r>   11.4274    0.0000 </r>
       <r>   11.6379    0.0000 </r>
       <r>   11.7192    0.0000 </r>
       <r>   12.0869    0.0000 </r>
       <r>   12.2636    0.0000 </r>
       <r>   12.5438    0.0000 </r>
       <r>   12.6583    0.0000 </r>
       <r>   12.9509    0.0000 </r>
       <r>   13.0617    0.0000 </r>
       <r>   13.6364    0.0000 </r>
       <r>   14.6886    0.0000 </r>
      </set>
      <set comment="kpoint 13">
       <r>  -68.6541    1.0000 </r>
       <r>  -68.6435    1.0000 </r>
       <r>  -68.6346    1.0000 </r>
       <r>  -68.6277    1.0000 </r>
       <r>  -68.6241    1.0000 </r>
       <r>  -68.6118    1.0000 </r>
       <r>  -68.6044    1.0000 </r>
       <r>  -68.5940    1.0000 </r>
       <r>  -68.5787    1.0000 </r>
       <r>  -68.5729    1.0000 </r>
       <r>  -68.5619    1.0000 </r>
       <r>  -68.5547    1.0000 </r>
       <r>  -12.3549    1.0000 </r>
       <r>  -11.4110    1.0000 </r>
       <r>  -10.9529    1.0000 </r>
       <r>  -10.6827    1.0000 </r>
       <r>  -10.4787    1.0000 </r>
       <r>  -10.3329    1.0000 </r>
       <r>   -5.7526    1.0000 </r>
       <r>   -4.7222    1.0000 </r>
       <r>   -2.5227    1.0000 </r>
       <r>   -2.1841    1.0000 </r>
       <r>   -1.9537    1.0000 </r>
       <r>   -1.5327    1.0000 </r>
       <r>   -1.3032    1.0000 </r>
       <r>   -1.0966    1.0000 </r>
       <r>   -0.8644    1.0000 </r>
       <r>   -0.7571    1.0000 </r>
       <r>   -0.5500    1.0000 </r>
       <r>   -0.4447    1.0000 </r>
       <r>   -0.2939    1.0000 </r>
       <r>   -0.1814    1.0000 </r>
       <r>   -0.1471    1.0000 </r>
       <r>   -0.1078    1.0000 </r>
       <r>   -0.0446    1.0000 </r>
       <r>    0.0192    1.0000 </r>
       <r>    1.2725    1.0000 </r>
       <r>    1.2969    1.0000 </r>
       <r>    1.3490    1.0000 </r>
       <r>    1.4286    1.0000 </r>
       <r>    1.4513    1.0000 </r>
       <r>    1.4803    1.0000 </r>
       <r>    1.5008    1.0000 </r>
       <r>    1.5882    1.0000 </r>
       <r>    1.7189    1.0000 </r>
       <r>    1.9294    1.0000 </r>
       <r>    2.0771    1.0000 </r>
       <r>    2.1452    1.0000 </r>
       <r>    2.2678    1.0000 </r>
       <r>    2.4043    1.0000 </r>
       <r>    2.5686    1.0000 </r>
       <r>    2.5969    1.0000 </r>
       <r>    2.8978    1.0000 </r>
       <r>    3.0107    1.0000 </r>
       <r>    3.3633    1.0000 </r>
       <r>    3.8986    1.0000 </r>
       <r>    6.3602   -0.0000 </r>
       <r>    6.8962   -0.0000 </r>
       <r>    7.5727    0.0000 </r>
       <r>    8.0838    0.0000 </r>
       <r>    8.5482    0.0000 </r>
       <r>    8.7981    0.0000 </r>
       <r>    9.2801    0.0000 </r>
       <r>    9.6254    0.0000 </r>
       <r>    9.9305    0.0000 </r>
       <r>   10.2710    0.0000 </r>
       <r>   10.6624    0.0000 </r>
       <r>   10.9266    0.0000 </r>
       <r>   10.9812    0.0000 </r>
       <r>   11.2800    0.0000 </r>
       <r>   11.5144    0.0000 </r>
       <r>   11.7868    0.0000 </r>
       <r>   12.2492    0.0000 </r>
       <r>   12.5436    0.0000 </r>
       <r>   13.1016    0.0000 </r>
       <r>   13.5142    0.0000 </r>
       <r>   14.3003    0.0000 </r>
       <r>   14.6649    0.0000 </r>
       <r>   15.1299    0.0000 </r>
       <r>   16.2659    0.0000 </r>
      </set>
      <set comment="kpoint 14">
       <r>  -68.6543    1.0000 </r>
       <r>  -68.6437    1.0000 </r>
       <r>  -68.6347    1.0000 </r>
       <r>  -68.6277    1.0000 </r>
       <r>  -68.6242    1.0000 </r>
       <r>  -68.6119    1.0000 </r>
       <r>  -68.6045    1.0000 </r>
       <r>  -68.5941    1.0000 </r>
       <r>  -68.5788    1.0000 </r>
       <r>  -68.5730    1.0000 </r>
       <r>  -68.5620    1.0000 </r>
       <r>  -68.5549    1.0000 </r>
       <r>  -12.5399    1.0000 </r>
       <r>  -11.3353    1.0000 </r>
       <r>  -10.8731    1.0000 </r>
       <r>  -10.6055    1.0000 </r>
       <r>  -10.3978    1.0000 </r>
       <r>  -10.2813    1.0000 </r>
       <r>   -5.8260    1.0000 </r>
       <r>   -4.9745    1.0000 </r>
       <r>   -2.6652    1.0000 </r>
       <r>   -2.4526    1.0000 </r>
       <r>   -2.0371    1.0000 </r>
       <r>   -1.5767    1.0000 </r>
       <r>   -1.1677    1.0000 </r>
       <r>   -0.9841    1.0000 </r>
       <r>   -0.7954    1.0000 </r>
       <r>   -0.6570    1.0000 </r>
       <r>   -0.5170    1.0000 </r>
       <r>   -0.3883    1.0000 </r>
       <r>   -0.2701    1.0000 </r>
       <r>   -0.2545    1.0000 </r>
       <r>   -0.1951    1.0000 </r>
       <r>   -0.1427    1.0000 </r>
       <r>   -0.0460    1.0000 </r>
       <r>    0.0092    1.0000 </r>
       <r>    1.2914    1.0000 </r>
       <r>    1.3091    1.0000 </r>
       <r>    1.3901    1.0000 </r>
       <r>    1.4063    1.0000 </r>
       <r>    1.4317    1.0000 </r>
       <r>    1.4541    1.0000 </r>
       <r>    1.4921    1.0000 </r>
       <r>    1.5638    1.0000 </r>
       <r>    1.6862    1.0000 </r>
       <r>    1.9157    1.0000 </r>
       <r>    1.9843    1.0000 </r>
       <r>    2.1469    1.0000 </r>
       <r>    2.3347    1.0000 </r>
       <r>    2.5655    1.0000 </r>
       <r>    2.6163    1.0000 </r>
       <r>    2.8303    1.0000 </r>
       <r>    2.9713    1.0000 </r>
       <r>    3.2495    1.0000 </r>
       <r>    3.6868    1.0000 </r>
       <r>    3.9445    1.0003 </r>
       <r>    6.1754   -0.0000 </r>
       <r>    6.6370   -0.0000 </r>
       <r>    7.7690    0.0000 </r>
       <r>    7.9720    0.0000 </r>
       <r>    8.2102    0.0000 </r>
       <r>    8.5592    0.0000 </r>
       <r>    9.3798    0.0000 </r>
       <r>    9.5763    0.0000 </r>
       <r>    9.9057    0.0000 </r>
       <r>   10.2508    0.0000 </r>
       <r>   10.5482    0.0000 </r>
       <r>   10.7855    0.0000 </r>
       <r>   10.8397    0.0000 </r>
       <r>   11.0661    0.0000 </r>
       <r>   11.5691    0.0000 </r>
       <r>   12.0224    0.0000 </r>
       <r>   12.5279    0.0000 </r>
       <r>   12.7531    0.0000 </r>
       <r>   12.9592    0.0000 </r>
       <r>   13.3061    0.0000 </r>
       <r>   13.4126    0.0000 </r>
       <r>   13.7433    0.0000 </r>
       <r>   13.8461    0.0000 </r>
       <r>   14.7242    0.0000 </r>
      </set>
      <set comment="kpoint 15">
       <r>  -68.6543    1.0000 </r>
       <r>  -68.6437    1.0000 </r>
       <r>  -68.6347    1.0000 </r>
       <r>  -68.6277    1.0000 </r>
       <r>  -68.6243    1.0000 </r>
       <r>  -68.6120    1.0000 </r>
       <r>  -68.6045    1.0000 </r>
       <r>  -68.5941    1.0000 </r>
       <r>  -68.5788    1.0000 </r>
       <r>  -68.5730    1.0000 </r>
       <r>  -68.5620    1.0000 </r>
       <r>  -68.5548    1.0000 </r>
       <r>  -12.4572    1.0000 </r>
       <r>  -11.4645    1.0000 </r>
       <r>  -10.8633    1.0000 </r>
       <r>  -10.6898    1.0000 </r>
       <r>  -10.3722    1.0000 </r>
       <r>  -10.2436    1.0000 </r>
       <r>   -5.7680    1.0000 </r>
       <r>   -4.8039    1.0000 </r>
       <r>   -2.4435    1.0000 </r>
       <r>   -2.2321    1.0000 </r>
       <r>   -1.8478    1.0000 </r>
       <r>   -1.7128    1.0000 </r>
       <r>   -1.4340    1.0000 </r>
       <r>   -1.1870    1.0000 </r>
       <r>   -0.8910    1.0000 </r>
       <r>   -0.7546    1.0000 </r>
       <r>   -0.6058    1.0000 </r>
       <r>   -0.5239    1.0000 </r>
       <r>   -0.3090    1.0000 </r>
       <r>   -0.2419    1.0000 </r>
       <r>   -0.1748    1.0000 </r>
       <r>   -0.1242    1.0000 </r>
       <r>   -0.0563    1.0000 </r>
       <r>    0.0613    1.0000 </r>
       <r>    1.3000    1.0000 </r>
       <r>    1.3361    1.0000 </r>
       <r>    1.3683    1.0000 </r>
       <r>    1.4301    1.0000 </r>
       <r>    1.4460    1.0000 </r>
       <r>    1.4765    1.0000 </r>
       <r>    1.5217    1.0000 </r>
       <r>    1.5468    1.0000 </r>
       <r>    1.6443    1.0000 </r>
       <r>    1.8759    1.0000 </r>
       <r>    1.9765    1.0000 </r>
       <r>    2.0492    1.0000 </r>
       <r>    2.1938    1.0000 </r>
       <r>    2.4765    1.0000 </r>
       <r>    2.5942    1.0000 </r>
       <r>    2.8376    1.0000 </r>
       <r>    2.9659    1.0000 </r>
       <r>    3.1312    1.0000 </r>
       <r>    3.5673    1.0000 </r>
       <r>    3.7259    1.0000 </r>
       <r>    6.4349   -0.0000 </r>
       <r>    6.9543    0.0000 </r>
       <r>    8.1663    0.0000 </r>
       <r>    8.2472    0.0000 </r>
       <r>    8.8351    0.0000 </r>
       <r>    9.1270    0.0000 </r>
       <r>    9.4623    0.0000 </r>
       <r>    9.7956    0.0000 </r>
       <r>   10.0858    0.0000 </r>
       <r>   10.2965    0.0000 </r>
       <r>   10.7441    0.0000 </r>
       <r>   11.0779    0.0000 </r>
       <r>   11.2887    0.0000 </r>
       <r>   11.4258    0.0000 </r>
       <r>   11.6323    0.0000 </r>
       <r>   11.7229    0.0000 </r>
       <r>   12.0892    0.0000 </r>
       <r>   12.2725    0.0000 </r>
       <r>   12.5452    0.0000 </r>
       <r>   12.6568    0.0000 </r>
       <r>   12.9585    0.0000 </r>
       <r>   13.0557    0.0000 </r>
       <r>   13.6594    0.0000 </r>
       <r>   14.6967    0.0000 </r>
      </set>
      <set comment="kpoint 16">
       <r>  -68.6542    1.0000 </r>
       <r>  -68.6436    1.0000 </r>
       <r>  -68.6345    1.0000 </r>
       <r>  -68.6276    1.0000 </r>
       <r>  -68.6241    1.0000 </r>
       <r>  -68.6118    1.0000 </r>
       <r>  -68.6044    1.0000 </r>
       <r>  -68.5940    1.0000 </r>
       <r>  -68.5787    1.0000 </r>
       <r>  -68.5728    1.0000 </r>
       <r>  -68.5619    1.0000 </r>
       <r>  -68.5547    1.0000 </r>
       <r>  -12.3256    1.0000 </r>
       <r>  -11.4722    1.0000 </r>
       <r>  -10.8633    1.0000 </r>
       <r>  -10.8564    1.0000 </r>
       <r>  -10.4073    1.0000 </r>
       <r>  -10.2846    1.0000 </r>
       <r>   -5.7487    1.0000 </r>
       <r>   -4.6917    1.0000 </r>
       <r>   -2.2411    1.0000 </r>
       <r>   -2.1375    1.0000 </r>
       <r>   -1.9281    1.0000 </r>
       <r>   -1.8478    1.0000 </r>
       <r>   -1.4546    1.0000 </r>
       <r>   -1.3970    1.0000 </r>
       <r>   -1.0366    1.0000 </r>
       <r>   -0.5234    1.0000 </r>
       <r>   -0.4626    1.0000 </r>
       <r>   -0.3491    1.0000 </r>
       <r>   -0.2539    1.0000 </r>
       <r>   -0.2160    1.0000 </r>
       <r>   -0.1635    1.0000 </r>
       <r>   -0.1130    1.0000 </r>
       <r>   -0.0890    1.0000 </r>
       <r>    0.0787    1.0000 </r>
       <r>    1.2609    1.0000 </r>
       <r>    1.3457    1.0000 </r>
       <r>    1.3988    1.0000 </r>
       <r>    1.4338    1.0000 </r>
       <r>    1.4522    1.0000 </r>
       <r>    1.5098    1.0000 </r>
       <r>    1.5324    1.0000 </r>
       <r>    1.5432    1.0000 </r>
       <r>    1.7536    1.0000 </r>
       <r>    1.8190    1.0000 </r>
       <r>    2.0409    1.0000 </r>
       <r>    2.1349    1.0000 </r>
       <r>    2.2831    1.0000 </r>
       <r>    2.3110    1.0000 </r>
       <r>    2.5214    1.0000 </r>
       <r>    2.7689    1.0000 </r>
       <r>    2.9013    1.0000 </r>
       <r>    3.2632    1.0000 </r>
       <r>    3.4947    1.0000 </r>
       <r>    3.8035    1.0000 </r>
       <r>    6.1776   -0.0000 </r>
       <r>    6.8394   -0.0000 </r>
       <r>    7.8243    0.0000 </r>
       <r>    8.0441    0.0000 </r>
       <r>    8.1895    0.0000 </r>
       <r>    8.7262    0.0000 </r>
       <r>    9.1547    0.0000 </r>
       <r>    9.3035    0.0000 </r>
       <r>   10.2188    0.0000 </r>
       <r>   10.4466    0.0000 </r>
       <r>   10.5897    0.0000 </r>
       <r>   11.0032    0.0000 </r>
       <r>   11.2449    0.0000 </r>
       <r>   11.4854    0.0000 </r>
       <r>   11.8152    0.0000 </r>
       <r>   12.1735    0.0000 </r>
       <r>   12.2044    0.0000 </r>
       <r>   12.5724    0.0000 </r>
       <r>   12.6887    0.0000 </r>
       <r>   13.1147    0.0000 </r>
       <r>   13.4130    0.0000 </r>
       <r>   13.8851    0.0000 </r>
       <r>   14.0064    0.0000 </r>
       <r>   14.5283    0.0000 </r>
      </set>
      <set comment="kpoint 17">
       <r>  -68.6540    1.0000 </r>
       <r>  -68.6434    1.0000 </r>
       <r>  -68.6346    1.0000 </r>
       <r>  -68.6277    1.0000 </r>
       <r>  -68.6241    1.0000 </r>
       <r>  -68.6118    1.0000 </r>
       <r>  -68.6045    1.0000 </r>
       <r>  -68.5940    1.0000 </r>
       <r>  -68.5787    1.0000 </r>
       <r>  -68.5729    1.0000 </r>
       <r>  -68.5618    1.0000 </r>
       <r>  -68.5547    1.0000 </r>
       <r>  -12.3724    1.0000 </r>
       <r>  -11.4706    1.0000 </r>
       <r>  -10.9369    1.0000 </r>
       <r>  -10.6534    1.0000 </r>
       <r>  -10.4174    1.0000 </r>
       <r>  -10.3035    1.0000 </r>
       <r>   -5.8016    1.0000 </r>
       <r>   -4.8368    1.0000 </r>
       <r>   -2.5264    1.0000 </r>
       <r>   -2.2465    1.0000 </r>
       <r>   -1.8722    1.0000 </r>
       <r>   -1.6420    1.0000 </r>
       <r>   -1.5033    1.0000 </r>
       <r>   -1.3023    1.0000 </r>
       <r>   -0.9006    1.0000 </r>
       <r>   -0.5345    1.0000 </r>
       <r>   -0.3787    1.0000 </r>
       <r>   -0.3494    1.0000 </r>
       <r>   -0.2249    1.0000 </r>
       <r>   -0.1816    1.0000 </r>
       <r>   -0.1635    1.0000 </r>
       <r>   -0.0780    1.0000 </r>
       <r>   -0.0276    1.0000 </r>
       <r>    0.0796    1.0000 </r>
       <r>    1.1896    1.0000 </r>
       <r>    1.3626    1.0000 </r>
       <r>    1.3968    1.0000 </r>
       <r>    1.4420    1.0000 </r>
       <r>    1.4626    1.0000 </r>
       <r>    1.5039    1.0000 </r>
       <r>    1.5175    1.0000 </r>
       <r>    1.5844    1.0000 </r>
       <r>    1.7374    1.0000 </r>
       <r>    1.8182    1.0000 </r>
       <r>    2.0388    1.0000 </r>
       <r>    2.2346    1.0000 </r>
       <r>    2.2702    1.0000 </r>
       <r>    2.3629    1.0000 </r>
       <r>    2.4856    1.0000 </r>
       <r>    2.6720    1.0000 </r>
       <r>    3.0532    1.0000 </r>
       <r>    3.4134    1.0000 </r>
       <r>    3.7307    1.0000 </r>
       <r>    3.8664    1.0000 </r>
       <r>    5.9274   -0.0000 </r>
       <r>    6.6118   -0.0000 </r>
       <r>    7.3544    0.0000 </r>
       <r>    7.9413    0.0000 </r>
       <r>    8.0628    0.0000 </r>
       <r>    8.7210    0.0000 </r>
       <r>    8.9075    0.0000 </r>
       <r>    9.1397    0.0000 </r>
       <r>    9.8449    0.0000 </r>
       <r>   10.3287    0.0000 </r>
       <r>   10.5507    0.0000 </r>
       <r>   10.9233    0.0000 </r>
       <r>   11.2306    0.0000 </r>
       <r>   11.4119    0.0000 </r>
       <r>   11.7542    0.0000 </r>
       <r>   12.0012    0.0000 </r>
       <r>   12.4952    0.0000 </r>
       <r>   12.8283    0.0000 </r>
       <r>   13.2029    0.0000 </r>
       <r>   14.1866    0.0000 </r>
       <r>   14.7116    0.0000 </r>
       <r>   15.1680    0.0000 </r>
       <r>   15.9161    0.0000 </r>
       <r>   16.5642    0.0000 </r>
      </set>
      <set comment="kpoint 18">
       <r>  -68.6543    1.0000 </r>
       <r>  -68.6436    1.0000 </r>
       <r>  -68.6347    1.0000 </r>
       <r>  -68.6278    1.0000 </r>
       <r>  -68.6242    1.0000 </r>
       <r>  -68.6119    1.0000 </r>
       <r>  -68.6045    1.0000 </r>
       <r>  -68.5942    1.0000 </r>
       <r>  -68.5788    1.0000 </r>
       <r>  -68.5729    1.0000 </r>
       <r>  -68.5619    1.0000 </r>
       <r>  -68.5548    1.0000 </r>
       <r>  -12.4985    1.0000 </r>
       <r>  -11.4231    1.0000 </r>
       <r>  -10.9479    1.0000 </r>
       <r>  -10.5811    1.0000 </r>
       <r>  -10.3730    1.0000 </r>
       <r>  -10.2066    1.0000 </r>
       <r>   -5.8299    1.0000 </r>
       <r>   -4.9405    1.0000 </r>
       <r>   -2.5725    1.0000 </r>
       <r>   -2.3646    1.0000 </r>
       <r>   -1.9176    1.0000 </r>
       <r>   -1.5934    1.0000 </r>
       <r>   -1.4148    1.0000 </r>
       <r>   -1.1216    1.0000 </r>
       <r>   -0.8150    1.0000 </r>
       <r>   -0.6768    1.0000 </r>
       <r>   -0.5344    1.0000 </r>
       <r>   -0.4702    1.0000 </r>
       <r>   -0.2544    1.0000 </r>
       <r>   -0.1948    1.0000 </r>
       <r>   -0.1675    1.0000 </r>
       <r>   -0.1248    1.0000 </r>
       <r>   -0.0344    1.0000 </r>
       <r>    0.0565    1.0000 </r>
       <r>    1.2807    1.0000 </r>
       <r>    1.3205    1.0000 </r>
       <r>    1.3429    1.0000 </r>
       <r>    1.4363    1.0000 </r>
       <r>    1.4507    1.0000 </r>
       <r>    1.4678    1.0000 </r>
       <r>    1.4929    1.0000 </r>
       <r>    1.5581    1.0000 </r>
       <r>    1.7254    1.0000 </r>
       <r>    1.8389    1.0000 </r>
       <r>    1.9724    1.0000 </r>
       <r>    2.0998    1.0000 </r>
       <r>    2.3356    1.0000 </r>
       <r>    2.4498    1.0000 </r>
       <r>    2.5420    1.0000 </r>
       <r>    2.8509    1.0000 </r>
       <r>    3.0511    1.0000 </r>
       <r>    3.2648    1.0000 </r>
       <r>    3.6736    1.0000 </r>
       <r>    3.7842    1.0000 </r>
       <r>    6.2561   -0.0000 </r>
       <r>    6.7976   -0.0000 </r>
       <r>    7.8146    0.0000 </r>
       <r>    8.1354    0.0000 </r>
       <r>    8.3360    0.0000 </r>
       <r>    8.9281    0.0000 </r>
       <r>    9.3363    0.0000 </r>
[...]
       <r>   11.7044    0.0000 </r>
       <r>   11.8939    0.0000 </r>
       <r>   12.3004    0.0000 </r>
       <r>   12.6558    0.0000 </r>
       <r>   13.0137    0.0000 </r>
       <r>   13.2256    0.0000 </r>
       <r>   13.6654    0.0000 </r>
       <r>   14.0624    0.0000 </r>
       <r>   14.3902    0.0000 </r>
       <r>   16.5185    0.0000 </r>
      </set>
      <set comment="kpoint 42">
       <r>  -68.6542    1.0000 </r>
       <r>  -68.6436    1.0000 </r>
       <r>  -68.6344    1.0000 </r>
       <r>  -68.6275    1.0000 </r>
       <r>  -68.6241    1.0000 </r>
       <r>  -68.6118    1.0000 </r>
       <r>  -68.6043    1.0000 </r>
       <r>  -68.5939    1.0000 </r>
       <r>  -68.5787    1.0000 </r>
       <r>  -68.5728    1.0000 </r>
       <r>  -68.5619    1.0000 </r>
       <r>  -68.5548    1.0000 </r>
       <r>  -12.1769    1.0000 </r>
       <r>  -11.7045    1.0000 </r>
       <r>  -10.7170    1.0000 </r>
       <r>  -10.6914    1.0000 </r>
       <r>  -10.5873    1.0000 </r>
       <r>  -10.3891    1.0000 </r>
       <r>   -5.4466    1.0000 </r>
       <r>   -5.0720    1.0000 </r>
       <r>   -2.5077    1.0000 </r>
       <r>   -2.3796    1.0000 </r>
       <r>   -1.9610    1.0000 </r>
       <r>   -1.3696    1.0000 </r>
       <r>   -1.3315    1.0000 </r>
       <r>   -1.0531    1.0000 </r>
       <r>   -0.8327    1.0000 </r>
       <r>   -0.7651    1.0000 </r>
       <r>   -0.4237    1.0000 </r>
       <r>   -0.3395    1.0000 </r>
       <r>   -0.2714    1.0000 </r>
       <r>   -0.2089    1.0000 </r>
       <r>   -0.1430    1.0000 </r>
       <r>   -0.1391    1.0000 </r>
       <r>   -0.0165    1.0000 </r>
       <r>    0.0250    1.0000 </r>
       <r>    1.1730    1.0000 </r>
       <r>    1.3701    1.0000 </r>
       <r>    1.3966    1.0000 </r>
       <r>    1.4511    1.0000 </r>
       <r>    1.4537    1.0000 </r>
       <r>    1.4993    1.0000 </r>
       <r>    1.5162    1.0000 </r>
       <r>    1.5460    1.0000 </r>
       <r>    1.7446    1.0000 </r>
       <r>    1.8213    1.0000 </r>
       <r>    1.9698    1.0000 </r>
       <r>    2.2273    1.0000 </r>
       <r>    2.3974    1.0000 </r>
       <r>    2.6137    1.0000 </r>
       <r>    2.6573    1.0000 </r>
       <r>    2.9154    1.0000 </r>
       <r>    3.0692    1.0000 </r>
       <r>    3.1170    1.0000 </r>
       <r>    3.2885    1.0000 </r>
       <r>    3.5852    1.0000 </r>
       <r>    6.2885   -0.0000 </r>
       <r>    6.3756   -0.0000 </r>
       <r>    7.3588    0.0000 </r>
       <r>    7.5200    0.0000 </r>
       <r>    8.3070    0.0000 </r>
       <r>    8.3361    0.0000 </r>
       <r>    9.1036    0.0000 </r>
       <r>    9.3608    0.0000 </r>
       <r>    9.7171    0.0000 </r>
       <r>    9.9459    0.0000 </r>
       <r>   10.5230    0.0000 </r>
       <r>   10.9900    0.0000 </r>
       <r>   11.4251    0.0000 </r>
       <r>   11.5638    0.0000 </r>
       <r>   12.0206    0.0000 </r>
       <r>   12.2884    0.0000 </r>
       <r>   12.4270    0.0000 </r>
       <r>   12.4767    0.0000 </r>
       <r>   13.0306    0.0000 </r>
       <r>   13.1490    0.0000 </r>
       <r>   14.1441    0.0000 </r>
       <r>   14.4343    0.0000 </r>
       <r>   15.1656    0.0000 </r>
       <r>   15.8619    0.0000 </r>
      </set>
     </set>
    </set>
   </array>
  </eigenvalues>
  <separator name="orbital magnetization" >
   <v name="MAGDIPOLOUT">      0.00000000      0.00000000      0.00000000</v>
  </separator>
  <dos>
   <i name="efermi">      4.22318719 </i>
   <total>
    <array>
     <dimension dim="1">gridpoints</dimension>
     <dimension dim="2">spin</dimension>
     <field>energy</field>
     <field>total</field>
     <field>integrated</field>
     <set>
      <set comment="spin 1">
       <r>   -72.8301     0.0000     0.0000 </r>
       <r>   -72.5238     0.0000     0.0000 </r>
       <r>   -72.2174     0.0000     0.0000 </r>
       <r>   -71.9110     0.0000     0.0000 </r>
       <r>   -71.6046     0.0000     0.0000 </r>
       <r>   -71.2982     0.0000     0.0000 </r>
       <r>   -70.9918     0.0000     0.0000 </r>
       <r>   -70.6855     0.0000     0.0000 </r>
       <r>   -70.3791     0.0000     0.0000 </r>
       <r>   -70.0727     0.0000     0.0000 </r>
       <r>   -69.7663     0.0000     0.0000 </r>
       <r>   -69.4599    -0.0000    -0.0000 </r>
       <r>   -69.1536    -0.0000    -0.0000 </r>
       <r>   -68.8472    -0.2339    -0.0717 </r>
       <r>   -68.5408    70.1693    21.4269 </r>
       <r>   -68.2344     8.3989    24.0001 </r>
       <r>   -67.9280    -0.0004    24.0000 </r>
       <r>   -67.6217     0.0000    24.0000 </r>
       <r>   -67.3153     0.0000    24.0000 </r>
       <r>   -67.0089     0.0000    24.0000 </r>
       <r>   -66.7025     0.0000    24.0000 </r>
       <r>   -66.3961     0.0000    24.0000 </r>
       <r>   -66.0898     0.0000    24.0000 </r>
       <r>   -65.7834     0.0000    24.0000 </r>
       <r>   -65.4770     0.0000    24.0000 </r>
       <r>   -65.1706     0.0000    24.0000 </r>
       <r>   -64.8642     0.0000    24.0000 </r>
       <r>   -64.5578     0.0000    24.0000 </r>
       <r>   -64.2515     0.0000    24.0000 </r>
       <r>   -63.9451     0.0000    24.0000 </r>
       <r>   -63.6387     0.0000    24.0000 </r>
       <r>   -63.3323     0.0000    24.0000 </r>
       <r>   -63.0259     0.0000    24.0000 </r>
       <r>   -62.7196     0.0000    24.0000 </r>
       <r>   -62.4132     0.0000    24.0000 </r>
       <r>   -62.1068     0.0000    24.0000 </r>
       <r>   -61.8004     0.0000    24.0000 </r>
       <r>   -61.4940     0.0000    24.0000 </r>
       <r>   -61.1877     0.0000    24.0000 </r>
       <r>   -60.8813     0.0000    24.0000 </r>
       <r>   -60.5749     0.0000    24.0000 </r>
       <r>   -60.2685     0.0000    24.0000 </r>
       <r>   -59.9621     0.0000    24.0000 </r>
       <r>   -59.6557     0.0000    24.0000 </r>
       <r>   -59.3494     0.0000    24.0000 </r>
       <r>   -59.0430     0.0000    24.0000 </r>
       <r>   -58.7366     0.0000    24.0000 </r>
       <r>   -58.4302     0.0000    24.0000 </r>
       <r>   -58.1238     0.0000    24.0000 </r>
       <r>   -57.8175     0.0000    24.0000 </r>
       <r>   -57.5111     0.0000    24.0000 </r>
       <r>   -57.2047     0.0000    24.0000 </r>
       <r>   -56.8983     0.0000    24.0000 </r>
       <r>   -56.5919     0.0000    24.0000 </r>
       <r>   -56.2856     0.0000    24.0000 </r>
       <r>   -55.9792     0.0000    24.0000 </r>
       <r>   -55.6728     0.0000    24.0000 </r>
       <r>   -55.3664     0.0000    24.0000 </r>
       <r>   -55.0600     0.0000    24.0000 </r>
       <r>   -54.7537     0.0000    24.0000 </r>
       <r>   -54.4473     0.0000    24.0000 </r>
       <r>   -54.1409     0.0000    24.0000 </r>
       <r>   -53.8345     0.0000    24.0000 </r>
       <r>   -53.5281     0.0000    24.0000 </r>
       <r>   -53.2217     0.0000    24.0000 </r>
       <r>   -52.9154     0.0000    24.0000 </r>
       <r>   -52.6090     0.0000    24.0000 </r>
       <r>   -52.3026     0.0000    24.0000 </r>
       <r>   -51.9962     0.0000    24.0000 </r>
       <r>   -51.6898     0.0000    24.0000 </r>
       <r>   -51.3835     0.0000    24.0000 </r>
       <r>   -51.0771     0.0000    24.0000 </r>
       <r>   -50.7707     0.0000    24.0000 </r>
       <r>   -50.4643     0.0000    24.0000 </r>
       <r>   -50.1579     0.0000    24.0000 </r>
       <r>   -49.8516     0.0000    24.0000 </r>
       <r>   -49.5452     0.0000    24.0000 </r>
       <r>   -49.2388     0.0000    24.0000 </r>
       <r>   -48.9324     0.0000    24.0000 </r>
       <r>   -48.6260     0.0000    24.0000 </r>
       <r>   -48.3197     0.0000    24.0000 </r>
       <r>   -48.0133     0.0000    24.0000 </r>
       <r>   -47.7069     0.0000    24.0000 </r>
       <r>   -47.4005     0.0000    24.0000 </r>
       <r>   -47.0941     0.0000    24.0000 </r>
       <r>   -46.7877     0.0000    24.0000 </r>
       <r>   -46.4814     0.0000    24.0000 </r>
       <r>   -46.1750     0.0000    24.0000 </r>
       <r>   -45.8686     0.0000    24.0000 </r>
       <r>   -45.5622     0.0000    24.0000 </r>
       <r>   -45.2558     0.0000    24.0000 </r>
       <r>   -44.9495     0.0000    24.0000 </r>
       <r>   -44.6431     0.0000    24.0000 </r>
       <r>   -44.3367     0.0000    24.0000 </r>
       <r>   -44.0303     0.0000    24.0000 </r>
       <r>   -43.7239     0.0000    24.0000 </r>
       <r>   -43.4176     0.0000    24.0000 </r>
       <r>   -43.1112     0.0000    24.0000 </r>
       <r>   -42.8048     0.0000    24.0000 </r>
       <r>   -42.4984     0.0000    24.0000 </r>
       <r>   -42.1920     0.0000    24.0000 </r>
       <r>   -41.8856     0.0000    24.0000 </r>
       <r>   -41.5793     0.0000    24.0000 </r>
       <r>   -41.2729     0.0000    24.0000 </r>
       <r>   -40.9665     0.0000    24.0000 </r>
       <r>   -40.6601     0.0000    24.0000 </r>
       <r>   -40.3537     0.0000    24.0000 </r>
       <r>   -40.0474     0.0000    24.0000 </r>
       <r>   -39.7410     0.0000    24.0000 </r>
       <r>   -39.4346     0.0000    24.0000 </r>
       <r>   -39.1282     0.0000    24.0000 </r>
       <r>   -38.8218     0.0000    24.0000 </r>
       <r>   -38.5155     0.0000    24.0000 </r>
       <r>   -38.2091     0.0000    24.0000 </r>
       <r>   -37.9027     0.0000    24.0000 </r>
       <r>   -37.5963     0.0000    24.0000 </r>
       <r>   -37.2899     0.0000    24.0000 </r>
       <r>   -36.9836     0.0000    24.0000 </r>
       <r>   -36.6772     0.0000    24.0000 </r>
       <r>   -36.3708     0.0000    24.0000 </r>
       <r>   -36.0644     0.0000    24.0000 </r>
       <r>   -35.7580     0.0000    24.0000 </r>
       <r>   -35.4516     0.0000    24.0000 </r>
       <r>   -35.1453     0.0000    24.0000 </r>
       <r>   -34.8389     0.0000    24.0000 </r>
       <r>   -34.5325     0.0000    24.0000 </r>
       <r>   -34.2261     0.0000    24.0000 </r>
       <r>   -33.9197     0.0000    24.0000 </r>
       <r>   -33.6134     0.0000    24.0000 </r>
       <r>   -33.3070     0.0000    24.0000 </r>
       <r>   -33.0006     0.0000    24.0000 </r>
       <r>   -32.6942     0.0000    24.0000 </r>
       <r>   -32.3878     0.0000    24.0000 </r>
       <r>   -32.0815     0.0000    24.0000 </r>
       <r>   -31.7751     0.0000    24.0000 </r>
       <r>   -31.4687     0.0000    24.0000 </r>
       <r>   -31.1623     0.0000    24.0000 </r>
       <r>   -30.8559     0.0000    24.0000 </r>
       <r>   -30.5496     0.0000    24.0000 </r>
       <r>   -30.2432     0.0000    24.0000 </r>
       <r>   -29.9368     0.0000    24.0000 </r>
       <r>   -29.6304     0.0000    24.0000 </r>
       <r>   -29.3240     0.0000    24.0000 </r>
       <r>   -29.0176     0.0000    24.0000 </r>
       <r>   -28.7113     0.0000    24.0000 </r>
       <r>   -28.4049     0.0000    24.0000 </r>
       <r>   -28.0985     0.0000    24.0000 </r>
       <r>   -27.7921     0.0000    24.0000 </r>
       <r>   -27.4857     0.0000    24.0000 </r>
       <r>   -27.1794     0.0000    24.0000 </r>
       <r>   -26.8730     0.0000    24.0000 </r>
       <r>   -26.5666     0.0000    24.0000 </r>
       <r>   -26.2602     0.0000    24.0000 </r>
       <r>   -25.9538     0.0000    24.0000 </r>
       <r>   -25.6475     0.0000    24.0000 </r>
       <r>   -25.3411     0.0000    24.0000 </r>
       <r>   -25.0347     0.0000    24.0000 </r>
       <r>   -24.7283     0.0000    24.0000 </r>
       <r>   -24.4219     0.0000    24.0000 </r>
       <r>   -24.1155     0.0000    24.0000 </r>
       <r>   -23.8092     0.0000    24.0000 </r>
       <r>   -23.5028     0.0000    24.0000 </r>
       <r>   -23.1964     0.0000    24.0000 </r>
       <r>   -22.8900     0.0000    24.0000 </r>
       <r>   -22.5836     0.0000    24.0000 </r>
       <r>   -22.2773     0.0000    24.0000 </r>
       <r>   -21.9709     0.0000    24.0000 </r>
       <r>   -21.6645     0.0000    24.0000 </r>
       <r>   -21.3581     0.0000    24.0000 </r>
       <r>   -21.0517     0.0000    24.0000 </r>
       <r>   -20.7454     0.0000    24.0000 </r>
       <r>   -20.4390     0.0000    24.0000 </r>
       <r>   -20.1326     0.0000    24.0000 </r>
       <r>   -19.8262     0.0000    24.0000 </r>
       <r>   -19.5198     0.0000    24.0000 </r>
       <r>   -19.2135     0.0000    24.0000 </r>
       <r>   -18.9071     0.0000    24.0000 </r>
       <r>   -18.6007     0.0000    24.0000 </r>
       <r>   -18.2943     0.0000    24.0000 </r>
       <r>   -17.9879     0.0000    24.0000 </r>
       <r>   -17.6815     0.0000    24.0000 </r>
       <r>   -17.3752     0.0000    24.0000 </r>
       <r>   -17.0688     0.0000    24.0000 </r>
       <r>   -16.7624     0.0000    24.0000 </r>
       <r>   -16.4560     0.0000    24.0000 </r>
       <r>   -16.1496     0.0000    24.0000 </r>
       <r>   -15.8433     0.0000    24.0000 </r>
       <r>   -15.5369     0.0000    24.0000 </r>
       <r>   -15.2305     0.0000    24.0000 </r>
       <r>   -14.9241     0.0000    24.0000 </r>
       <r>   -14.6177     0.0000    24.0000 </r>
       <r>   -14.3114     0.0000    24.0000 </r>
       <r>   -14.0050     0.0000    24.0000 </r>
       <r>   -13.6986    -0.0000    24.0000 </r>
       <r>   -13.3922    -0.0000    24.0000 </r>
       <r>   -13.0858    -0.0000    24.0000 </r>
       <r>   -12.7795    -0.0040    23.9988 </r>
       <r>   -12.4731     1.5327    24.4684 </r>
       <r>   -12.1667     3.5672    25.5613 </r>
       <r>   -11.8603     1.9094    26.1463 </r>
       <r>   -11.5539     2.1559    26.8068 </r>
       <r>   -11.2475     3.1872    27.7833 </r>
       <r>   -10.9412     2.5420    28.5622 </r>
       <r>   -10.6348     9.3036    31.4126 </r>
       <r>   -10.3284     9.3231    34.2690 </r>
       <r>   -10.0220     5.6685    36.0057 </r>
       <r>    -9.7156    -0.0187    36.0000 </r>
       <r>    -9.4093    -0.0000    36.0000 </r>
       <r>    -9.1029     0.0000    36.0000 </r>
       <r>    -8.7965     0.0000    36.0000 </r>
       <r>    -8.4901     0.0000    36.0000 </r>
       <r>    -8.1837     0.0000    36.0000 </r>
       <r>    -7.8774     0.0000    36.0000 </r>
       <r>    -7.5710     0.0000    36.0000 </r>
       <r>    -7.2646     0.0000    36.0000 </r>
       <r>    -6.9582    -0.0000    36.0000 </r>
       <r>    -6.6518    -0.0000    36.0000 </r>
       <r>    -6.3454    -0.0000    36.0000 </r>
       <r>    -6.0391     0.0609    36.0187 </r>
       <r>    -5.7327     3.5028    37.0919 </r>
       <r>    -5.4263     2.0457    37.7186 </r>
       <r>    -5.1199     1.8667    38.2905 </r>
       <r>    -4.8135     3.3035    39.3027 </r>
       <r>    -4.5072     2.2103    39.9799 </r>
       <r>    -4.2008     0.0657    40.0000 </r>
       <r>    -3.8944    -0.0000    40.0000 </r>
       <r>    -3.5880    -0.0000    40.0000 </r>
       <r>    -3.2816    -0.0000    40.0000 </r>
       <r>    -2.9753    -0.0004    39.9999 </r>
       <r>    -2.6689     0.3697    40.1132 </r>
       <r>    -2.3625     6.1435    41.9954 </r>
       <r>    -2.0561     6.6974    44.0474 </r>
       <r>    -1.7497     7.3484    46.2988 </r>
       <r>    -1.4434     6.4206    48.2659 </r>
       <r>    -1.1370     8.7225    50.9384 </r>
       <r>    -0.8306     9.1043    53.7278 </r>
       <r>    -0.5242    11.4219    57.2272 </r>
       <r>    -0.2178    18.1876    62.7995 </r>
       <r>     0.0886    28.9369    71.6653 </r>
       <r>     0.3949     1.0932    72.0002 </r>
       <r>     0.7013    -0.0007    72.0000 </r>
       <r>     1.0077    -0.0203    71.9938 </r>
       <r>     1.3141     7.5423    74.3046 </r>
       <r>     1.6205    44.7115    88.0033 </r>
       <r>     1.9268    13.7945    92.2297 </r>
       <r>     2.2332    13.1897    96.2708 </r>
       <r>     2.5396    12.8294   100.2015 </r>
       <r>     2.8460    11.1714   103.6242 </r>
       <r>     3.1524     9.0718   106.4036 </r>
       <r>     3.4587     7.9008   108.8243 </r>
       <r>     3.7651     6.9306   110.9477 </r>
       <r>     4.0715     3.1816   111.9225 </r>
       <r>     4.3779     0.2536   112.0002 </r>
       <r>     4.6843    -0.0006   112.0000 </r>
       <r>     4.9907    -0.0000   112.0000 </r>
       <r>     5.2970    -0.0002   111.9999 </r>
       <r>     5.6034     0.0783   112.0240 </r>
       <r>     5.9098     0.1851   112.0807 </r>
       <r>     6.2162     2.6739   112.8999 </r>
       <r>     6.5226     4.3900   114.2449 </r>
       <r>     6.8289     3.3865   115.2825 </r>
       <r>     7.1353     2.4101   116.0209 </r>
       <r>     7.4417     1.4286   116.4586 </r>
       <r>     7.7481     3.2017   117.4395 </r>
       <r>     8.0545     5.5685   119.1456 </r>
       <r>     8.3608     5.5642   120.8504 </r>
       <r>     8.6672     4.5659   122.2493 </r>
       <r>     8.9736     4.4649   123.6172 </r>
       <r>     9.2800     5.6222   125.3398 </r>
       <r>     9.5864     5.6919   127.0837 </r>
       <r>     9.8927     4.7844   128.5495 </r>
       <r>    10.1991     4.4529   129.9138 </r>
       <r>    10.5055     6.4901   131.9022 </r>
       <r>    10.8119     8.2668   134.4350 </r>
       <r>    11.1183     8.2400   136.9596 </r>
       <r>    11.4247     7.9838   139.4057 </r>
       <r>    11.7310     7.9153   141.8308 </r>
       <r>    12.0374     6.5561   143.8395 </r>
       <r>    12.3438     5.8862   145.6429 </r>
       <r>    12.6502     6.6609   147.6837 </r>
       <r>    12.9566     5.7550   149.4469 </r>
       <r>    13.2629     6.2146   151.3509 </r>
       <r>    13.5693     5.3345   152.9853 </r>
       <r>    13.8757     4.0639   154.2304 </r>
       <r>    14.1821     3.1629   155.1995 </r>
       <r>    14.4885     4.6431   156.6220 </r>
       <r>    14.7948     3.4713   157.6855 </r>
       <r>    15.1012     1.3850   158.1099 </r>
       <r>    15.4076     1.6311   158.6096 </r>
       <r>    15.7140     1.1988   158.9769 </r>
       <r>    16.0204     1.6815   159.4921 </r>
       <r>    16.3267     0.3309   159.5935 </r>
       <r>    16.6331     0.6840   159.8030 </r>
       <r>    16.9395     0.5275   159.9646 </r>
       <r>    17.2459     0.1154   160.0000 </r>
       <r>    17.5523    -0.0000   160.0000 </r>
       <r>    17.8587     0.0000   160.0000 </r>
       <r>    18.1650     0.0000   160.0000 </r>
       <r>    18.4714     0.0000   160.0000 </r>
       <r>    18.7778     0.0000   160.0000 </r>
       <r>    19.0842     0.0000   160.0000 </r>
      </set>
     </set>
    </array>
   </total>
  </dos>
 </calculation>
 <structure name="finalpos" >
  <crystal>
   <varray name="basis" >
    <v>       3.22479600      -5.64383000       0.03157200 </v>
    <v>       3.22479600       5.64383000       0.03157200 </v>
    <v>      -2.10194600       0.00000000       6.07553700 </v>
   </varray>
   <i name="volume">    221.90106089 </i>
   <varray name="rec_basis" >
    <v>       0.15452516      -0.08859232       0.05346088 </v>
    <v>       0.15452516       0.08859232       0.05346088 </v>
    <v>      -0.00160600       0.00000000       0.16403888 </v>
   </varray>
  </crystal>
  <varray name="positions" >
   <v>       0.61844300       0.12117100       0.11953300 </v>
   <v>       0.12117100       0.61844300       0.61953300 </v>
   <v>       0.96295700       0.79032200       0.11881300 </v>
   <v>       0.79032200       0.96295700       0.61881300 </v>
   <v>       0.43973200       0.26728100       0.59904700 </v>
   <v>       0.26728100       0.43973200       0.09904700 </v>
   <v>       0.07949800       0.91167500       0.49736300 </v>
   <v>       0.57140300       0.41236400       0.98018400 </v>
   <v>       0.73711100       0.25006200       0.49349352 </v>
   <v>       0.41236400       0.57140300       0.48018400 </v>
   <v>       0.91167500       0.07949800       0.99736300 </v>
   <v>       0.25006200       0.73711100       0.99504900 </v>
  </varray>
 </structure>
</modeling>
