<?xml version="1.0" encoding="ISO-8859-1"?>
<modeling>
 <generator>
  <i name="program" type="string">vasp </i>
  <i name="version" type="string">5.3.3  </i>
  <i name="subversion" type="string">18Dez12 (build Nov 13 2015 09:58:40) complex                          parallel </i>
  <i name="platform" type="string">LinuxIFC </i>
  <i name="date" type="string">2017 10 18 </i>
  <i name="time" type="string">09:27:34 </i>
 </generator>
 <incar>
  <i type="string" name="SYSTEM"> CGS</i>
  <i type="string" name="PREC">normal</i>
  <i type="string" name="ALGO"> D</i>
  <i type="logical" name="LDIAG"> T  </i>
  <i type="int" name="IBRION">     2</i>
  <i name="EDIFF">      0.00001000</i>
  <i type="int" name="NSW">   200</i>
  <i type="int" name="ISIF">     3</i>
  <i name="ENCUT">    400.00000000</i>
  <i name="TIME">      0.40000000</i>
  <i type="int" name="ISMEAR">     1</i>
  <i name="SIGMA">      0.10000000</i>
  <i type="logical" name="LHFCALC"> T  </i>
  <i type="string" name="GGA"> PE</i>
  <i name="HFSCREEN">      0.20000000</i>
  <i name="AEXX">      0.25000000</i>
  <i type="string" name="PRECFOCK">fast</i>
 </incar>
 <kpoints>
  <generation param="Gamma">
   <v type="int" name="divisions">       4        4        5 </v>
   <v name="usershift">      0.00000000       0.00000000       0.00000000 </v>
   <v name="genvec1">      0.25000000      -0.00000000       0.00000000 </v>
   <v name="genvec2">     -0.00000000       0.25000000       0.00000000 </v>
   <v name="genvec3">      0.00000000       0.00000000       0.20000000 </v>
   <v name="shift">      0.00000000       0.00000000       0.00000000 </v>
  </generation>
  <varray name="kpointlist" >
   <v>       0.00000000       0.00000000       0.00000000 </v>
   <v>       0.25000000       0.00000000       0.00000000 </v>
   <v>       0.50000000       0.00000000       0.00000000 </v>
   <v>       0.25000000       0.25000000       0.00000000 </v>
   <v>       0.50000000       0.25000000       0.00000000 </v>
   <v>      -0.25000000       0.25000000       0.00000000 </v>
   <v>       0.50000000       0.50000000       0.00000000 </v>
   <v>       0.00000000       0.00000000       0.20000000 </v>
   <v>       0.25000000      -0.00000000       0.20000000 </v>
   <v>       0.50000000      -0.00000000       0.20000000 </v>
   <v>      -0.25000000       0.00000000       0.20000000 </v>
   <v>       0.25000000       0.25000000       0.20000000 </v>
   <v>       0.50000000       0.25000000       0.20000000 </v>
   <v>      -0.25000000       0.25000000       0.20000000 </v>
   <v>       0.50000000       0.50000000       0.20000000 </v>
   <v>      -0.25000000       0.50000000       0.20000000 </v>
   <v>      -0.25000000      -0.25000000       0.20000000 </v>
   <v>       0.00000000       0.00000000       0.40000000 </v>
   <v>       0.25000000       0.00000000       0.40000000 </v>
   <v>       0.50000000      -0.00000000       0.40000000 </v>
   <v>      -0.25000000       0.00000000       0.40000000 </v>
   <v>       0.25000000       0.25000000       0.40000000 </v>
   <v>       0.50000000       0.25000000       0.40000000 </v>
   <v>      -0.25000000       0.25000000       0.40000000 </v>
   <v>       0.50000000       0.50000000       0.40000000 </v>
   <v>      -0.25000000       0.50000000       0.40000000 </v>
   <v>      -0.25000000      -0.25000000       0.40000000 </v>
  </varray>
  <varray name="weights" >
   <v>       0.01250000 </v>
   <v>       0.05000000 </v>
   <v>       0.02500000 </v>
   <v>       0.02500000 </v>
   <v>       0.05000000 </v>
   <v>       0.02500000 </v>
   <v>       0.01250000 </v>
   <v>       0.02500000 </v>
   <v>       0.05000000 </v>
   <v>       0.05000000 </v>
   <v>       0.05000000 </v>
   <v>       0.02500000 </v>
   <v>       0.05000000 </v>
   <v>       0.05000000 </v>
   <v>       0.02500000 </v>
   <v>       0.05000000 </v>
   <v>       0.02500000 </v>
   <v>       0.02500000 </v>
   <v>       0.05000000 </v>
   <v>       0.05000000 </v>
   <v>       0.05000000 </v>
   <v>       0.02500000 </v>
   <v>       0.05000000 </v>
   <v>       0.05000000 </v>
   <v>       0.02500000 </v>
   <v>       0.05000000 </v>
   <v>       0.02500000 </v>
  </varray>
 </kpoints>
 <parameters>
  <separator name="general" >
   <i type="string" name="SYSTEM">CGS</i>
   <i type="logical" name="LCOMPAT"> F  </i>
  </separator>
  <separator name="electronic" >
   <i type="string" name="PREC">normal</i>
   <i name="ENMAX">    400.00000000</i>
   <i name="ENAUG">    758.23300000</i>
   <i name="EDIFF">      0.00001000</i>
   <i type="int" name="IALGO">    53</i>
   <i type="int" name="IWAVPR">    11</i>
   <i type="int" name="NBANDS">    96</i>
   <i name="NELECT">    112.00000000</i>
   <i type="int" name="TURBO">     0</i>
   <i type="int" name="IRESTART">     0</i>
   <i type="int" name="NREBOOT">     0</i>
   <i type="int" name="NMIN">     0</i>
   <i name="EREF">      0.00000000</i>
   <separator name="electronic smearing" >
    <i type="int" name="ISMEAR">     1</i>
    <i name="SIGMA">      0.10000000</i>
    <i name="KSPACING">      0.50000000</i>
    <i type="logical" name="KGAMMA"> T  </i>
   </separator>
   <separator name="electronic projectors" >
    <i type="logical" name="LREAL"> F  </i>
    <v name="ROPT">      0.00000000      0.00000000      0.00000000</v>
    <i type="int" name="LMAXPAW">  -100</i>
    <i type="int" name="LMAXMIX">     2</i>
    <i type="logical" name="NLSPLINE"> F  </i>
   </separator>
   <separator name="electronic startup" >
    <i type="int" name="ISTART">     0</i>
    <i type="int" name="ICHARG">     2</i>
    <i type="int" name="INIWAV">     1</i>
   </separator>
   <separator name="electronic spin" >
    <i type="int" name="ISPIN">     1</i>
    <i type="logical" name="LNONCOLLINEAR"> F  </i>
    <v name="MAGMOM">      1.00000000      1.00000000      1.00000000      1.00000000      1.00000000      1.00000000      1.00000000      1.00000000      1.00000000      1.00000000      1.00000000      1.00000000</v>
    <i name="NUPDOWN">     -1.00000000</i>
    <i type="logical" name="LSORBIT"> F  </i>
    <v name="SAXIS">      0.00000000      0.00000000      1.00000000</v>
    <i type="logical" name="LSPIRAL"> F  </i>
    <v name="QSPIRAL">      0.00000000      0.00000000      0.00000000</v>
    <i type="logical" name="LZEROZ"> F  </i>
   </separator>
   <separator name="electronic exchange-correlation" >
    <i type="logical" name="LASPH"> F  </i>
    <i type="logical" name="LMETAGGA"> F  </i>
   </separator>
   <separator name="electronic convergence" >
    <i type="int" name="NELM">    60</i>
    <i type="int" name="NELMDL">    -5</i>
    <i type="int" name="NELMIN">     2</i>
    <i name="ENINI">    400.00000000</i>
    <separator name="electronic convergence detail" >
     <i type="logical" name="LDIAG"> T  </i>
     <i type="logical" name="LSUBROT"> T  </i>
     <i name="WEIMIN">      0.00100000</i>
     <i name="EBREAK">      0.00000003</i>
     <i name="DEPER">      0.30000000</i>
     <i type="int" name="NRMM">     4</i>
     <i name="TIME">      0.40000000</i>
    </separator>
   </separator>
   <separator name="electronic mixer" >
    <i name="AMIX">      0.40000000</i>
    <i name="BMIX">      1.00000000</i>
    <i name="AMIN">      0.10000000</i>
    <i name="AMIX_MAG">      1.60000000</i>
    <i name="BMIX_MAG">      1.00000000</i>
    <separator name="electronic mixer details" >
     <i type="int" name="IMIX">     4</i>
     <i type="int" name="MAXMIX">   -45</i>
     <i name="WC">    100.00000000</i>
     <i type="int" name="INIMIX">     1</i>
     <i type="int" name="MIXPRE">     1</i>
     <i type="int" name="MREMOVE">     5</i>
    </separator>
   </separator>
   <separator name="electronic dipolcorrection" >
    <i type="logical" name="LDIPOL"> F  </i>
    <i type="logical" name="LMONO"> F  </i>
    <i type="int" name="IDIPOL">     0</i>
    <i name="EPSILON">      1.00000000</i>
    <v name="DIPOL">   -100.00000000   -100.00000000   -100.00000000</v>
    <i name="EFIELD">      0.00000000</i>
   </separator>
  </separator>
  <separator name="grids" >
   <i type="int" name="NGX">    32</i>
   <i type="int" name="NGY">    32</i>
   <i type="int" name="NGZ">    32</i>
   <i type="int" name="NGXF">    64</i>
   <i type="int" name="NGYF">    64</i>
   <i type="int" name="NGZF">    64</i>
   <i type="logical" name="ADDGRID"> F  </i>
  </separator>
  <separator name="ionic" >
   <i type="int" name="NSW">   200</i>
   <i type="int" name="IBRION">     2</i>
   <i type="int" name="ISIF">     3</i>
   <i name="PSTRESS">      0.00000000</i>
   <i name="EDIFFG">      0.00010000</i>
   <i type="int" name="NFREE">     1</i>
   <i name="POTIM">      0.50000000</i>
   <i name="SMASS">     -3.00000000</i>
   <i name="SCALEE">      1.00000000</i>
  </separator>
  <separator name="ionic md" >
   <i name="TEBEG">      0.00010000</i>
   <i name="TEEND">      0.00010000</i>
   <i type="int" name="NBLOCK">     1</i>
   <i type="int" name="KBLOCK">   200</i>
   <i type="int" name="NPACO">   256</i>
   <i name="APACO">     16.00000000</i>
  </separator>
  <separator name="symmetry" >
   <i type="int" name="ISYM">     3</i>
   <i name="SYMPREC">      0.00001000</i>
  </separator>
  <separator name="dos" >
   <i type="logical" name="LORBIT"> F  </i>
   <v name="RWIGS">     -1.00000000     -1.00000000     -1.00000000</v>
   <i type="int" name="NEDOS">   301</i>
   <i name="EMIN">     10.00000000</i>
   <i name="EMAX">    -10.00000000</i>
   <i name="EFERMI">      0.00000000</i>
  </separator>
  <separator name="writing" >
   <i type="int" name="NWRITE">     2</i>
   <i type="logical" name="LWAVE"> T  </i>
   <i type="logical" name="LCHARG"> T  </i>
   <i type="logical" name="LPARD"> F  </i>
   <i type="logical" name="LVTOT"> F  </i>
   <i type="logical" name="LVHAR"> F  </i>
   <i type="logical" name="LELF"> F  </i>
   <i type="logical" name="LOPTICS"> F  </i>
   <v name="STM">      0.00000000      0.00000000      0.00000000      0.00000000      0.00000000      0.00000000      0.00000000</v>
  </separator>
  <separator name="performance" >
   <i type="int" name="NPAR">    32</i>
   <i type="int" name="NSIM">     4</i>
   <i type="int" name="NBLK">    -1</i>
   <i type="logical" name="LPLANE"> T  </i>
   <i type="logical" name="LSCALAPACK"> T  </i>
   <i type="logical" name="LSCAAWARE"> F  </i>
   <i type="logical" name="LSCALU"> F  </i>
   <i type="logical" name="LASYNC"> F  </i>
   <i type="logical" name="LORBITALREAL"> F  </i>
  </separator>
  <separator name="miscellaneous" >
   <i type="int" name="IDIOT">     3</i>
   <i type="logical" name="LMUSIC"> F  </i>
   <v name="POMASS">     63.54600000     72.61000000     32.06600000</v>
   <v name="DARWINR">      0.00000000      0.00000000      0.00000000</v>
   <v name="DARWINV">      1.00000000      1.00000000      1.00000000</v>
   <i type="logical" name="LCORR"> T  </i>
  </separator>
  <i type="logical" name="GGA_COMPAT"> T  </i>
  <i type="logical" name="LBERRY"> F  </i>
  <i type="int" name="ICORELEVEL">     0</i>
  <i type="logical" name="LDAU"> F  </i>
  <i type="int" name="I_CONSTRAINED_M">     0</i>
  <separator name="electronic exchange-correlation" >
   <i type="string" name="GGA">PE</i>
   <i type="int" name="VOSKOWN">     0</i>
   <i type="logical" name="LHFCALC"> T  </i>
   <i type="string" name="PRECFOCK">fast</i>
   <i type="logical" name="LSYMGRAD"> F  </i>
   <i type="logical" name="LHFONE"> F  </i>
   <i type="logical" name="LRHFCALC"> F  </i>
   <i type="logical" name="LTHOMAS"> F  </i>
   <i type="logical" name="LMODELHF"> F  </i>
   <i name="ENCUT4O">     -1.00000000</i>
   <i type="int" name="EXXOEP">     0</i>
   <i type="int" name="FOURORBIT">     0</i>
   <i name="AEXX">      0.25000000</i>
   <i name="HFALPHA">     -1.00000000</i>
   <i name="MCALPHA">      0.00000000</i>
   <i name="ALDAX">      0.75000000</i>
   <i name="AGGAX">      0.75000000</i>
   <i name="ALDAC">      1.00000000</i>
   <i name="AGGAC">      1.00000000</i>
   <i type="int" name="NKREDX">     1</i>
   <i type="int" name="NKREDY">     1</i>
   <i type="int" name="NKREDZ">     1</i>
   <i type="logical" name="SHIFTRED"> F  </i>
   <i type="logical" name="ODDONLY"> F  </i>
   <i type="logical" name="EVENONLY"> F  </i>
   <i type="int" name="LMAXFOCK">     4</i>
   <i type="int" name="NMAXFOCKAE">     1</i>
   <i type="logical" name="LFOCKAEDFT"> F  </i>
   <i name="HFSCREEN">      0.20000000</i>
   <i name="HFSCREENC">      0.20000000</i>
   <i type="int" name="NBANDSGWLOW">     1</i>
  </separator>
  <separator name="vdW DFT" >
   <i type="logical" name="LUSE_VDW"> F  </i>
   <i name="Zab_VDW">     -0.84910000</i>
   <i name="PARAM1">      0.12340000</i>
   <i name="PARAM2">      1.00000000</i>
   <i name="PARAM3">      0.00000000</i>
  </separator>
  <separator name="model GW" >
   <i type="int" name="MODEL_GW">     0</i>
   <i name="MODEL_EPS0">     11.10514132</i>
   <i name="MODEL_ALPHA">      1.00000000</i>
  </separator>
  <separator name="linear response parameters" >
   <i type="logical" name="LEPSILON"> F  </i>
   <i type="logical" name="LRPA"> F  </i>
   <i type="logical" name="LNABLA"> F  </i>
   <i type="logical" name="LVEL"> F  </i>
   <i type="int" name="KINTER">     0</i>
   <i name="CSHIFT">      0.10000000</i>
   <i name="OMEGAMAX">     -1.00000000</i>
   <i name="DEG_THRESHOLD">      0.00200000</i>
  </separator>
  <separator name="orbital magnetization" >
   <i type="logical" name="NUCIND"> F  </i>
   <v name="MAGPOS">      0.00000000      0.00000000      0.00000000</v>
   <i type="logical" name="LNICSALL"> T  </i>
   <i type="logical" name="ORBITALMAG"> F  </i>
   <i type="logical" name="LMAGBLOCH"> F  </i>
   <i type="logical" name="LCHIMAG"> F  </i>
   <i type="logical" name="LGAUGE"> T  </i>
   <i type="int" name="MAGATOM">     0</i>
   <v name="MAGDIPOL">      0.00000000      0.00000000      0.00000000</v>
   <v name="AVECCONST">      0.00000000      0.00000000      0.00000000</v>
  </separator>
  <separator name="response functions" >
   <i type="logical" name="LADDER"> F  </i>
   <i type="logical" name="LFXC"> F  </i>
   <i type="logical" name="LHARTREE"> T  </i>
   <i type="int" name="IBSE">     0</i>
   <i type="logical" name="LTCTE"> F  </i>
   <i type="logical" name="LTETE"> F  </i>
   <i type="logical" name="LTRIPLET"> F  </i>
   <i type="logical" name="LFXCEPS"> F  </i>
   <i type="logical" name="L2ORDER"> F  </i>
   <i type="logical" name="LUSEW"> F  </i>
   <i name="ENCUTGW">     -2.00000000</i>
   <i name="ENCUTGWSOFT">     -2.00000000</i>
   <i name="ENCUTLF">     -1.00000000</i>
   <i type="int" name="LMAXMP2">    -1</i>
   <i name="SCISSOR">      0.00000000</i>
   <i type="int" name="NOMEGA">     0</i>
   <i type="int" name="NOMEGAR">     0</i>
   <i type="int" name="NBANDSGW">    -1</i>
   <i type="int" name="NBANDSO">    -1</i>
   <i type="int" name="NBANDSV">    -1</i>
   <i type="int" name="NELM">     1</i>
   <i type="int" name="DIM">     3</i>
   <i type="int" name="ANTIRES">     0</i>
   <i name="OMEGAMAX">    -30.00000000</i>
   <i name="OMEGATL">   -200.00000000</i>
   <i type="int" name="OMEGAGRID">     0</i>
   <i name="CSHIFT">     -0.10000000</i>
   <i type="logical" name="SELFENERGY"> F  </i>
   <i type="logical" name="LSPECTRAL"> F  </i>
   <i type="logical" name="ODDONLYGW"> F  </i>
   <i type="logical" name="EVENONLYGW"> F  </i>
   <i type="int" name="NKREDLFX">     1</i>
   <i type="int" name="NKREDLFY">     1</i>
   <i type="int" name="NKREDLFZ">     1</i>
   <i type="int" name="MAXMEM">  1800</i>
   <i type="int" name="TELESCOPE">     0</i>
  </separator>
 </parameters>
 <atominfo>
  <atoms>      12 </atoms>
  <types>       3 </types>
  <array name="atoms" >
   <dimension dim="1">ion</dimension>
   <field type="string">element</field>
   <field type="int">atomtype</field>
   <set>
    <rc><c>Cu</c><c>   1</c></rc>
    <rc><c>Cu</c><c>   1</c></rc>
    <rc><c>Cu</c><c>   1</c></rc>
    <rc><c>Cu</c><c>   1</c></rc>
    <rc><c>Ge</c><c>   2</c></rc>
    <rc><c>Ge</c><c>   2</c></rc>
    <rc><c>S </c><c>   3</c></rc>
    <rc><c>S </c><c>   3</c></rc>
    <rc><c>S </c><c>   3</c></rc>
    <rc><c>S </c><c>   3</c></rc>
    <rc><c>S </c><c>   3</c></rc>
    <rc><c>S </c><c>   3</c></rc>
   </set>
  </array>
  <array name="atomtypes" >
   <dimension dim="1">type</dimension>
   <field type="int">atomspertype</field>
   <field type="string">element</field>
   <field>mass</field>
   <field>valence</field>
   <field type="string">pseudopotential</field>
   <set>
    <rc><c>   4</c><c>Cu</c><c>     63.54600000</c><c>     17.00000000</c><c>  PAW_PBE Cu_pv 06Sep2000               </c></rc>
    <rc><c>   2</c><c>Ge</c><c>     72.61000000</c><c>      4.00000000</c><c>  PAW_PBE Ge 05Jan2001                  </c></rc>
    <rc><c>   6</c><c>S </c><c>     32.06600000</c><c>      6.00000000</c><c>  PAW_PBE S 17Jan2003                   </c></rc>
   </set>
  </array>
 </atominfo>
 <structure name="initialpos" >
  <crystal>
   <varray name="basis" >
    <v>       3.22522100      -5.64521100       0.03155800 </v>
    <v>       3.22522100       5.64521100       0.03155800 </v>
    <v>      -2.10228100       0.00000000       6.07879200 </v>
   </varray>
   <i name="volume">    222.10282637 </i>
   <varray name="rec_basis" >
    <v>       0.15450530      -0.08857065       0.05343390 </v>
    <v>       0.15450530       0.08857065       0.05343390 </v>
    <v>      -0.00160423       0.00000000       0.16395157 </v>
   </varray>
  </crystal>
  <varray name="positions" >
   <v>       0.61843400       0.12118500       0.11950800 </v>
   <v>       0.12118500       0.61843400       0.61950800 </v>
   <v>       0.96292600       0.79029300       0.11878200 </v>
   <v>       0.79029300       0.96292600       0.61878200 </v>
   <v>       0.43971800       0.26713300       0.59895600 </v>
   <v>       0.26713300       0.43971800       0.09895600 </v>
   <v>       0.07953300       0.91170500       0.49740900 </v>
   <v>       0.57145900       0.41243200       0.98024200 </v>
   <v>       0.73710900       0.25009200       0.49509200 </v>
   <v>       0.41243200       0.57145900       0.48024200 </v>
   <v>       0.91170500       0.07953300       0.99740900 </v>
   <v>       0.25009200       0.73710900       0.99509200 </v>
  </varray>
 </structure>
 <calculation>
  <scstep>
   <time name="total">    4.03    4.12</time>
   <energy>
    <i name="alphaZ">    339.01104255 </i>
    <i name="ewald">  -9062.00412950 </i>
    <i name="hartreedc">  -8175.93740184 </i>
    <i name="XCdc">    371.30189085 </i>
    <i name="pawpsdc">  14804.78642045 </i>
    <i name="pawaedc"> -15275.59063170 </i>
    <i name="eentropy">     -0.00564290 </i>
    <i name="bandstr">   2905.85441065 </i>
    <i name="atom">  18320.98302006 </i>
    <i name="e_fr_energy">   4228.39897862 </i>
    <i name="e_wo_entrp">   4228.40462153 </i>
    <i name="e_0_energy">   4228.40085959 </i>
   </energy>
  </scstep>
  <scstep>
   <time name="total">    1.88    1.93</time>
   <energy>
    <i name="e_fr_energy">   1519.28690136 </i>
    <i name="e_wo_entrp">   1519.28497976 </i>
    <i name="e_0_energy">   1519.28626083 </i>
   </energy>
  </scstep>
  <scstep>
   <time name="total">    2.12    2.15</time>
   <energy>
    <i name="e_fr_energy">    546.95816080 </i>
    <i name="e_wo_entrp">    546.96277730 </i>
    <i name="e_0_energy">    546.95969963 </i>
   </energy>
  </scstep>
  <scstep>
   <time name="total">    2.56    2.63</time>
   <energy>
    <i name="e_fr_energy">    278.20534334 </i>
    <i name="e_wo_entrp">    278.20472523 </i>
    <i name="e_0_energy">    278.20513730 </i>
   </energy>
  </scstep>
  <scstep>
   <time name="total">    2.48    2.59</time>
   <energy>
    <i name="e_fr_energy">    247.52446112 </i>
    <i name="e_wo_entrp">    247.51614656 </i>
    <i name="e_0_energy">    247.52168960 </i>
   </energy>
  </scstep>
  <scstep>
   <time name="total">  123.29  124.21</time>
   <energy>
    <i name="e_fr_energy">    251.04892022 </i>
    <i name="e_wo_entrp">    251.04884774 </i>
    <i name="e_0_energy">    251.04889606 </i>
   </energy>
  </scstep>
  <scstep>
   <time name="total">  125.42  126.34</time>
   <energy>
    <i name="e_fr_energy">    212.64598198 </i>
    <i name="e_wo_entrp">    212.64596566 </i>
    <i name="e_0_energy">    212.64597654 </i>
   </energy>
  </scstep>
  <scstep>
   <time name="total">  123.85  124.74</time>
   <energy>
    <i name="e_fr_energy">     28.69018635 </i>
    <i name="e_wo_entrp">     28.68766403 </i>
    <i name="e_0_energy">     28.68934558 </i>
   </energy>
  </scstep>
  <scstep>
   <time name="total">  122.30  123.11</time>
   <energy>
    <i name="e_fr_energy">     -6.33714356 </i>
    <i name="e_wo_entrp">     -6.33721610 </i>
    <i name="e_0_energy">     -6.33716774 </i>
   </energy>
  </scstep>
  <scstep>
   <time name="total">  122.82  123.78</time>
   <energy>
    <i name="e_fr_energy">    -55.43617501 </i>
    <i name="e_wo_entrp">    -55.43624749 </i>
    <i name="e_0_energy">    -55.43619917 </i>
   </energy>
  </scstep>
  <scstep>
   <time name="total">  121.90  122.87</time>
   <energy>
    <i name="e_fr_energy">    -65.49301192 </i>
    <i name="e_wo_entrp">    -65.49308439 </i>
    <i name="e_0_energy">    -65.49303608 </i>
   </energy>
  </scstep>
  <scstep>
   <time name="total">  121.99  122.84</time>
   <energy>
    <i name="e_fr_energy">    -66.77037095 </i>
    <i name="e_wo_entrp">    -66.77044342 </i>
    <i name="e_0_energy">    -66.77039511 </i>
   </energy>
  </scstep>
  <scstep>
   <time name="total">  121.79  122.70</time>
   <energy>
    <i name="e_fr_energy">    -68.72827531 </i>
    <i name="e_wo_entrp">    -68.72834778 </i>
    <i name="e_0_energy">    -68.72829946 </i>
   </energy>
  </scstep>
  <scstep>
   <time name="total">  122.08  122.94</time>
   <energy>
    <i name="e_fr_energy">    -69.35279298 </i>
    <i name="e_wo_entrp">    -69.35286545 </i>
    <i name="e_0_energy">    -69.35281714 </i>
   </energy>
  </scstep>
  <scstep>
   <time name="total">  122.11  123.03</time>
   <energy>
    <i name="e_fr_energy">    -69.45045651 </i>
    <i name="e_wo_entrp">    -69.45052898 </i>
    <i name="e_0_energy">    -69.45048067 </i>
   </energy>
  </scstep>
  <scstep>
   <time name="total">  122.20  123.07</time>
   <energy>
    <i name="e_fr_energy">    -69.54340141 </i>
    <i name="e_wo_entrp">    -69.54347389 </i>
    <i name="e_0_energy">    -69.54342557 </i>
   </energy>
  </scstep>
  <scstep>
   <time name="total">  121.82  122.73</time>
   <energy>
    <i name="e_fr_energy">    -69.58050569 </i>
    <i name="e_wo_entrp">    -69.58057816 </i>
    <i name="e_0_energy">    -69.58052985 </i>
   </energy>
  </scstep>
  <scstep>
   <time name="total">  121.79  122.46</time>
   <energy>
    <i name="e_fr_energy">    -69.58851329 </i>
    <i name="e_wo_entrp">    -69.58858577 </i>
    <i name="e_0_energy">    -69.58853745 </i>
   </energy>
  </scstep>
  <scstep>
   <time name="total">  121.73  122.59</time>
   <energy>
    <i name="e_fr_energy">    -69.59345115 </i>
    <i name="e_wo_entrp">    -69.59352363 </i>
    <i name="e_0_energy">    -69.59347531 </i>
   </energy>
  </scstep>
  <scstep>
   <time name="total">  121.59  122.43</time>
   <energy>
    <i name="e_fr_energy">    -69.59523288 </i>
    <i name="e_wo_entrp">    -69.59530536 </i>
    <i name="e_0_energy">    -69.59525704 </i>
   </energy>
  </scstep>
  <scstep>
   <time name="total">  121.67  122.52</time>
   <energy>
    <i name="e_fr_energy">    -69.59573911 </i>
    <i name="e_wo_entrp">    -69.59581158 </i>
    <i name="e_0_energy">    -69.59576327 </i>
   </energy>
  </scstep>
  <scstep>
   <time name="total">  121.85  122.77</time>
   <energy>
    <i name="e_fr_energy">    -69.59603015 </i>
    <i name="e_wo_entrp">    -69.59610263 </i>
    <i name="e_0_energy">    -69.59605431 </i>
   </energy>
  </scstep>
  <scstep>
   <time name="total">  121.96  122.84</time>
   <energy>
    <i name="e_fr_energy">    -69.59616820 </i>
    <i name="e_wo_entrp">    -69.59624068 </i>
    <i name="e_0_energy">    -69.59619236 </i>
   </energy>
  </scstep>
  <scstep>
   <time name="total">  121.82  122.67</time>
   <energy>
    <i name="e_fr_energy">    -69.59619371 </i>
    <i name="e_wo_entrp">    -69.59626619 </i>
    <i name="e_0_energy">    -69.59621787 </i>
   </energy>
  </scstep>
  <scstep>
   <time name="total">  121.51  122.37</time>
   <energy>
    <i name="e_fr_energy">    -69.59620345 </i>
    <i name="e_wo_entrp">    -69.59627593 </i>
    <i name="e_0_energy">    -69.59622761 </i>
   </energy>
  </scstep>
  <scstep>
   <time name="total">  120.92  121.79</time>
   <energy>
    <i name="alphaZ">    339.01104255 </i>
    <i name="ewald">  -9062.00412950 </i>
    <i name="hartreedc">  -8150.96326016 </i>
    <i name="XCdc">    372.04924370 </i>
    <i name="pawpsdc">  15917.58191457 </i>
    <i name="pawaedc"> -16402.72023447 </i>
    <i name="eentropy">      0.00007247 </i>
    <i name="bandstr">  -1743.58446671 </i>
    <i name="atom">  18320.98302006 </i>
    <i name="e_fr_energy">    -69.59621189 </i>
    <i name="e_wo_entrp">    -69.59628437 </i>
    <i name="e_0_energy">    -69.59623605 </i>
   </energy>
  </scstep>
  <structure>
   <crystal>
    <varray name="basis" >
     <v>       3.22522100      -5.64521100       0.03155800 </v>
     <v>       3.22522100       5.64521100       0.03155800 </v>
     <v>      -2.10228100       0.00000000       6.07879200 </v>
    </varray>
    <i name="volume">    222.10282637 </i>
    <varray name="rec_basis" >
     <v>       0.15450530      -0.08857065       0.05343390 </v>
     <v>       0.15450530       0.08857065       0.05343390 </v>
     <v>      -0.00160423       0.00000000       0.16395157 </v>
    </varray>
   </crystal>
   <varray name="positions" >
    <v>       0.61843400       0.12118500       0.11950800 </v>
    <v>       0.12118500       0.61843400       0.61950800 </v>
    <v>       0.96292600       0.79029300       0.11878200 </v>
    <v>       0.79029300       0.96292600       0.61878200 </v>
    <v>       0.43971800       0.26713300       0.59895600 </v>
    <v>       0.26713300       0.43971800       0.09895600 </v>
    <v>       0.07953300       0.91170500       0.49740900 </v>
    <v>       0.57145900       0.41243200       0.98024200 </v>
    <v>       0.73710900       0.25009200       0.49509200 </v>
    <v>       0.41243200       0.57145900       0.48024200 </v>
    <v>       0.91170500       0.07953300       0.99740900 </v>
    <v>       0.25009200       0.73710900       0.99509200 </v>
   </varray>
  </structure>
  <varray name="forces" >
   <v>      -0.00185869      -0.00350601       0.00408809 </v>
   <v>      -0.00185869       0.00350601       0.00408809 </v>
   <v>       0.00347443      -0.00026223       0.00507196 </v>
   <v>       0.00347443       0.00026223       0.00507196 </v>
   <v>       0.00884238       0.02006643       0.01491263 </v>
   <v>       0.00884238      -0.02006643       0.01491263 </v>
   <v>      -0.00300121       0.00070883      -0.00752971 </v>
   <v>      -0.00743779      -0.00182449      -0.00948399 </v>
   <v>      -0.00001912      -0.00476321      -0.00705897 </v>
   <v>      -0.00743779       0.00182449      -0.00948399 </v>
   <v>      -0.00300121      -0.00070883      -0.00752971 </v>
   <v>      -0.00001912       0.00476321      -0.00705897 </v>
  </varray>
  <varray name="stress" >
   <v>      -0.30364439       0.00000000       0.02210584 </v>
   <v>       0.00000000      -0.56384819       0.00000000 </v>
   <v>       0.02210600       0.00000000      -1.22682532 </v>
  </varray>
  <energy>
   <i name="e_fr_energy">    -69.59621189 </i>
   <i name="e_wo_entrp">    -69.59623605 </i>
   <i name="e_0_energy">      0.00007247 </i>
  </energy>
  <time name="totalsc"> 3102.63 3127.77</time>
 </calculation>
 <calculation>
  <scstep>
   <time name="total">  121.54  122.36</time>
   <energy>
    <i name="alphaZ">    339.40705988 </i>
    <i name="ewald">  -9065.39937115 </i>
    <i name="hartreedc">  -8155.41995107 </i>
    <i name="XCdc">    372.23848999 </i>
    <i name="pawpsdc">  15933.79064060 </i>
    <i name="pawaedc"> -16420.19077587 </i>
    <i name="eentropy">      0.00007247 </i>
    <i name="bandstr">  -1735.18810205 </i>
    <i name="atom">  18320.98302006 </i>
    <i name="e_fr_energy">    -69.59130743 </i>
    <i name="e_wo_entrp">    -69.59137990 </i>
    <i name="e_0_energy">    -69.59133159 </i>
   </energy>
  </scstep>
  <scstep>
   <time name="total">  122.37  123.24</time>
   <energy>
    <i name="e_fr_energy">    -69.59079791 </i>
    <i name="e_wo_entrp">    -69.59087039 </i>
    <i name="e_0_energy">    -69.59082207 </i>
   </energy>
  </scstep>
  <scstep>
   <time name="total">  122.05  122.82</time>
   <energy>
    <i name="e_fr_energy">    -69.59423154 </i>
    <i name="e_wo_entrp">    -69.59430401 </i>
    <i name="e_0_energy">    -69.59425569 </i>
   </energy>
  </scstep>
  <scstep>
   <time name="total">  122.13  123.02</time>
   <energy>
    <i name="e_fr_energy">    -69.59573149 </i>
    <i name="e_wo_entrp">    -69.59580396 </i>
    <i name="e_0_energy">    -69.59575565 </i>
   </energy>
  </scstep>
  <scstep>
   <time name="total">  121.34  122.18</time>
   <energy>
    <i name="e_fr_energy">    -69.59618278 </i>
    <i name="e_wo_entrp">    -69.59625525 </i>
    <i name="e_0_energy">    -69.59620694 </i>
   </energy>
  </scstep>
  <scstep>
   <time name="total">  122.41  123.27</time>
   <energy>
    <i name="e_fr_energy">    -69.59622137 </i>
    <i name="e_wo_entrp">    -69.59629384 </i>
    <i name="e_0_energy">    -69.59624553 </i>
   </energy>
  </scstep>
  <scstep>
   <time name="total">  122.30  123.15</time>
   <energy>
    <i name="e_fr_energy">    -69.59625572 </i>
    <i name="e_wo_entrp">    -69.59632820 </i>
    <i name="e_0_energy">    -69.59627988 </i>
   </energy>
  </scstep>
  <scstep>
   <time name="total">  120.89  121.85</time>
   <energy>
    <i name="e_fr_energy">    -69.59629194 </i>
    <i name="e_wo_entrp">    -69.59636441 </i>
    <i name="e_0_energy">    -69.59631610 </i>
   </energy>
  </scstep>
  <scstep>
   <time name="total">  121.11  121.99</time>
   <energy>
    <i name="e_fr_energy">    -69.59629411 </i>
    <i name="e_wo_entrp">    -69.59636658 </i>
    <i name="e_0_energy">    -69.59631827 </i>
   </energy>
  </scstep>
  <scstep>
   <time name="total">  120.96  121.81</time>
   <energy>
    <i name="alphaZ">    339.40705988 </i>
    <i name="ewald">  -9065.39937115 </i>
    <i name="hartreedc">  -8148.79499592 </i>
    <i name="XCdc">    372.06811245 </i>
    <i name="pawpsdc">  15921.51097909 </i>
    <i name="pawaedc"> -16406.69120274 </i>
    <i name="eentropy">      0.00007247 </i>
    <i name="bandstr">  -1742.74532092 </i>
    <i name="atom">  18320.98302006 </i>
    <i name="e_fr_energy">    -69.59629634 </i>
    <i name="e_wo_entrp">    -69.59636882 </i>
    <i name="e_0_energy">    -69.59632050 </i>
   </energy>
  </scstep>
  <structure>
   <crystal>
    <varray name="basis" >
     <v>       3.22467561      -5.64343707       0.03157616 </v>
     <v>       3.22467561       5.64343707       0.03157616 </v>
     <v>      -2.10185036       0.00000000       6.07460993 </v>
    </varray>
    <i name="volume">    221.84367864 </i>
    <varray name="rec_basis" >
     <v>       0.15453079      -0.08859849       0.05346855 </v>
     <v>       0.15453079       0.08859849       0.05346855 </v>
     <v>      -0.00160652       0.00000000       0.16406376 </v>
    </varray>
   </crystal>
   <varray name="positions" >
    <v>       0.61844566       0.12116670       0.11954048 </v>
    <v>       0.12116670       0.61844566       0.61954048 </v>
    <v>       0.96296609       0.79033085       0.11882185 </v>
    <v>       0.79033085       0.96296609       0.61882185 </v>
    <v>       0.43973661       0.26732309       0.59907327 </v>
    <v>       0.26732309       0.43973661       0.09907327 </v>
    <v>       0.07948819       0.91166625       0.49734968 </v>
    <v>       0.57138691       0.41234432       0.98016756 </v>
    <v>       0.73711101       0.25005331       0.49503617 </v>
    <v>       0.41234432       0.57138691       0.48016756 </v>
    <v>       0.91166625       0.07948819       0.99734968 </v>
    <v>       0.25005331       0.73711101       0.99503617 </v>
   </varray>
  </structure>
  <varray name="forces" >
   <v>      -0.00082920      -0.00293676      -0.00134685 </v>
   <v>      -0.00082920       0.00293676      -0.00134685 </v>
   <v>      -0.00124487      -0.00169288      -0.00079005 </v>
   <v>      -0.00124487       0.00169288      -0.00079005 </v>
   <v>      -0.00158313       0.00314071      -0.00133686 </v>
   <v>      -0.00158313      -0.00314071      -0.00133686 </v>
   <v>       0.00339589       0.00043451      -0.00056477 </v>
   <v>       0.00246266      -0.00781157       0.00320569 </v>
   <v>      -0.00220135       0.00453274       0.00083285 </v>
   <v>       0.00246266       0.00781157       0.00320569 </v>
   <v>       0.00339589      -0.00043451      -0.00056477 </v>
   <v>      -0.00220135      -0.00453274       0.00083285 </v>
  </varray>
  <varray name="stress" >
   <v>       0.10215530       0.00000000      -0.06806655 </v>
   <v>       0.00000000       0.26492581       0.00000000 </v>
   <v>      -0.06806584       0.00000000       0.56273385 </v>
  </varray>
  <energy>
   <i name="e_fr_energy">    -69.59629634 </i>
   <i name="e_wo_entrp">    -69.59632050 </i>
   <i name="e_0_energy">      0.00007247 </i>
  </energy>
  <time name="totalsc"> 1738.04 1752.99</time>
 </calculation>
 <calculation>
  <scstep>
   <time name="total">  121.92  122.70</time>
   <energy>
    <i name="alphaZ">    339.31924460 </i>
    <i name="ewald">  -9064.64700543 </i>
    <i name="hartreedc">  -8147.90086057 </i>
    <i name="XCdc">    372.02835934 </i>
    <i name="pawpsdc">  15918.19380014 </i>
    <i name="pawaedc"> -16403.10655093 </i>
    <i name="eentropy">      0.00007247 </i>
    <i name="bandstr">  -1744.50281652 </i>
    <i name="atom">  18320.98302006 </i>
    <i name="e_fr_energy">    -69.59605672 </i>
    <i name="e_wo_entrp">    -69.59612920 </i>
    <i name="e_0_energy">    -69.59608088 </i>
   </energy>
  </scstep>
  <scstep>
   <time name="total">  122.12  122.98</time>
   <energy>
    <i name="e_fr_energy">    -69.59613497 </i>
    <i name="e_wo_entrp">    -69.59620744 </i>
    <i name="e_0_energy">    -69.59615912 </i>
   </energy>
  </scstep>
  <scstep>
   <time name="total">  122.91  123.76</time>
   <energy>
    <i name="e_fr_energy">    -69.59623694 </i>
    <i name="e_wo_entrp">    -69.59630941 </i>
    <i name="e_0_energy">    -69.59626110 </i>
   </energy>
  </scstep>
  <scstep>
   <time name="total">  122.07  122.91</time>
   <energy>
    <i name="e_fr_energy">    -69.59628956 </i>
    <i name="e_wo_entrp">    -69.59636203 </i>
    <i name="e_0_energy">    -69.59631372 </i>
   </energy>
  </scstep>
  <scstep>
   <time name="total">  121.74  122.59</time>
   <energy>
    <i name="e_fr_energy">    -69.59629917 </i>
    <i name="e_wo_entrp">    -69.59637165 </i>
    <i name="e_0_energy">    -69.59632333 </i>
   </energy>
  </scstep>
  <scstep>
   <time name="total">  121.95  122.80</time>
   <energy>
    <i name="e_fr_energy">    -69.59630241 </i>
    <i name="e_wo_entrp">    -69.59637488 </i>
    <i name="e_0_energy">    -69.59632657 </i>
   </energy>
  </scstep>
  <scstep>
   <time name="total">  121.55  122.40</time>
   <energy>
    <i name="alphaZ">    339.31924460 </i>
    <i name="ewald">  -9064.64700543 </i>
    <i name="hartreedc">  -8149.36713866 </i>
    <i name="XCdc">    372.06575390 </i>
    <i name="pawpsdc">  15920.82616694 </i>
    <i name="pawaedc"> -16406.00757181 </i>
    <i name="eentropy">      0.00007247 </i>
    <i name="bandstr">  -1742.83222823 </i>
    <i name="atom">  18320.98302006 </i>
    <i name="e_fr_energy">    -69.59630551 </i>
    <i name="e_wo_entrp">    -69.59637798 </i>
    <i name="e_0_energy">    -69.59632967 </i>
   </energy>
  </scstep>
  <structure>
   <crystal>
    <varray name="basis" >
     <v>       3.22479647      -5.64383018       0.03157213 </v>
     <v>       3.22479647       5.64383018       0.03157213 </v>
     <v>      -2.10194579       0.00000000       6.07553668 </v>
    </varray>
    <i name="volume">    221.90109143 </i>
    <varray name="rec_basis" >
     <v>       0.15452514      -0.08859232       0.05346087 </v>
     <v>       0.15452514       0.08859232       0.05346087 </v>
     <v>      -0.00160601       0.00000000       0.16403888 </v>
    </varray>
   </crystal>
   <varray name="positions" >
    <v>       0.61844308       0.12117076       0.11953328 </v>
    <v>       0.12117076       0.61844308       0.61953328 </v>
    <v>       0.96295720       0.79032246       0.11881301 </v>
    <v>       0.79032246       0.96295720       0.61881301 </v>
    <v>       0.43973248       0.26728095       0.59904726 </v>
    <v>       0.26728095       0.43973248       0.09904726 </v>
    <v>       0.07949812       0.91167484       0.49736283 </v>
    <v>       0.57140289       0.41236375       0.98018407 </v>
    <v>       0.73711057       0.25006189       0.49504855 </v>
    <v>       0.41236375       0.57140289       0.48018407 </v>
    <v>       0.91167484       0.07949812       0.99736283 </v>
    <v>       0.25006189       0.73711057       0.99504855 </v>
   </varray>
  </structure>
  <varray name="forces" >
   <v>       0.00013728       0.00022950      -0.00181969 </v>
   <v>       0.00013728      -0.00022950      -0.00181969 </v>
   <v>      -0.00188714      -0.00145673      -0.00191886 </v>
   <v>      -0.00188714       0.00145673      -0.00191886 </v>
   <v>       0.00085302       0.00701320       0.00342847 </v>
   <v>       0.00085302      -0.00701320       0.00342847 </v>
   <v>       0.00168656       0.00068502      -0.00124524 </v>
   <v>       0.00047472      -0.00658240       0.00166164 </v>
   <v>      -0.00126444       0.00193135      -0.00010631 </v>
   <v>       0.00047472       0.00658240       0.00166164 </v>
   <v>       0.00168656      -0.00068502      -0.00124524 </v>
   <v>      -0.00126444      -0.00193135      -0.00010631 </v>
  </varray>
  <varray name="stress" >
   <v>       0.19394674       0.00000000      -0.04828827 </v>
   <v>       0.00000000       0.25762735       0.00000000 </v>
   <v>      -0.04828793       0.00000000       0.31551743 </v>
  </varray>
  <energy>
   <i name="e_fr_energy">    -69.59630551 </i>
   <i name="e_wo_entrp">    -69.59632967 </i>
   <i name="e_0_energy">      0.00007247 </i>
  </energy>
  <time name="totalsc"> 1362.34 1372.92</time>
  <eigenvalues>
   <array>
    <dimension dim="1">band</dimension>
    <dimension dim="2">kpoint</dimension>
    <dimension dim="3">spin</dimension>
    <field>eigene</field>
    <field>occ</field>
    <set>
     <set comment="spin 1">
      <set comment="kpoint 1">
       <r>  -68.6475    1.0000 </r>
       <r>  -68.6474    1.0000 </r>
       <r>  -68.6350    1.0000 </r>
       <r>  -68.6350    1.0000 </r>
       <r>  -68.6158    1.0000 </r>
       <r>  -68.6156    1.0000 </r>
       <r>  -68.5986    1.0000 </r>
       <r>  -68.5985    1.0000 </r>
       <r>  -68.5788    1.0000 </r>
       <r>  -68.5787    1.0000 </r>
       <r>  -68.5620    1.0000 </r>
       <r>  -68.5619    1.0000 </r>
       <r>  -12.7210    1.0000 </r>
       <r>  -11.1302    1.0000 </r>
       <r>  -10.9169    1.0000 </r>
       <r>  -10.6032    1.0000 </r>
       <r>  -10.2511    1.0000 </r>
       <r>  -10.2352    1.0000 </r>
       <r>   -5.9848    1.0000 </r>
       <r>   -4.9837    1.0000 </r>
       <r>   -2.7607    1.0000 </r>
       <r>   -2.2098    1.0000 </r>
       <r>   -2.0700    1.0000 </r>
       <r>   -1.9224    1.0000 </r>
       <r>   -1.5769    1.0000 </r>
       <r>   -0.9837    1.0000 </r>
       <r>   -0.9515    1.0000 </r>
       <r>   -0.6838    1.0000 </r>
       <r>   -0.4018    1.0000 </r>
       <r>   -0.2769    1.0000 </r>
       <r>   -0.2617    1.0000 </r>
       <r>   -0.2358    1.0000 </r>
       <r>   -0.1902    1.0000 </r>
       <r>   -0.1562    1.0000 </r>
       <r>   -0.0410    1.0000 </r>
       <r>    0.0312    1.0000 </r>
       <r>    1.3486    1.0000 </r>
       <r>    1.3611    1.0000 </r>
       <r>    1.4127    1.0000 </r>
       <r>    1.4561    1.0000 </r>
       <r>    1.4700    1.0000 </r>
       <r>    1.4725    1.0000 </r>
       <r>    1.5190    1.0000 </r>
       <r>    1.5312    1.0000 </r>
       <r>    1.5731    1.0000 </r>
       <r>    1.7104    1.0000 </r>
       <r>    1.8912    1.0000 </r>
       <r>    1.9267    1.0000 </r>
       <r>    2.0578    1.0000 </r>
       <r>    2.6504    1.0000 </r>
       <r>    2.7283    1.0000 </r>
       <r>    3.0907    1.0000 </r>
       <r>    3.2164    1.0000 </r>
       <r>    4.0055    1.0000 </r>
       <r>    4.0372    1.0000 </r>
       <r>    4.1702    1.0000 </r>
       <r>    5.5379    0.0000 </r>
       <r>    6.3579   -0.0000 </r>
       <r>    7.6300   -0.0000 </r>
       <r>    7.9864   -0.0000 </r>
       <r>    8.6173    0.0000 </r>
       <r>    8.7918    0.0000 </r>
       <r>    9.5723    0.0000 </r>
       <r>    9.7387    0.0000 </r>
       <r>    9.8146    0.0000 </r>
       <r>   10.4199    0.0000 </r>
       <r>   10.5811    0.0000 </r>
       <r>   10.6959    0.0000 </r>
       <r>   10.7145    0.0000 </r>
       <r>   11.2830    0.0000 </r>
       <r>   11.7111    0.0000 </r>
       <r>   12.3916    0.0000 </r>
       <r>   12.4518    0.0000 </r>
       <r>   12.7278    0.0000 </r>
       <r>   13.3211    0.0000 </r>
       <r>   13.3840    0.0000 </r>
       <r>   13.8317    0.0000 </r>
       <r>   13.8850    0.0000 </r>
       <r>   14.1448    0.0000 </r>
       <r>   14.1800    0.0000 </r>
       <r>   14.8628    0.0000 </r>
       <r>   15.1471    0.0000 </r>
       <r>   15.4622    0.0000 </r>
       <r>   15.6301    0.0000 </r>
       <r>   15.9407    0.0000 </r>
       <r>   16.1144    0.0000 </r>
       <r>   16.1565    0.0000 </r>
       <r>   16.5532    0.0000 </r>
       <r>   17.1072    0.0000 </r>
       <r>   17.2606    0.0000 </r>
       <r>   18.0490    0.0000 </r>
       <r>   18.1360    0.0000 </r>
       <r>   18.4409    0.0000 </r>
       <r>   18.8222    0.0000 </r>
       <r>   19.0434    0.0000 </r>
       <r>   19.2883    0.0000 </r>
      </set>
      <set comment="kpoint 2">
       <r>  -68.6475    1.0000 </r>
       <r>  -68.6474    1.0000 </r>
       <r>  -68.6350    1.0000 </r>
       <r>  -68.6349    1.0000 </r>
       <r>  -68.6156    1.0000 </r>
       <r>  -68.6156    1.0000 </r>
       <r>  -68.5986    1.0000 </r>
       <r>  -68.5985    1.0000 </r>
       <r>  -68.5788    1.0000 </r>
       <r>  -68.5787    1.0000 </r>
       <r>  -68.5620    1.0000 </r>
       <r>  -68.5619    1.0000 </r>
       <r>  -12.5961    1.0000 </r>
       <r>  -11.1278    1.0000 </r>
       <r>  -10.9825    1.0000 </r>
       <r>  -10.6766    1.0000 </r>
       <r>  -10.3664    1.0000 </r>
       <r>  -10.2777    1.0000 </r>
       <r>   -5.9332    1.0000 </r>
       <r>   -4.7733    1.0000 </r>
       <r>   -2.6460    1.0000 </r>
       <r>   -2.2526    1.0000 </r>
       <r>   -2.0867    1.0000 </r>
       <r>   -1.6891    1.0000 </r>
       <r>   -1.3456    1.0000 </r>
       <r>   -0.9990    1.0000 </r>
       <r>   -0.7683    1.0000 </r>
       <r>   -0.6221    1.0000 </r>
       <r>   -0.5536    1.0000 </r>
       <r>   -0.4395    1.0000 </r>
       <r>   -0.3605    1.0000 </r>
       <r>   -0.2422    1.0000 </r>
       <r>   -0.1943    1.0000 </r>
       <r>   -0.1690    1.0000 </r>
       <r>   -0.0477    1.0000 </r>
       <r>    0.0386    1.0000 </r>
       <r>    1.2778    1.0000 </r>
       <r>    1.3346    1.0000 </r>
       <r>    1.3533    1.0000 </r>
       <r>    1.3907    1.0000 </r>
       <r>    1.4255    1.0000 </r>
       <r>    1.4706    1.0000 </r>
       <r>    1.4968    1.0000 </r>
       <r>    1.5291    1.0000 </r>
       <r>    1.7236    1.0000 </r>
       <r>    1.8579    1.0000 </r>
       <r>    2.0558    1.0000 </r>
       <r>    2.0932    1.0000 </r>
       <r>    2.2303    1.0000 </r>
       <r>    2.4128    1.0000 </r>
       <r>    2.5550    1.0000 </r>
       <r>    2.8248    1.0000 </r>
       <r>    2.9466    1.0000 </r>
       <r>    3.2419    1.0000 </r>
       <r>    3.6616    1.0000 </r>
       <r>    4.0385    1.0000 </r>
       <r>    6.1704   -0.0000 </r>
       <r>    6.9059   -0.0000 </r>
       <r>    8.1375   -0.0000 </r>
       <r>    8.2684    0.0000 </r>
       <r>    8.5938    0.0000 </r>
       <r>    9.0131    0.0000 </r>
       <r>    9.2430    0.0000 </r>
       <r>    9.5313    0.0000 </r>
       <r>    9.8649    0.0000 </r>
       <r>   10.3760    0.0000 </r>
       <r>   10.6337    0.0000 </r>
       <r>   10.8135    0.0000 </r>
       <r>   10.9388    0.0000 </r>
       <r>   11.1904    0.0000 </r>
       <r>   11.6560    0.0000 </r>
       <r>   11.7704    0.0000 </r>
       <r>   12.1168    0.0000 </r>
       <r>   12.4422    0.0000 </r>
       <r>   12.6178    0.0000 </r>
       <r>   13.0078    0.0000 </r>
       <r>   13.5051    0.0000 </r>
       <r>   13.8710    0.0000 </r>
       <r>   14.2021    0.0000 </r>
       <r>   14.6010    0.0000 </r>
       <r>   14.7544    0.0000 </r>
       <r>   15.0639    0.0000 </r>
       <r>   15.4442    0.0000 </r>
       <r>   15.6369    0.0000 </r>
       <r>   15.9431    0.0000 </r>
       <r>   16.3582    0.0000 </r>
       <r>   16.6677    0.0000 </r>
       <r>   17.2141    0.0000 </r>
       <r>   17.4799    0.0000 </r>
       <r>   17.9382    0.0000 </r>
       <r>   18.3432    0.0000 </r>
       <r>   18.6483    0.0000 </r>
       <r>   18.7289    0.0000 </r>
       <r>   18.9279    0.0000 </r>
       <r>   19.3135    0.0000 </r>
       <r>   20.1222    0.0000 </r>
      </set>
      <set comment="kpoint 3">
       <r>  -68.6473    1.0000 </r>
       <r>  -68.6473    1.0000 </r>
       <r>  -68.6350    1.0000 </r>
       <r>  -68.6348    1.0000 </r>
       <r>  -68.6156    1.0000 </r>
       <r>  -68.6155    1.0000 </r>
       <r>  -68.5985    1.0000 </r>
       <r>  -68.5985    1.0000 </r>
       <r>  -68.5788    1.0000 </r>
       <r>  -68.5786    1.0000 </r>
       <r>  -68.5619    1.0000 </r>
       <r>  -68.5618    1.0000 </r>
       <r>  -12.4367    1.0000 </r>
       <r>  -11.2497    1.0000 </r>
       <r>  -10.9567    1.0000 </r>
       <r>  -10.7641    1.0000 </r>
       <r>  -10.4276    1.0000 </r>
       <r>  -10.3583    1.0000 </r>
       <r>   -5.8709    1.0000 </r>
       <r>   -4.5484    1.0000 </r>
       <r>   -2.4945    1.0000 </r>
       <r>   -2.2453    1.0000 </r>
       <r>   -1.9453    1.0000 </r>
       <r>   -1.4639    1.0000 </r>
       <r>   -1.2262    1.0000 </r>
       <r>   -1.1021    1.0000 </r>
       <r>   -0.9018    1.0000 </r>
       <r>   -0.8639    1.0000 </r>
       <r>   -0.5998    1.0000 </r>
       <r>   -0.5366    1.0000 </r>
       <r>   -0.2742    1.0000 </r>
       <r>   -0.2052    1.0000 </r>
       <r>   -0.2024    1.0000 </r>
       <r>   -0.1455    1.0000 </r>
       <r>   -0.0307    1.0000 </r>
       <r>    0.0798    1.0000 </r>
       <r>    1.2529    1.0000 </r>
       <r>    1.3263    1.0000 </r>
       <r>    1.3459    1.0000 </r>
       <r>    1.3956    1.0000 </r>
       <r>    1.4697    1.0000 </r>
       <r>    1.4775    1.0000 </r>
       <r>    1.4985    1.0000 </r>
       <r>    1.5520    1.0000 </r>
       <r>    1.7512    1.0000 </r>
       <r>    1.7905    1.0000 </r>
       <r>    1.9671    1.0000 </r>
       <r>    2.1457    1.0000 </r>
       <r>    2.3196    1.0000 </r>
       <r>    2.3613    1.0000 </r>
       <r>    2.5534    1.0000 </r>
       <r>    2.6692    1.0000 </r>
       <r>    2.9364    1.0000 </r>
       <r>    3.0781    1.0000 </r>
       <r>    3.2490    1.0000 </r>
       <r>    3.8609    1.0000 </r>
       <r>    6.3852   -0.0000 </r>
       <r>    7.0975   -0.0000 </r>
       <r>    7.9810   -0.0000 </r>
       <r>    8.2039    0.0000 </r>
       <r>    8.5185    0.0000 </r>
       <r>    8.8208    0.0000 </r>
       <r>    9.3274    0.0000 </r>
       <r>    9.8885    0.0000 </r>
       <r>   10.0109    0.0000 </r>
       <r>   10.5185    0.0000 </r>
       <r>   10.6915    0.0000 </r>
       <r>   10.7930    0.0000 </r>
       <r>   11.1410    0.0000 </r>
       <r>   11.4073    0.0000 </r>
       <r>   11.6097    0.0000 </r>
       <r>   11.7749    0.0000 </r>
       <r>   11.9433    0.0000 </r>
       <r>   12.5029    0.0000 </r>
       <r>   12.7794    0.0000 </r>
       <r>   13.0001    0.0000 </r>
       <r>   13.3953    0.0000 </r>
       <r>   13.5360    0.0000 </r>
       <r>   13.8778    0.0000 </r>
       <r>   14.2347    0.0000 </r>
       <r>   14.6642    0.0000 </r>
       <r>   14.6907    0.0000 </r>
       <r>   15.1390    0.0000 </r>
       <r>   15.6476    0.0000 </r>
       <r>   16.1158    0.0000 </r>
       <r>   16.5111    0.0000 </r>
       <r>   16.6295    0.0000 </r>
       <r>   16.9613    0.0000 </r>
       <r>   17.6980    0.0000 </r>
       <r>   17.7477    0.0000 </r>
       <r>   18.0059    0.0000 </r>
       <r>   18.4439    0.0000 </r>
       <r>   18.6723    0.0000 </r>
       <r>   19.2930    0.0000 </r>
       <r>   19.7170    0.0000 </r>
       <r>   20.2596    0.0000 </r>
      </set>
      <set comment="kpoint 4">
       <r>  -68.6475    1.0000 </r>
       <r>  -68.6474    1.0000 </r>
       <r>  -68.6350    1.0000 </r>
       <r>  -68.6347    1.0000 </r>
       <r>  -68.6157    1.0000 </r>
       <r>  -68.6156    1.0000 </r>
       <r>  -68.5985    1.0000 </r>
       <r>  -68.5984    1.0000 </r>
       <r>  -68.5789    1.0000 </r>
       <r>  -68.5788    1.0000 </r>
       <r>  -68.5620    1.0000 </r>
       <r>  -68.5620    1.0000 </r>
       <r>  -12.4405    1.0000 </r>
       <r>  -11.1914    1.0000 </r>
       <r>  -10.9430    1.0000 </r>
       <r>  -10.8776    1.0000 </r>
       <r>  -10.3905    1.0000 </r>
       <r>  -10.3511    1.0000 </r>
       <r>   -5.8760    1.0000 </r>
       <r>   -4.5218    1.0000 </r>
       <r>   -2.4184    1.0000 </r>
       <r>   -2.2461    1.0000 </r>
       <r>   -1.7920    1.0000 </r>
       <r>   -1.6817    1.0000 </r>
       <r>   -1.3560    1.0000 </r>
       <r>   -1.2988    1.0000 </r>
       <r>   -1.0806    1.0000 </r>
       <r>   -0.6828    1.0000 </r>
       <r>   -0.5255    1.0000 </r>
       <r>   -0.2965    1.0000 </r>
       <r>   -0.2829    1.0000 </r>
       <r>   -0.2246    1.0000 </r>
       <r>   -0.1871    1.0000 </r>
       <r>   -0.1277    1.0000 </r>
       <r>   -0.0931    1.0000 </r>
       <r>    0.0792    1.0000 </r>
       <r>    1.2920    1.0000 </r>
       <r>    1.3099    1.0000 </r>
       <r>    1.4141    1.0000 </r>
       <r>    1.4245    1.0000 </r>
       <r>    1.4618    1.0000 </r>
       <r>    1.4811    1.0000 </r>
       <r>    1.4940    1.0000 </r>
       <r>    1.5692    1.0000 </r>
       <r>    1.6701    1.0000 </r>
       <r>    1.8793    1.0000 </r>
       <r>    1.9392    1.0000 </r>
       <r>    2.1338    1.0000 </r>
       <r>    2.2785    1.0000 </r>
       <r>    2.3193    1.0000 </r>
       <r>    2.5587    1.0000 </r>
       <r>    2.6496    1.0000 </r>
       <r>    2.9018    1.0000 </r>
       <r>    2.9440    1.0000 </r>
       <r>    3.6976    1.0000 </r>
       <r>    3.8312    1.0000 </r>
       <r>    6.1716   -0.0000 </r>
       <r>    6.9901   -0.0000 </r>
       <r>    8.0043   -0.0000 </r>
       <r>    8.3273    0.0000 </r>
       <r>    8.4346    0.0000 </r>
       <r>    8.5713    0.0000 </r>
       <r>    9.1461    0.0000 </r>
       <r>    9.2483    0.0000 </r>
       <r>   10.3614    0.0000 </r>
       <r>   10.4955    0.0000 </r>
       <r>   10.9200    0.0000 </r>
       <r>   11.1849    0.0000 </r>
       <r>   11.3285    0.0000 </r>
       <r>   11.5578    0.0000 </r>
       <r>   11.8140    0.0000 </r>
       <r>   11.9625    0.0000 </r>
       <r>   12.3139    0.0000 </r>
       <r>   12.5029    0.0000 </r>
       <r>   12.7102    0.0000 </r>
       <r>   12.9121    0.0000 </r>
       <r>   13.3309    0.0000 </r>
       <r>   13.4424    0.0000 </r>
       <r>   14.2465    0.0000 </r>
       <r>   14.2500    0.0000 </r>
       <r>   14.5041    0.0000 </r>
       <r>   14.9563    0.0000 </r>
       <r>   15.1581    0.0000 </r>
       <r>   15.3766    0.0000 </r>
       <r>   15.6961    0.0000 </r>
       <r>   15.7653    0.0000 </r>
       <r>   16.6973    0.0000 </r>
       <r>   16.7264    0.0000 </r>
       <r>   17.0022    0.0000 </r>
       <r>   17.0600    0.0000 </r>
       <r>   17.8108    0.0000 </r>
       <r>   18.2686    0.0000 </r>
       <r>   18.5769    0.0000 </r>
       <r>   19.4366    0.0000 </r>
       <r>   19.5765    0.0000 </r>
       <r>   20.0738    0.0000 </r>
      </set>
      <set comment="kpoint 5">
       <r>  -68.6473    1.0000 </r>
       <r>  -68.6472    1.0000 </r>
       <r>  -68.6350    1.0000 </r>
       <r>  -68.6348    1.0000 </r>
       <r>  -68.6155    1.0000 </r>
       <r>  -68.6155    1.0000 </r>
       <r>  -68.5986    1.0000 </r>
       <r>  -68.5985    1.0000 </r>
       <r>  -68.5787    1.0000 </r>
       <r>  -68.5786    1.0000 </r>
       <r>  -68.5618    1.0000 </r>
       <r>  -68.5618    1.0000 </r>
       <r>  -12.4409    1.0000 </r>
       <r>  -11.3547    1.0000 </r>
       <r>  -10.9379    1.0000 </r>
       <r>  -10.7376    1.0000 </r>
       <r>  -10.3897    1.0000 </r>
       <r>  -10.2714    1.0000 </r>
       <r>   -5.9478    1.0000 </r>
       <r>   -4.6427    1.0000 </r>
       <r>   -2.3921    1.0000 </r>
       <r>   -2.2266    1.0000 </r>
       <r>   -2.0576    1.0000 </r>
       <r>   -1.6399    1.0000 </r>
       <r>   -1.3624    1.0000 </r>
       <r>   -1.2820    1.0000 </r>
       <r>   -1.0225    1.0000 </r>
       <r>   -0.5119    1.0000 </r>
       <r>   -0.4840    1.0000 </r>
       <r>   -0.3303    1.0000 </r>
       <r>   -0.2834    1.0000 </r>
       <r>   -0.2149    1.0000 </r>
       <r>   -0.1515    1.0000 </r>
       <r>   -0.1356    1.0000 </r>
       <r>   -0.0114    1.0000 </r>
       <r>    0.1118    1.0000 </r>
       <r>    1.2450    1.0000 </r>
       <r>    1.3140    1.0000 </r>
       <r>    1.3811    1.0000 </r>
       <r>    1.4357    1.0000 </r>
       <r>    1.4603    1.0000 </r>
       <r>    1.4906    1.0000 </r>
       <r>    1.4955    1.0000 </r>
       <r>    1.5487    1.0000 </r>
       <r>    1.7476    1.0000 </r>
       <r>    1.8271    1.0000 </r>
       <r>    1.9209    1.0000 </r>
       <r>    2.1328    1.0000 </r>
       <r>    2.2197    1.0000 </r>
       <r>    2.3843    1.0000 </r>
       <r>    2.5603    1.0000 </r>
       <r>    2.7894    1.0000 </r>
       <r>    2.9778    1.0000 </r>
       <r>    3.3111    1.0000 </r>
       <r>    3.6026    1.0000 </r>
       <r>    3.7478    1.0000 </r>
       <r>    6.0876   -0.0000 </r>
       <r>    6.9393   -0.0000 </r>
       <r>    7.6118   -0.0000 </r>
       <r>    8.0688   -0.0000 </r>
       <r>    8.4104    0.0000 </r>
       <r>    8.6159    0.0000 </r>
       <r>    8.9833    0.0000 </r>
       <r>    9.1522    0.0000 </r>
       <r>   10.0872    0.0000 </r>
       <r>   10.3356    0.0000 </r>
       <r>   10.7327    0.0000 </r>
       <r>   11.1078    0.0000 </r>
       <r>   11.4574    0.0000 </r>
       <r>   11.5767    0.0000 </r>
       <r>   11.7852    0.0000 </r>
       <r>   12.0256    0.0000 </r>
       <r>   12.4212    0.0000 </r>
       <r>   12.6305    0.0000 </r>
       <r>   12.8647    0.0000 </r>
       <r>   13.0256    0.0000 </r>
       <r>   13.4135    0.0000 </r>
       <r>   13.8114    0.0000 </r>
       <r>   14.1895    0.0000 </r>
       <r>   14.4100    0.0000 </r>
       <r>   14.7426    0.0000 </r>
       <r>   15.3164    0.0000 </r>
       <r>   15.6185    0.0000 </r>
       <r>   15.7820    0.0000 </r>
       <r>   15.8938    0.0000 </r>
       <r>   16.1543    0.0000 </r>
       <r>   16.3498    0.0000 </r>
       <r>   16.5259    0.0000 </r>
       <r>   16.9705    0.0000 </r>
       <r>   17.2671    0.0000 </r>
       <r>   17.5709    0.0000 </r>
       <r>   18.1060    0.0000 </r>
       <r>   18.5378    0.0000 </r>
       <r>   18.9791    0.0000 </r>
       <r>   19.3421    0.0000 </r>
       <r>   19.5636    0.0000 </r>
      </set>
      <set comment="kpoint 6">
       <r>  -68.6475    1.0000 </r>
       <r>  -68.6474    1.0000 </r>
       <r>  -68.6350    1.0000 </r>
       <r>  -68.6349    1.0000 </r>
       <r>  -68.6155    1.0000 </r>
       <r>  -68.6155    1.0000 </r>
       <r>  -68.5986    1.0000 </r>
       <r>  -68.5985    1.0000 </r>
       <r>  -68.5787    1.0000 </r>
       <r>  -68.5786    1.0000 </r>
       <r>  -68.5620    1.0000 </r>
       <r>  -68.5620    1.0000 </r>
       <r>  -12.5990    1.0000 </r>
       <r>  -11.2520    1.0000 </r>
       <r>  -10.9914    1.0000 </r>
       <r>  -10.5697    1.0000 </r>
       <r>  -10.3674    1.0000 </r>
       <r>  -10.1799    1.0000 </r>
       <r>   -6.0101    1.0000 </r>
       <r>   -4.8949    1.0000 </r>
       <r>   -2.6470    1.0000 </r>
       <r>   -2.3144    1.0000 </r>
       <r>   -1.9724    1.0000 </r>
       <r>   -1.6465    1.0000 </r>
       <r>   -1.4943    1.0000 </r>
       <r>   -1.1842    1.0000 </r>
       <r>   -0.7897    1.0000 </r>
       <r>   -0.5845    1.0000 </r>
       <r>   -0.4471    1.0000 </r>
       <r>   -0.3347    1.0000 </r>
       <r>   -0.2943    1.0000 </r>
       <r>   -0.2328    1.0000 </r>
       <r>   -0.1752    1.0000 </r>
       <r>   -0.1328    1.0000 </r>
       <r>   -0.0097    1.0000 </r>
       <r>    0.0703    1.0000 </r>
       <r>    1.2578    1.0000 </r>
       <r>    1.3193    1.0000 </r>
       <r>    1.3633    1.0000 </r>
       <r>    1.4220    1.0000 </r>
       <r>    1.4297    1.0000 </r>
       <r>    1.4744    1.0000 </r>
       <r>    1.5025    1.0000 </r>
       <r>    1.5414    1.0000 </r>
       <r>    1.7235    1.0000 </r>
       <r>    1.8114    1.0000 </r>
       <r>    1.9941    1.0000 </r>
       <r>    2.0713    1.0000 </r>
       <r>    2.4160    1.0000 </r>
       <r>    2.4619    1.0000 </r>
       <r>    2.5274    1.0000 </r>
       <r>    2.8719    1.0000 </r>
       <r>    3.1415    1.0000 </r>
       <r>    3.2276    1.0000 </r>
       <r>    3.7832    1.0000 </r>
       <r>    4.0687    1.0000 </r>
       <r>    5.9792   -0.0000 </r>
       <r>    6.6890   -0.0000 </r>
       <r>    7.5342   -0.0000 </r>
       <r>    8.2227    0.0000 </r>
       <r>    8.6175    0.0000 </r>
       <r>    8.9136    0.0000 </r>
       <r>    9.3070    0.0000 </r>
       <r>    9.4317    0.0000 </r>
       <r>    9.8041    0.0000 </r>
       <r>   10.2715    0.0000 </r>
       <r>   10.5430    0.0000 </r>
       <r>   10.8307    0.0000 </r>
       <r>   10.9717    0.0000 </r>
       <r>   11.3807    0.0000 </r>
       <r>   11.4710    0.0000 </r>
       <r>   11.7331    0.0000 </r>
       <r>   12.1010    0.0000 </r>
       <r>   12.6632    0.0000 </r>
       <r>   12.9422    0.0000 </r>
       <r>   13.1022    0.0000 </r>
       <r>   13.3507    0.0000 </r>
       <r>   13.5197    0.0000 </r>
       <r>   14.4698    0.0000 </r>
       <r>   14.7524    0.0000 </r>
       <r>   15.0236    0.0000 </r>
       <r>   15.4743    0.0000 </r>
       <r>   15.5713    0.0000 </r>
       <r>   16.3298    0.0000 </r>
       <r>   16.3696    0.0000 </r>
       <r>   16.6387    0.0000 </r>
       <r>   16.9511    0.0000 </r>
       <r>   17.1984    0.0000 </r>
       <r>   17.3223    0.0000 </r>
       <r>   17.7373    0.0000 </r>
       <r>   18.2294    0.0000 </r>
       <r>   18.3296    0.0000 </r>
       <r>   18.7610    0.0000 </r>
       <r>   18.9311    0.0000 </r>
       <r>   19.2393    0.0000 </r>
       <r>   19.9246    0.0000 </r>
      </set>
      <set comment="kpoint 7">
       <r>  -68.6472    1.0000 </r>
       <r>  -68.6469    1.0000 </r>
       <r>  -68.6348    1.0000 </r>
       <r>  -68.6346    1.0000 </r>
       <r>  -68.6154    1.0000 </r>
       <r>  -68.6153    1.0000 </r>
       <r>  -68.5984    1.0000 </r>
       <r>  -68.5982    1.0000 </r>
       <r>  -68.5786    1.0000 </r>
       <r>  -68.5784    1.0000 </r>
       <r>  -68.5618    1.0000 </r>
       <r>  -68.5614    1.0000 </r>
       <r>  -12.4327    1.0000 </r>
       <r>  -11.5020    1.0000 </r>
       <r>  -10.9131    1.0000 </r>
       <r>  -10.6172    1.0000 </r>
       <r>  -10.3987    1.0000 </r>
       <r>  -10.1991    1.0000 </r>
       <r>   -6.0263    1.0000 </r>
       <r>   -4.8108    1.0000 </r>
       <r>   -2.3116    1.0000 </r>
       <r>   -2.2649    1.0000 </r>
       <r>   -2.0938    1.0000 </r>
       <r>   -1.7027    1.0000 </r>
       <r>   -1.2470    1.0000 </r>
       <r>   -1.1104    1.0000 </r>
       <r>   -0.8423    1.0000 </r>
       <r>   -0.7811    1.0000 </r>
       <r>   -0.7274    1.0000 </r>
       <r>   -0.2434    1.0000 </r>
       <r>   -0.1993    1.0000 </r>
       <r>   -0.1816    1.0000 </r>
       <r>   -0.1526    1.0000 </r>
       <r>   -0.0415    1.0000 </r>
       <r>   -0.0029    1.0000 </r>
       <r>    0.1836    1.0000 </r>
       <r>    1.2648    1.0000 </r>
       <r>    1.3163    1.0000 </r>
       <r>    1.3738    1.0000 </r>
       <r>    1.4126    1.0000 </r>
       <r>    1.4322    1.0000 </r>
       <r>    1.4908    1.0000 </r>
       <r>    1.5068    1.0000 </r>
       <r>    1.5479    1.0000 </r>
       <r>    1.7860    1.0000 </r>
       <r>    1.8465    1.0000 </r>
       <r>    1.9947    1.0000 </r>
       <r>    2.1495    1.0000 </r>
       <r>    2.2514    1.0000 </r>
       <r>    2.3356    1.0000 </r>
       <r>    2.5586    1.0000 </r>
       <r>    2.7613    1.0000 </r>
       <r>    2.7741    1.0000 </r>
       <r>    3.3683    1.0000 </r>
       <r>    3.7638    1.0000 </r>
       <r>    4.0063    1.0000 </r>
       <r>    5.8542   -0.0000 </r>
       <r>    6.7661   -0.0000 </r>
       <r>    7.0832   -0.0000 </r>
       <r>    8.4118    0.0000 </r>
       <r>    8.5611    0.0000 </r>
       <r>    8.7701    0.0000 </r>
       <r>    9.1418    0.0000 </r>
       <r>    9.2411    0.0000 </r>
       <r>    9.9589    0.0000 </r>
       <r>   10.2848    0.0000 </r>
       <r>   10.7262    0.0000 </r>
       <r>   10.8258    0.0000 </r>
       <r>   10.8761    0.0000 </r>
       <r>   11.2746    0.0000 </r>
       <r>   11.7548    0.0000 </r>
       <r>   11.9097    0.0000 </r>
       <r>   11.9730    0.0000 </r>
       <r>   12.3657    0.0000 </r>
       <r>   12.5377    0.0000 </r>
       <r>   13.4266    0.0000 </r>
       <r>   13.8959    0.0000 </r>
       <r>   13.9296    0.0000 </r>
       <r>   14.2663    0.0000 </r>
       <r>   14.5222    0.0000 </r>
       <r>   14.6297    0.0000 </r>
       <r>   15.2199    0.0000 </r>
       <r>   16.2397    0.0000 </r>
       <r>   16.4234    0.0000 </r>
       <r>   16.5886    0.0000 </r>
       <r>   16.8499    0.0000 </r>
       <r>   16.9049    0.0000 </r>
       <r>   17.0591    0.0000 </r>
       <r>   17.6187    0.0000 </r>
       <r>   17.9107    0.0000 </r>
       <r>   18.0640    0.0000 </r>
       <r>   18.2408    0.0000 </r>
       <r>   18.5314    0.0000 </r>
       <r>   18.8052    0.0000 </r>
       <r>   19.4268    0.0000 </r>
       <r>   19.5818    0.0000 </r>
      </set>
      <set comment="kpoint 8">
       <r>  -68.6475    1.0000 </r>
       <r>  -68.6474    1.0000 </r>
       <r>  -68.6350    1.0000 </r>
       <r>  -68.6349    1.0000 </r>
       <r>  -68.6156    1.0000 </r>
       <r>  -68.6156    1.0000 </r>
       <r>  -68.5987    1.0000 </r>
       <r>  -68.5985    1.0000 </r>
       <r>  -68.5789    1.0000 </r>
       <r>  -68.5787    1.0000 </r>
       <r>  -68.5621    1.0000 </r>
       <r>  -68.5620    1.0000 </r>
       <r>  -12.6178    1.0000 </r>
       <r>  -11.4256    1.0000 </r>
       <r>  -10.7786    1.0000 </r>
       <r>  -10.6083    1.0000 </r>
       <r>  -10.2499    1.0000 </r>
       <r>  -10.2373    1.0000 </r>
       <r>   -5.8312    1.0000 </r>
       <r>   -5.0471    1.0000 </r>
       <r>   -2.6005    1.0000 </r>
       <r>   -2.3721    1.0000 </r>
       <r>   -1.9619    1.0000 </r>
       <r>   -1.7753    1.0000 </r>
       <r>   -1.4445    1.0000 </r>
       <r>   -1.1257    1.0000 </r>
       <r>   -1.0650    1.0000 </r>
       <r>   -0.7719    1.0000 </r>
       <r>   -0.4706    1.0000 </r>
       <r>   -0.2935    1.0000 </r>
       <r>   -0.2381    1.0000 </r>
       <r>   -0.2361    1.0000 </r>
       <r>   -0.1923    1.0000 </r>
       <r>   -0.1475    1.0000 </r>
       <r>   -0.0185    1.0000 </r>
       <r>    0.0237    1.0000 </r>
       <r>    1.3318    1.0000 </r>
       <r>    1.3802    1.0000 </r>
       <r>    1.4146    1.0000 </r>
       <r>    1.4381    1.0000 </r>
       <r>    1.4638    1.0000 </r>
       <r>    1.4650    1.0000 </r>
       <r>    1.5130    1.0000 </r>
       <r>    1.5444    1.0000 </r>
       <r>    1.6313    1.0000 </r>
       <r>    1.7575    1.0000 </r>
       <r>    1.7855    1.0000 </r>
       <r>    1.9497    1.0000 </r>
       <r>    2.0873    1.0000 </r>
       <r>    2.6589    1.0000 </r>
       <r>    2.7182    1.0000 </r>
       <r>    3.1949    1.0000 </r>
       <r>    3.2520    1.0000 </r>
       <r>    3.5189    1.0000 </r>
       <r>    3.8940    1.0000 </r>
       <r>    3.9757    1.0000 </r>
       <r>    6.0458   -0.0000 </r>
       <r>    6.4164   -0.0000 </r>
       <r>    7.8245   -0.0000 </r>
       <r>    7.9078   -0.0000 </r>
       <r>    8.3654    0.0000 </r>
       <r>    8.8189    0.0000 </r>
       <r>    9.7758    0.0000 </r>
       <r>    9.7948    0.0000 </r>
       <r>   10.0624    0.0000 </r>
       <r>   10.5854    0.0000 </r>
       <r>   10.6447    0.0000 </r>
       <r>   10.8141    0.0000 </r>
       <r>   10.8555    0.0000 </r>
       <r>   11.4936    0.0000 </r>
       <r>   11.5574    0.0000 </r>
       <r>   12.0264    0.0000 </r>
       <r>   12.5793    0.0000 </r>
       <r>   12.7756    0.0000 </r>
       <r>   12.9121    0.0000 </r>
       <r>   13.2048    0.0000 </r>
       <r>   13.5323    0.0000 </r>
       <r>   13.7925    0.0000 </r>
       <r>   14.1227    0.0000 </r>
       <r>   14.2577    0.0000 </r>
       <r>   14.7937    0.0000 </r>
       <r>   15.0756    0.0000 </r>
       <r>   15.4119    0.0000 </r>
       <r>   15.4209    0.0000 </r>
       <r>   15.6374    0.0000 </r>
       <r>   16.1802    0.0000 </r>
       <r>   16.5462    0.0000 </r>
       <r>   16.7512    0.0000 </r>
       <r>   16.9108    0.0000 </r>
       <r>   17.1028    0.0000 </r>
       <r>   17.4590    0.0000 </r>
       <r>   17.4888    0.0000 </r>
       <r>   17.7600    0.0000 </r>
       <r>   17.9125    0.0000 </r>
       <r>   18.7384    0.0000 </r>
       <r>   20.0746    0.0000 </r>
      </set>
      <set comment="kpoint 9">
       <r>  -68.6474    1.0000 </r>
       <r>  -68.6474    1.0000 </r>
       <r>  -68.6350    1.0000 </r>
       <r>  -68.6349    1.0000 </r>
       <r>  -68.6156    1.0000 </r>
       <r>  -68.6156    1.0000 </r>
       <r>  -68.5986    1.0000 </r>
       <r>  -68.5985    1.0000 </r>
       <r>  -68.5788    1.0000 </r>
       <r>  -68.5787    1.0000 </r>
       <r>  -68.5620    1.0000 </r>
       <r>  -68.5619    1.0000 </r>
       <r>  -12.4588    1.0000 </r>
       <r>  -11.4670    1.0000 </r>
       <r>  -10.8643    1.0000 </r>
       <r>  -10.6892    1.0000 </r>
       <r>  -10.3735    1.0000 </r>
       <r>  -10.2455    1.0000 </r>
       <r>   -5.7668    1.0000 </r>
       <r>   -4.8044    1.0000 </r>
       <r>   -2.4453    1.0000 </r>
       <r>   -2.2331    1.0000 </r>
       <r>   -1.8506    1.0000 </r>
       <r>   -1.7134    1.0000 </r>
       <r>   -1.4335    1.0000 </r>
       <r>   -1.1884    1.0000 </r>
       <r>   -0.8901    1.0000 </r>
       <r>   -0.7460    1.0000 </r>
       <r>   -0.6063    1.0000 </r>
       <r>   -0.5234    1.0000 </r>
       <r>   -0.3114    1.0000 </r>
       <r>   -0.2444    1.0000 </r>
       <r>   -0.1740    1.0000 </r>
       <r>   -0.1230    1.0000 </r>
       <r>   -0.0539    1.0000 </r>
       <r>    0.0606    1.0000 </r>
       <r>    1.3006    1.0000 </r>
       <r>    1.3347    1.0000 </r>
       <r>    1.3680    1.0000 </r>
       <r>    1.4303    1.0000 </r>
       <r>    1.4448    1.0000 </r>
       <r>    1.4777    1.0000 </r>
       <r>    1.5198    1.0000 </r>
       <r>    1.5456    1.0000 </r>
       <r>    1.6421    1.0000 </r>
       <r>    1.8701    1.0000 </r>
       <r>    1.9777    1.0000 </r>
       <r>    2.0469    1.0000 </r>
       <r>    2.1938    1.0000 </r>
       <r>    2.4745    1.0000 </r>
       <r>    2.5939    1.0000 </r>
       <r>    2.8378    1.0000 </r>
       <r>    2.9625    1.0000 </r>
       <r>    3.1321    1.0000 </r>
       <r>    3.5667    1.0000 </r>
       <r>    3.7239    1.0000 </r>
       <r>    6.4417   -0.0000 </r>
       <r>    6.9572   -0.0000 </r>
       <r>    8.1709   -0.0000 </r>
       <r>    8.2463    0.0000 </r>
       <r>    8.8338    0.0000 </r>
       <r>    9.1283    0.0000 </r>
       <r>    9.4650    0.0000 </r>
       <r>    9.7961    0.0000 </r>
       <r>   10.0845    0.0000 </r>
       <r>   10.2989    0.0000 </r>
       <r>   10.7402    0.0000 </r>
       <r>   11.0780    0.0000 </r>
       <r>   11.2900    0.0000 </r>
       <r>   11.4238    0.0000 </r>
       <r>   11.6324    0.0000 </r>
       <r>   11.7239    0.0000 </r>
       <r>   12.0856    0.0000 </r>
       <r>   12.2662    0.0000 </r>
       <r>   12.5414    0.0000 </r>
       <r>   12.6576    0.0000 </r>
       <r>   12.9535    0.0000 </r>
       <r>   13.0579    0.0000 </r>
       <r>   13.6129    0.0000 </r>
       <r>   14.1741    0.0000 </r>
       <r>   14.6233    0.0000 </r>
       <r>   14.8924    0.0000 </r>
       <r>   15.0612    0.0000 </r>
       <r>   15.5748    0.0000 </r>
       <r>   15.7732    0.0000 </r>
       <r>   16.3044    0.0000 </r>
       <r>   17.2553    0.0000 </r>
       <r>   17.4906    0.0000 </r>
       <r>   17.6958    0.0000 </r>
       <r>   18.1691    0.0000 </r>
       <r>   18.2924    0.0000 </r>
       <r>   18.5308    0.0000 </r>
       <r>   18.9081    0.0000 </r>
       <r>   19.3341    0.0000 </r>
       <r>   19.8864    0.0000 </r>
       <r>   20.1476    0.0000 </r>
      </set>
      <set comment="kpoint 10">
       <r>  -68.6474    1.0000 </r>
       <r>  -68.6472    1.0000 </r>
       <r>  -68.6350    1.0000 </r>
       <r>  -68.6348    1.0000 </r>
       <r>  -68.6155    1.0000 </r>
       <r>  -68.6154    1.0000 </r>
       <r>  -68.5985    1.0000 </r>
       <r>  -68.5985    1.0000 </r>
       <r>  -68.5787    1.0000 </r>
       <r>  -68.5786    1.0000 </r>
       <r>  -68.5619    1.0000 </r>
       <r>  -68.5618    1.0000 </r>
       <r>  -12.3564    1.0000 </r>
       <r>  -11.4138    1.0000 </r>
       <r>  -10.9531    1.0000 </r>
       <r>  -10.6843    1.0000 </r>
       <r>  -10.4784    1.0000 </r>
       <r>  -10.3346    1.0000 </r>
       <r>   -5.7520    1.0000 </r>
       <r>   -4.7223    1.0000 </r>
       <r>   -2.5226    1.0000 </r>
       <r>   -2.1853    1.0000 </r>
       <r>   -1.9528    1.0000 </r>
       <r>   -1.5349    1.0000 </r>
       <r>   -1.3011    1.0000 </r>
       <r>   -1.0978    1.0000 </r>
       <r>   -0.8704    1.0000 </r>
       <r>   -0.7568    1.0000 </r>
       <r>   -0.5497    1.0000 </r>
       <r>   -0.4458    1.0000 </r>
       <r>   -0.2905    1.0000 </r>
       <r>   -0.1804    1.0000 </r>
       <r>   -0.1456    1.0000 </r>
       <r>   -0.1068    1.0000 </r>
       <r>   -0.0455    1.0000 </r>
       <r>    0.0222    1.0000 </r>
       <r>    1.2710    1.0000 </r>
       <r>    1.2965    1.0000 </r>
       <r>    1.3501    1.0000 </r>
       <r>    1.4280    1.0000 </r>
       <r>    1.4511    1.0000 </r>
       <r>    1.4789    1.0000 </r>
       <r>    1.4999    1.0000 </r>
       <r>    1.5868    1.0000 </r>
       <r>    1.7182    1.0000 </r>
       <r>    1.9308    1.0000 </r>
       <r>    2.0754    1.0000 </r>
       <r>    2.1449    1.0000 </r>
       <r>    2.2662    1.0000 </r>
       <r>    2.4024    1.0000 </r>
       <r>    2.5673    1.0000 </r>
       <r>    2.5965    1.0000 </r>
       <r>    2.8979    1.0000 </r>
       <r>    3.0084    1.0000 </r>
       <r>    3.3582    1.0000 </r>
       <r>    3.8985    1.0000 </r>
       <r>    6.3653   -0.0000 </r>
       <r>    6.8971   -0.0000 </r>
       <r>    7.5741   -0.0000 </r>
       <r>    8.0840   -0.0000 </r>
       <r>    8.5483    0.0000 </r>
       <r>    8.7977    0.0000 </r>
       <r>    9.2790    0.0000 </r>
       <r>    9.6287    0.0000 </r>
       <r>    9.9308    0.0000 </r>
       <r>   10.2752    0.0000 </r>
       <r>   10.6585    0.0000 </r>
       <r>   10.9280    0.0000 </r>
       <r>   10.9718    0.0000 </r>
       <r>   11.2799    0.0000 </r>
       <r>   11.5179    0.0000 </r>
       <r>   11.7716    0.0000 </r>
       <r>   12.1884    0.0000 </r>
       <r>   12.4028    0.0000 </r>
       <r>   12.7772    0.0000 </r>
       <r>   13.3930    0.0000 </r>
       <r>   13.6817    0.0000 </r>
       <r>   13.9662    0.0000 </r>
       <r>   14.0852    0.0000 </r>
       <r>   14.2952    0.0000 </r>
       <r>   14.6363    0.0000 </r>
       <r>   14.9471    0.0000 </r>
       <r>   15.1772    0.0000 </r>
       <r>   15.6164    0.0000 </r>
       <r>   16.1625    0.0000 </r>
       <r>   16.5700    0.0000 </r>
       <r>   16.7800    0.0000 </r>
       <r>   17.2383    0.0000 </r>
       <r>   17.8203    0.0000 </r>
       <r>   17.9808    0.0000 </r>
       <r>   18.3824    0.0000 </r>
       <r>   18.5852    0.0000 </r>
       <r>   18.7975    0.0000 </r>
       <r>   19.1097    0.0000 </r>
       <r>   19.2853    0.0000 </r>
       <r>   19.8186    0.0000 </r>
      </set>
      <set comment="kpoint 11">
       <r>  -68.6475    1.0000 </r>
       <r>  -68.6474    1.0000 </r>
       <r>  -68.6350    1.0000 </r>
       <r>  -68.6349    1.0000 </r>
       <r>  -68.6156    1.0000 </r>
       <r>  -68.6155    1.0000 </r>
       <r>  -68.5987    1.0000 </r>
       <r>  -68.5985    1.0000 </r>
       <r>  -68.5788    1.0000 </r>
       <r>  -68.5788    1.0000 </r>
       <r>  -68.5620    1.0000 </r>
       <r>  -68.5620    1.0000 </r>
       <r>  -12.5415    1.0000 </r>
       <r>  -11.3376    1.0000 </r>
       <r>  -10.8736    1.0000 </r>
       <r>  -10.6062    1.0000 </r>
       <r>  -10.3986    1.0000 </r>
       <r>  -10.2831    1.0000 </r>
       <r>   -5.8248    1.0000 </r>
       <r>   -4.9750    1.0000 </r>
       <r>   -2.6654    1.0000 </r>
       <r>   -2.4533    1.0000 </r>
       <r>   -2.0384    1.0000 </r>
       <r>   -1.5771    1.0000 </r>
       <r>   -1.1711    1.0000 </r>
       <r>   -0.9835    1.0000 </r>
       <r>   -0.7943    1.0000 </r>
       <r>   -0.6560    1.0000 </r>
       <r>   -0.5166    1.0000 </r>
       <r>   -0.3898    1.0000 </r>
       <r>   -0.2694    1.0000 </r>
       <r>   -0.2551    1.0000 </r>
       <r>   -0.1920    1.0000 </r>
       <r>   -0.1450    1.0000 </r>
       <r>   -0.0471    1.0000 </r>
       <r>    0.0134    1.0000 </r>
       <r>    1.2886    1.0000 </r>
       <r>    1.3095    1.0000 </r>
       <r>    1.3877    1.0000 </r>
       <r>    1.4073    1.0000 </r>
       <r>    1.4326    1.0000 </r>
       <r>    1.4543    1.0000 </r>
       <r>    1.4906    1.0000 </r>
       <r>    1.5635    1.0000 </r>
       <r>    1.6864    1.0000 </r>
       <r>    1.9145    1.0000 </r>
       <r>    1.9852    1.0000 </r>
       <r>    2.1443    1.0000 </r>
       <r>    2.3335    1.0000 </r>
       <r>    2.5642    1.0000 </r>
       <r>    2.6159    1.0000 </r>
       <r>    2.8284    1.0000 </r>
       <r>    2.9721    1.0000 </r>
       <r>    3.2476    1.0000 </r>
       <r>    3.6826    1.0000 </r>
       <r>    3.9429    1.0000 </r>
       <r>    6.1789   -0.0000 </r>
       <r>    6.6380   -0.0000 </r>
       <r>    7.7665   -0.0000 </r>
       <r>    7.9729   -0.0000 </r>
       <r>    8.2148    0.0000 </r>
       <r>    8.5625    0.0000 </r>
       <r>    9.3794    0.0000 </r>
       <r>    9.5773    0.0000 </r>
       <r>    9.9075    0.0000 </r>
       <r>   10.2507    0.0000 </r>
       <r>   10.5439    0.0000 </r>
       <r>   10.7876    0.0000 </r>
       <r>   10.8414    0.0000 </r>
       <r>   11.0686    0.0000 </r>
       <r>   11.5657    0.0000 </r>
       <r>   12.0215    0.0000 </r>
       <r>   12.5281    0.0000 </r>
       <r>   12.7519    0.0000 </r>
       <r>   12.9528    0.0000 </r>
       <r>   13.3081    0.0000 </r>
       <r>   13.4120    0.0000 </r>
       <r>   13.7396    0.0000 </r>
       <r>   13.8467    0.0000 </r>
       <r>   14.7131    0.0000 </r>
       <r>   15.0470    0.0000 </r>
       <r>   15.5520    0.0000 </r>
       <r>   15.9355    0.0000 </r>
       <r>   16.2668    0.0000 </r>
       <r>   16.3553    0.0000 </r>
       <r>   16.7082    0.0000 </r>
       <r>   16.8514    0.0000 </r>
       <r>   17.0254    0.0000 </r>
       <r>   17.6109    0.0000 </r>
       <r>   17.7851    0.0000 </r>
       <r>   18.0234    0.0000 </r>
       <r>   18.2899    0.0000 </r>
       <r>   18.5550    0.0000 </r>
       <r>   18.7671    0.0000 </r>
       <r>   19.0413    0.0000 </r>
       <r>   19.6944    0.0000 </r>
      </set>
      <set comment="kpoint 12">
       <r>  -68.6473    1.0000 </r>
       <r>  -68.6473    1.0000 </r>
       <r>  -68.6349    1.0000 </r>
       <r>  -68.6347    1.0000 </r>
       <r>  -68.6155    1.0000 </r>
       <r>  -68.6155    1.0000 </r>
       <r>  -68.5985    1.0000 </r>
       <r>  -68.5984    1.0000 </r>
       <r>  -68.5788    1.0000 </r>
       <r>  -68.5786    1.0000 </r>
       <r>  -68.5620    1.0000 </r>
       <r>  -68.5618    1.0000 </r>
       <r>  -12.3270    1.0000 </r>
       <r>  -11.4755    1.0000 </r>
       <r>  -10.8631    1.0000 </r>
       <r>  -10.8573    1.0000 </r>
       <r>  -10.4066    1.0000 </r>
       <r>  -10.2874    1.0000 </r>
       <r>   -5.7480    1.0000 </r>
       <r>   -4.6918    1.0000 </r>
       <r>   -2.2419    1.0000 </r>
       <r>   -2.1385    1.0000 </r>
       <r>   -1.9283    1.0000 </r>
       <r>   -1.8506    1.0000 </r>
       <r>   -1.4538    1.0000 </r>
       <r>   -1.3960    1.0000 </r>
       <r>   -1.0395    1.0000 </r>
       <r>   -0.5202    1.0000 </r>
       <r>   -0.4623    1.0000 </r>
       <r>   -0.3493    1.0000 </r>
       <r>   -0.2501    1.0000 </r>
       <r>   -0.2176    1.0000 </r>
       <r>   -0.1613    1.0000 </r>
       <r>   -0.1129    1.0000 </r>
       <r>   -0.0908    1.0000 </r>
       <r>    0.0797    1.0000 </r>
       <r>    1.2603    1.0000 </r>
       <r>    1.3460    1.0000 </r>
       <r>    1.3964    1.0000 </r>
       <r>    1.4338    1.0000 </r>
       <r>    1.4515    1.0000 </r>
       <r>    1.5088    1.0000 </r>
       <r>    1.5341    1.0000 </r>
       <r>    1.5419    1.0000 </r>
       <r>    1.7520    1.0000 </r>
       <r>    1.8169    1.0000 </r>
       <r>    2.0395    1.0000 </r>
       <r>    2.1337    1.0000 </r>
       <r>    2.2841    1.0000 </r>
       <r>    2.3096    1.0000 </r>
       <r>    2.5202    1.0000 </r>
       <r>    2.7684    1.0000 </r>
       <r>    2.8976    1.0000 </r>
       <r>    3.2613    1.0000 </r>
       <r>    3.4954    1.0000 </r>
       <r>    3.8000    1.0000 </r>
       <r>    6.1835   -0.0000 </r>
       <r>    6.8410   -0.0000 </r>
       <r>    7.8269   -0.0000 </r>
       <r>    8.0447   -0.0000 </r>
       <r>    8.1892    0.0000 </r>
       <r>    8.7271    0.0000 </r>
       <r>    9.1535    0.0000 </r>
       <r>    9.3063    0.0000 </r>
       <r>   10.2197    0.0000 </r>
       <r>   10.4413    0.0000 </r>
       <r>   10.5915    0.0000 </r>
       <r>   11.0057    0.0000 </r>
[...]
       <r>  -68.6155    1.0000 </r>
       <r>  -68.5984    1.0000 </r>
       <r>  -68.5982    1.0000 </r>
       <r>  -68.5787    1.0000 </r>
       <r>  -68.5786    1.0000 </r>
       <r>  -68.5619    1.0000 </r>
       <r>  -68.5619    1.0000 </r>
       <r>  -12.1790    1.0000 </r>
       <r>  -11.7061    1.0000 </r>
       <r>  -10.7170    1.0000 </r>
       <r>  -10.6933    1.0000 </r>
       <r>  -10.5865    1.0000 </r>
       <r>  -10.3920    1.0000 </r>
       <r>   -5.4457    1.0000 </r>
       <r>   -5.0721    1.0000 </r>
       <r>   -2.5084    1.0000 </r>
       <r>   -2.3806    1.0000 </r>
       <r>   -1.9636    1.0000 </r>
       <r>   -1.3675    1.0000 </r>
       <r>   -1.3313    1.0000 </r>
       <r>   -1.0542    1.0000 </r>
       <r>   -0.8324    1.0000 </r>
       <r>   -0.7667    1.0000 </r>
       <r>   -0.4234    1.0000 </r>
       <r>   -0.3391    1.0000 </r>
       <r>   -0.2720    1.0000 </r>
       <r>   -0.2095    1.0000 </r>
       <r>   -0.1419    1.0000 </r>
       <r>   -0.1409    1.0000 </r>
       <r>   -0.0136    1.0000 </r>
       <r>    0.0272    1.0000 </r>
       <r>    1.1719    1.0000 </r>
       <r>    1.3699    1.0000 </r>
       <r>    1.3959    1.0000 </r>
       <r>    1.4519    1.0000 </r>
       <r>    1.4526    1.0000 </r>
       <r>    1.4977    1.0000 </r>
       <r>    1.5159    1.0000 </r>
       <r>    1.5478    1.0000 </r>
       <r>    1.7429    1.0000 </r>
       <r>    1.8200    1.0000 </r>
       <r>    1.9734    1.0000 </r>
       <r>    2.2256    1.0000 </r>
       <r>    2.3964    1.0000 </r>
       <r>    2.6114    1.0000 </r>
       <r>    2.6543    1.0000 </r>
       <r>    2.9145    1.0000 </r>
       <r>    3.0684    1.0000 </r>
       <r>    3.1164    1.0000 </r>
       <r>    3.2858    1.0000 </r>
       <r>    3.5816    1.0000 </r>
       <r>    6.2908   -0.0000 </r>
       <r>    6.3796   -0.0000 </r>
       <r>    7.3573   -0.0000 </r>
       <r>    7.5245   -0.0000 </r>
       <r>    8.3089    0.0000 </r>
       <r>    8.3343    0.0000 </r>
       <r>    9.1051    0.0000 </r>
       <r>    9.3594    0.0000 </r>
       <r>    9.7166    0.0000 </r>
       <r>    9.9478    0.0000 </r>
       <r>   10.5247    0.0000 </r>
       <r>   10.9888    0.0000 </r>
       <r>   11.4245    0.0000 </r>
       <r>   11.5647    0.0000 </r>
       <r>   12.0180    0.0000 </r>
       <r>   12.2841    0.0000 </r>
       <r>   12.4275    0.0000 </r>
       <r>   12.4758    0.0000 </r>
       <r>   13.0182    0.0000 </r>
       <r>   13.1089    0.0000 </r>
       <r>   13.5170    0.0000 </r>
       <r>   13.9766    0.0000 </r>
       <r>   14.3414    0.0000 </r>
       <r>   14.9548    0.0000 </r>
       <r>   15.2363    0.0000 </r>
       <r>   15.3582    0.0000 </r>
       <r>   15.7611    0.0000 </r>
       <r>   15.7978    0.0000 </r>
       <r>   16.0185    0.0000 </r>
       <r>   16.4385    0.0000 </r>
       <r>   16.5148    0.0000 </r>
       <r>   16.9368    0.0000 </r>
       <r>   17.4914    0.0000 </r>
       <r>   17.7658    0.0000 </r>
       <r>   18.0982    0.0000 </r>
       <r>   18.2867    0.0000 </r>
       <r>   18.7080    0.0000 </r>
       <r>   19.0841    0.0000 </r>
       <r>   19.5886    0.0000 </r>
       <r>   20.1621    0.0000 </r>
      </set>
     </set>
    </set>
   </array>
  </eigenvalues>
  <separator name="orbital magnetization" >
   <v name="MAGDIPOLOUT">      0.00000000      0.00000000      0.00000000</v>
  </separator>
  <dos>
   <i name="efermi">      5.45368797 </i>
   <total>
    <array>
     <dimension dim="1">gridpoints</dimension>
     <dimension dim="2">spin</dimension>
     <field>energy</field>
     <field>total</field>
     <field>integrated</field>
     <set>
      <set comment="spin 1">
       <r>   234.1000  4637.8890   192.0000 </r>
       <r>   234.1414     0.0000   192.0000 </r>
       <r>   234.1828     0.0000   192.0000 </r>
       <r>   234.2242     0.0000   192.0000 </r>
       <r>   234.2655     0.0000   192.0000 </r>
       <r>   234.3069     0.0000   192.0000 </r>
       <r>   234.3483     0.0000   192.0000 </r>
       <r>   234.3897     0.0000   192.0000 </r>
       <r>   234.4311     0.0000   192.0000 </r>
       <r>   234.4725     0.0000   192.0000 </r>
       <r>   234.5139     0.0000   192.0000 </r>
       <r>   234.5553     0.0000   192.0000 </r>
       <r>   234.5967     0.0000   192.0000 </r>
       <r>   234.6381     0.0000   192.0000 </r>
       <r>   234.6795     0.0000   192.0000 </r>
       <r>   234.7209     0.0000   192.0000 </r>
       <r>   234.7623     0.0000   192.0000 </r>
       <r>   234.8037     0.0000   192.0000 </r>
       <r>   234.8451     0.0000   192.0000 </r>
       <r>   234.8865     0.0000   192.0000 </r>
       <r>   234.9279     0.0000   192.0000 </r>
       <r>   234.9693     0.0000   192.0000 </r>
       <r>   235.0107     0.0000   192.0000 </r>
       <r>   235.0521     0.0000   192.0000 </r>
       <r>   235.0935     0.0000   192.0000 </r>
       <r>   235.1349     0.0000   192.0000 </r>
       <r>   235.1763     0.0000   192.0000 </r>
       <r>   235.2177     0.0000   192.0000 </r>
       <r>   235.2591     0.0000   192.0000 </r>
       <r>   235.3005     0.0000   192.0000 </r>
       <r>   235.3419     0.0000   192.0000 </r>
       <r>   235.3833     0.0000   192.0000 </r>
       <r>   235.4247     0.0000   192.0000 </r>
       <r>   235.4661     0.0000   192.0000 </r>
       <r>   235.5075     0.0000   192.0000 </r>
       <r>   235.5489     0.0000   192.0000 </r>
       <r>   235.5903     0.0000   192.0000 </r>
       <r>   235.6317     0.0000   192.0000 </r>
       <r>   235.6731     0.0000   192.0000 </r>
       <r>   235.7145     0.0000   192.0000 </r>
       <r>   235.7559     0.0000   192.0000 </r>
       <r>   235.7973     0.0000   192.0000 </r>
       <r>   235.8387     0.0000   192.0000 </r>
       <r>   235.8801     0.0000   192.0000 </r>
       <r>   235.9215     0.0000   192.0000 </r>
       <r>   235.9629     0.0000   192.0000 </r>
       <r>   236.0043     0.0000   192.0000 </r>
       <r>   236.0457     0.0000   192.0000 </r>
       <r>   236.0871     0.0000   192.0000 </r>
       <r>   236.1285     0.0000   192.0000 </r>
       <r>   236.1699     0.0000   192.0000 </r>
       <r>   236.2113     0.0000   192.0000 </r>
       <r>   236.2527     0.0000   192.0000 </r>
       <r>   236.2941     0.0000   192.0000 </r>
       <r>   236.3355     0.0000   192.0000 </r>
       <r>   236.3769     0.0000   192.0000 </r>
       <r>   236.4183     0.0000   192.0000 </r>
       <r>   236.4597     0.0000   192.0000 </r>
       <r>   236.5010     0.0000   192.0000 </r>
       <r>   236.5424     0.0000   192.0000 </r>
       <r>   236.5838     0.0000   192.0000 </r>
       <r>   236.6252     0.0000   192.0000 </r>
       <r>   236.6666     0.0000   192.0000 </r>
       <r>   236.7080     0.0000   192.0000 </r>
       <r>   236.7494     0.0000   192.0000 </r>
       <r>   236.7908     0.0000   192.0000 </r>
       <r>   236.8322     0.0000   192.0000 </r>
       <r>   236.8736     0.0000   192.0000 </r>
       <r>   236.9150     0.0000   192.0000 </r>
       <r>   236.9564     0.0000   192.0000 </r>
       <r>   236.9978     0.0000   192.0000 </r>
       <r>   237.0392     0.0000   192.0000 </r>
       <r>   237.0806     0.0000   192.0000 </r>
       <r>   237.1220     0.0000   192.0000 </r>
       <r>   237.1634     0.0000   192.0000 </r>
       <r>   237.2048     0.0000   192.0000 </r>
       <r>   237.2462     0.0000   192.0000 </r>
       <r>   237.2876     0.0000   192.0000 </r>
       <r>   237.3290     0.0000   192.0000 </r>
       <r>   237.3704     0.0000   192.0000 </r>
       <r>   237.4118     0.0000   192.0000 </r>
       <r>   237.4532     0.0000   192.0000 </r>
       <r>   237.4946     0.0000   192.0000 </r>
       <r>   237.5360     0.0000   192.0000 </r>
       <r>   237.5774     0.0000   192.0000 </r>
       <r>   237.6188     0.0000   192.0000 </r>
       <r>   237.6602     0.0000   192.0000 </r>
       <r>   237.7016     0.0000   192.0000 </r>
       <r>   237.7430     0.0000   192.0000 </r>
       <r>   237.7844     0.0000   192.0000 </r>
       <r>   237.8258     0.0000   192.0000 </r>
       <r>   237.8672     0.0000   192.0000 </r>
       <r>   237.9086     0.0000   192.0000 </r>
       <r>   237.9500     0.0000   192.0000 </r>
       <r>   237.9914     0.0000   192.0000 </r>
       <r>   238.0328     0.0000   192.0000 </r>
       <r>   238.0742     0.0000   192.0000 </r>
       <r>   238.1156     0.0000   192.0000 </r>
       <r>   238.1570     0.0000   192.0000 </r>
       <r>   238.1984     0.0000   192.0000 </r>
       <r>   238.2398     0.0000   192.0000 </r>
       <r>   238.2812     0.0000   192.0000 </r>
       <r>   238.3226     0.0000   192.0000 </r>
       <r>   238.3640     0.0000   192.0000 </r>
       <r>   238.4054     0.0000   192.0000 </r>
       <r>   238.4468     0.0000   192.0000 </r>
       <r>   238.4882     0.0000   192.0000 </r>
       <r>   238.5296     0.0000   192.0000 </r>
       <r>   238.5710     0.0000   192.0000 </r>
       <r>   238.6124     0.0000   192.0000 </r>
       <r>   238.6538     0.0000   192.0000 </r>
       <r>   238.6952     0.0000   192.0000 </r>
       <r>   238.7365     0.0000   192.0000 </r>
       <r>   238.7779     0.0000   192.0000 </r>
       <r>   238.8193     0.0000   192.0000 </r>
       <r>   238.8607     0.0000   192.0000 </r>
       <r>   238.9021     0.0000   192.0000 </r>
       <r>   238.9435     0.0000   192.0000 </r>
       <r>   238.9849     0.0000   192.0000 </r>
       <r>   239.0263     0.0000   192.0000 </r>
       <r>   239.0677     0.0000   192.0000 </r>
       <r>   239.1091     0.0000   192.0000 </r>
       <r>   239.1505     0.0000   192.0000 </r>
       <r>   239.1919     0.0000   192.0000 </r>
       <r>   239.2333     0.0000   192.0000 </r>
       <r>   239.2747     0.0000   192.0000 </r>
       <r>   239.3161     0.0000   192.0000 </r>
       <r>   239.3575     0.0000   192.0000 </r>
       <r>   239.3989     0.0000   192.0000 </r>
       <r>   239.4403     0.0000   192.0000 </r>
       <r>   239.4817     0.0000   192.0000 </r>
       <r>   239.5231     0.0000   192.0000 </r>
       <r>   239.5645     0.0000   192.0000 </r>
       <r>   239.6059     0.0000   192.0000 </r>
       <r>   239.6473     0.0000   192.0000 </r>
       <r>   239.6887     0.0000   192.0000 </r>
       <r>   239.7301     0.0000   192.0000 </r>
       <r>   239.7715     0.0000   192.0000 </r>
       <r>   239.8129     0.0000   192.0000 </r>
       <r>   239.8543     0.0000   192.0000 </r>
       <r>   239.8957     0.0000   192.0000 </r>
       <r>   239.9371     0.0000   192.0000 </r>
       <r>   239.9785     0.0000   192.0000 </r>
       <r>   240.0199     0.0000   192.0000 </r>
       <r>   240.0613     0.0000   192.0000 </r>
       <r>   240.1027     0.0000   192.0000 </r>
       <r>   240.1441     0.0000   192.0000 </r>
       <r>   240.1855     0.0000   192.0000 </r>
       <r>   240.2269     0.0000   192.0000 </r>
       <r>   240.2683     0.0000   192.0000 </r>
       <r>   240.3097     0.0000   192.0000 </r>
       <r>   240.3511     0.0000   192.0000 </r>
       <r>   240.3925     0.0000   192.0000 </r>
       <r>   240.4339     0.0000   192.0000 </r>
       <r>   240.4753     0.0000   192.0000 </r>
       <r>   240.5167     0.0000   192.0000 </r>
       <r>   240.5581     0.0000   192.0000 </r>
       <r>   240.5995     0.0000   192.0000 </r>
       <r>   240.6409     0.0000   192.0000 </r>
       <r>   240.6823     0.0000   192.0000 </r>
       <r>   240.7237     0.0000   192.0000 </r>
       <r>   240.7651     0.0000   192.0000 </r>
       <r>   240.8065     0.0000   192.0000 </r>
       <r>   240.8479     0.0000   192.0000 </r>
       <r>   240.8893     0.0000   192.0000 </r>
       <r>   240.9307     0.0000   192.0000 </r>
       <r>   240.9720     0.0000   192.0000 </r>
       <r>   241.0134     0.0000   192.0000 </r>
       <r>   241.0548     0.0000   192.0000 </r>
       <r>   241.0962     0.0000   192.0000 </r>
       <r>   241.1376     0.0000   192.0000 </r>
       <r>   241.1790     0.0000   192.0000 </r>
       <r>   241.2204     0.0000   192.0000 </r>
       <r>   241.2618     0.0000   192.0000 </r>
       <r>   241.3032     0.0000   192.0000 </r>
       <r>   241.3446     0.0000   192.0000 </r>
       <r>   241.3860     0.0000   192.0000 </r>
       <r>   241.4274     0.0000   192.0000 </r>
       <r>   241.4688     0.0000   192.0000 </r>
       <r>   241.5102     0.0000   192.0000 </r>
       <r>   241.5516     0.0000   192.0000 </r>
       <r>   241.5930     0.0000   192.0000 </r>
       <r>   241.6344     0.0000   192.0000 </r>
       <r>   241.6758     0.0000   192.0000 </r>
       <r>   241.7172     0.0000   192.0000 </r>
       <r>   241.7586     0.0000   192.0000 </r>
       <r>   241.8000     0.0000   192.0000 </r>
       <r>   241.8414     0.0000   192.0000 </r>
       <r>   241.8828     0.0000   192.0000 </r>
       <r>   241.9242     0.0000   192.0000 </r>
       <r>   241.9656     0.0000   192.0000 </r>
       <r>   242.0070     0.0000   192.0000 </r>
       <r>   242.0484     0.0000   192.0000 </r>
       <r>   242.0898     0.0000   192.0000 </r>
       <r>   242.1312     0.0000   192.0000 </r>
       <r>   242.1726     0.0000   192.0000 </r>
       <r>   242.2140     0.0000   192.0000 </r>
       <r>   242.2554     0.0000   192.0000 </r>
       <r>   242.2968     0.0000   192.0000 </r>
       <r>   242.3382     0.0000   192.0000 </r>
       <r>   242.3796     0.0000   192.0000 </r>
       <r>   242.4210     0.0000   192.0000 </r>
       <r>   242.4624     0.0000   192.0000 </r>
       <r>   242.5038     0.0000   192.0000 </r>
       <r>   242.5452     0.0000   192.0000 </r>
       <r>   242.5866     0.0000   192.0000 </r>
       <r>   242.6280     0.0000   192.0000 </r>
       <r>   242.6694     0.0000   192.0000 </r>
       <r>   242.7108     0.0000   192.0000 </r>
       <r>   242.7522     0.0000   192.0000 </r>
       <r>   242.7936     0.0000   192.0000 </r>
       <r>   242.8350     0.0000   192.0000 </r>
       <r>   242.8764     0.0000   192.0000 </r>
       <r>   242.9178     0.0000   192.0000 </r>
       <r>   242.9592     0.0000   192.0000 </r>
       <r>   243.0006     0.0000   192.0000 </r>
       <r>   243.0420     0.0000   192.0000 </r>
       <r>   243.0834     0.0000   192.0000 </r>
       <r>   243.1248     0.0000   192.0000 </r>
       <r>   243.1661     0.0000   192.0000 </r>
       <r>   243.2075     0.0000   192.0000 </r>
       <r>   243.2489     0.0000   192.0000 </r>
       <r>   243.2903     0.0000   192.0000 </r>
       <r>   243.3317     0.0000   192.0000 </r>
       <r>   243.3731     0.0000   192.0000 </r>
       <r>   243.4145     0.0000   192.0000 </r>
       <r>   243.4559     0.0000   192.0000 </r>
       <r>   243.4973     0.0000   192.0000 </r>
       <r>   243.5387     0.0000   192.0000 </r>
       <r>   243.5801     0.0000   192.0000 </r>
       <r>   243.6215     0.0000   192.0000 </r>
       <r>   243.6629     0.0000   192.0000 </r>
       <r>   243.7043     0.0000   192.0000 </r>
       <r>   243.7457     0.0000   192.0000 </r>
       <r>   243.7871     0.0000   192.0000 </r>
       <r>   243.8285     0.0000   192.0000 </r>
       <r>   243.8699     0.0000   192.0000 </r>
       <r>   243.9113     0.0000   192.0000 </r>
       <r>   243.9527     0.0000   192.0000 </r>
       <r>   243.9941     0.0000   192.0000 </r>
       <r>   244.0355     0.0000   192.0000 </r>
       <r>   244.0769     0.0000   192.0000 </r>
       <r>   244.1183     0.0000   192.0000 </r>
       <r>   244.1597     0.0000   192.0000 </r>
       <r>   244.2011     0.0000   192.0000 </r>
       <r>   244.2425     0.0000   192.0000 </r>
       <r>   244.2839     0.0000   192.0000 </r>
       <r>   244.3253     0.0000   192.0000 </r>
       <r>   244.3667     0.0000   192.0000 </r>
       <r>   244.4081     0.0000   192.0000 </r>
       <r>   244.4495     0.0000   192.0000 </r>
       <r>   244.4909     0.0000   192.0000 </r>
       <r>   244.5323     0.0000   192.0000 </r>
       <r>   244.5737     0.0000   192.0000 </r>
       <r>   244.6151     0.0000   192.0000 </r>
       <r>   244.6565     0.0000   192.0000 </r>
       <r>   244.6979     0.0000   192.0000 </r>
       <r>   244.7393     0.0000   192.0000 </r>
       <r>   244.7807     0.0000   192.0000 </r>
       <r>   244.8221     0.0000   192.0000 </r>
       <r>   244.8635     0.0000   192.0000 </r>
       <r>   244.9049     0.0000   192.0000 </r>
       <r>   244.9463     0.0000   192.0000 </r>
       <r>   244.9877     0.0000   192.0000 </r>
       <r>   245.0291     0.0000   192.0000 </r>
       <r>   245.0705     0.0000   192.0000 </r>
       <r>   245.1119     0.0000   192.0000 </r>
       <r>   245.1533     0.0000   192.0000 </r>
       <r>   245.1947     0.0000   192.0000 </r>
       <r>   245.2361     0.0000   192.0000 </r>
       <r>   245.2775     0.0000   192.0000 </r>
       <r>   245.3189     0.0000   192.0000 </r>
       <r>   245.3603     0.0000   192.0000 </r>
       <r>   245.4016     0.0000   192.0000 </r>
       <r>   245.4430     0.0000   192.0000 </r>
       <r>   245.4844     0.0000   192.0000 </r>
       <r>   245.5258     0.0000   192.0000 </r>
       <r>   245.5672     0.0000   192.0000 </r>
       <r>   245.6086     0.0000   192.0000 </r>
       <r>   245.6500     0.0000   192.0000 </r>
       <r>   245.6914     0.0000   192.0000 </r>
       <r>   245.7328     0.0000   192.0000 </r>
       <r>   245.7742     0.0000   192.0000 </r>
       <r>   245.8156     0.0000   192.0000 </r>
       <r>   245.8570     0.0000   192.0000 </r>
       <r>   245.8984     0.0000   192.0000 </r>
       <r>   245.9398     0.0000   192.0000 </r>
       <r>   245.9812     0.0000   192.0000 </r>
       <r>   246.0226     0.0000   192.0000 </r>
       <r>   246.0640     0.0000   192.0000 </r>
       <r>   246.1054     0.0000   192.0000 </r>
       <r>   246.1468     0.0000   192.0000 </r>
       <r>   246.1882     0.0000   192.0000 </r>
       <r>   246.2296     0.0000   192.0000 </r>
       <r>   246.2710     0.0000   192.0000 </r>
       <r>   246.3124     0.0000   192.0000 </r>
       <r>   246.3538     0.0000   192.0000 </r>
       <r>   246.3952     0.0000   192.0000 </r>
       <r>   246.4366     0.0000   192.0000 </r>
       <r>   246.4780     0.0000   192.0000 </r>
       <r>   246.5194     0.0000   192.0000 </r>
      </set>
     </set>
    </array>
   </total>
  </dos>
 </calculation>
 <structure name="finalpos" >
  <crystal>
   <varray name="basis" >
    <v>       3.22479647      -5.64383018       0.03157213 </v>
    <v>       3.22479647       5.64383018       0.03157213 </v>
    <v>      -2.10194579       0.00000000       6.07553668 </v>
   </varray>
   <i name="volume">    221.90109143 </i>
   <varray name="rec_basis" >
    <v>       0.15452514      -0.08859232       0.05346087 </v>
    <v>       0.15452514       0.08859232       0.05346087 </v>
    <v>      -0.00160601       0.00000000       0.16403888 </v>
   </varray>
  </crystal>
  <varray name="positions" >
   <v>       0.61844308       0.12117076       0.11953328 </v>
   <v>       0.12117076       0.61844308       0.61953328 </v>
   <v>       0.96295720       0.79032246       0.11881301 </v>
   <v>       0.79032246       0.96295720       0.61881301 </v>
   <v>       0.43973248       0.26728095       0.59904726 </v>
   <v>       0.26728095       0.43973248       0.09904726 </v>
   <v>       0.07949812       0.91167484       0.49736283 </v>
   <v>       0.57140289       0.41236375       0.98018407 </v>
   <v>       0.73711057       0.25006189       0.49504855 </v>
   <v>       0.41236375       0.57140289       0.48018407 </v>
   <v>       0.91167484       0.07949812       0.99736283 </v>
   <v>       0.25006189       0.73711057       0.99504855 </v>
  </varray>
 </structure>
</modeling>
