       N       E                     dE             d eps       ncg     rms          ort
SDA:   1     0.755193707483E+02    0.75519E+02   -0.21316E+03  3360   0.533E+03 0.000E+00
DMP:   2    -0.838419932306E+01   -0.83904E+02   -0.14687E+03  3360   0.395E+03-0.737E+02
DMP:   3    -0.151661553388E+02   -0.67820E+01   -0.20382E+03  3360   0.694E+03-0.482E+03
DMP:   4    -0.226402845062E+02   -0.74741E+01   -0.10742E+03  3360   0.391E+03-0.319E+03
DMP:   5    -0.608085061390E+02   -0.38168E+02   -0.15079E+02  3360   0.707E+02-0.863E+02
DMP:   6    -0.659272357670E+02   -0.51187E+01   -0.81872E+01  3360   0.247E+02-0.111E+02
DMP:   7    -0.674686661358E+02   -0.15414E+01   -0.41448E+01  3360   0.147E+02-0.115E+02
DMP:   8    -0.690834309946E+02   -0.16148E+01   -0.77266E+00  3360   0.284E+01-0.238E+01
DMP:   9    -0.693944666507E+02   -0.31104E+00   -0.38680E+00  3360   0.111E+01-0.366E+00
DMP:  10    -0.694982806955E+02   -0.10381E+00   -0.15269E+00  3360   0.549E+00-0.438E+00
DMP:  11    -0.695680448252E+02   -0.69764E-01   -0.36888E-01  3360   0.105E+00-0.341E-01
DMP:  12    -0.695803880821E+02   -0.12343E-01   -0.22888E-01  3360   0.691E-01-0.310E-01
DMP:  13    -0.695900612293E+02   -0.96731E-02   -0.51270E-02  3360   0.162E-01-0.880E-02
DMP:  14    -0.695925224761E+02   -0.24612E-02   -0.37871E-02  3360   0.966E-02-0.503E-03
DMP:  15    -0.695940313624E+02   -0.15089E-02   -0.10400E-02  3360   0.334E-02-0.193E-02
DMP:  16    -0.695946040915E+02   -0.57273E-03   -0.41057E-03  3360   0.918E-03 0.283E-03
DMP:  17    -0.695947778958E+02   -0.17380E-03   -0.20926E-03  3360   0.581E-03-0.151E-03
DMP:  18    -0.695948953687E+02   -0.11747E-03   -0.56432E-04  3360   0.120E-03 0.561E-04
DMP:  19    -0.695949244386E+02   -0.29070E-04   -0.35442E-04  3360   0.886E-04 0.593E-07
DMP:  20    -0.695949443230E+02   -0.19884E-04   -0.11653E-04  3360   0.243E-04 0.128E-04
DMP:  21    -0.695949517738E+02   -0.74509E-05   -0.70669E-05  3360   0.141E-04 0.927E-05
   1 F= -.69594952E+02 E0= -.69595147E+02  d E =0.585699E-03
