       N       E                     dE             d eps       ncg     rms          ort
SDA:   1     0.755410693067E+02    0.75541E+02   -0.21316E+03  3360   0.533E+03 0.000E+00
DMP:   2    -0.838522104554E+01   -0.83926E+02   -0.14686E+03  3360   0.395E+03-0.737E+02
DMP:   3    -0.152226484515E+02   -0.68374E+01   -0.20331E+03  3360   0.691E+03-0.479E+03
DMP:   4    -0.227088414111E+02   -0.74862E+01   -0.10727E+03  3360   0.390E+03-0.319E+03
DMP:   5    -0.608258701849E+02   -0.38117E+02   -0.15047E+02  3360   0.705E+02-0.861E+02
DMP:   6    -0.659394135871E+02   -0.51135E+01   -0.81645E+01  3360   0.246E+02-0.111E+02
DMP:   7    -0.674760698457E+02   -0.15367E+01   -0.41304E+01  3360   0.147E+02-0.114E+02
DMP:   8    -0.690856857004E+02   -0.16096E+01   -0.76967E+00  3360   0.283E+01-0.237E+01
DMP:   9    -0.693950189185E+02   -0.30933E+00   -0.38617E+00  3360   0.111E+01-0.368E+00
DMP:  10    -0.694987815629E+02   -0.10376E+00   -0.15203E+00  3360   0.547E+00-0.437E+00
DMP:  11    -0.695683006412E+02   -0.69519E-01   -0.36925E-01  3360   0.105E+00-0.337E-01
DMP:  12    -0.695806534781E+02   -0.12353E-01   -0.22812E-01  3360   0.689E-01-0.310E-01
DMP:  13    -0.695902968344E+02   -0.96434E-02   -0.51155E-02  3360   0.161E-01-0.875E-02
DMP:  14    -0.695927470201E+02   -0.24502E-02   -0.37740E-02  3360   0.964E-02-0.529E-03
DMP:  15    -0.695942490250E+02   -0.15020E-02   -0.10353E-02  3360   0.333E-02-0.193E-02
DMP:  16    -0.695948180801E+02   -0.56906E-03   -0.40825E-03  3360   0.915E-03 0.276E-03
DMP:  17    -0.695949903802E+02   -0.17230E-03   -0.20831E-03  3360   0.579E-03-0.152E-03
DMP:  18    -0.695951070461E+02   -0.11667E-03   -0.55866E-04  3360   0.119E-03 0.544E-04
DMP:  19    -0.695951357073E+02   -0.28661E-04   -0.35122E-04  3360   0.880E-04-0.576E-06
DMP:  20    -0.695951553351E+02   -0.19628E-04   -0.11493E-04  3360   0.240E-04 0.123E-04
DMP:  21    -0.695951626626E+02   -0.73275E-05   -0.69685E-05  3360   0.140E-04 0.903E-05
   1 F= -.69595163E+02 E0= -.69595360E+02  d E =0.593428E-03
