 vasp.5.3.3 18Dez12 (build Nov 13 2015 09:58:40) complex                        
  
 executed on             LinuxIFC date 2017.10.18  13:12:37
 running on   48 total cores
 distrk:  each k-point on   16 cores,    3 groups
 distr:  one band on NCORES_PER_BAND=   1 cores,   16 groups


--------------------------------------------------------------------------------------------------------


 INCAR:
 POTCAR:    PAW_PBE Cu_pv 06Sep2000               
 POTCAR:    PAW_PBE Ge 05Jan2001                  
 POTCAR:    PAW_PBE S 17Jan2003                   

 ----------------------------------------------------------------------------- 
|                                                                             |
|           W    W    AA    RRRRR   N    N  II  N    N   GGGG   !!!           |
|           W    W   A  A   R    R  NN   N  II  NN   N  G    G  !!!           |
|           W    W  A    A  R    R  N N  N  II  N N  N  G       !!!           |
|           W WW W  AAAAAA  RRRRR   N  N N  II  N  N N  G  GGG   !            |
|           WW  WW  A    A  R   R   N   NN  II  N   NN  G    G                |
|           W    W  A    A  R    R  N    N  II  N    N   GGGG   !!!           |
|                                                                             |
|      For optimal performance we recommend that you set                      |
|        NPAR = 4 - approx SQRT( number of cores)                             |
|      (number of cores/NPAR must be integer)                                 |
|      This setting will greatly improve the performance of VASP for DFT.     |
|      The default NPAR=number of cores might be grossly inefficient          |
|      on modern multi-core architectures or massively parallel machines.     |
|      Do your own testing.                                                   |
|      Unfortunately you need to use the default for hybrid, GW and RPA       |
|      calculations.                                                          |
|                                                                             |
 ----------------------------------------------------------------------------- 


 ----------------------------------------------------------------------------- 
|                                                                             |
|           W    W    AA    RRRRR   N    N  II  N    N   GGGG   !!!           |
|           W    W   A  A   R    R  NN   N  II  NN   N  G    G  !!!           |
|           W    W  A    A  R    R  N N  N  II  N N  N  G       !!!           |
|           W WW W  AAAAAA  RRRRR   N  N N  II  N  N N  G  GGG   !            |
|           WW  WW  A    A  R   R   N   NN  II  N   NN  G    G                |
|           W    W  A    A  R    R  N    N  II  N    N   GGGG   !!!           |
|                                                                             |
|      You have enabled k-point parallelism (KPAR>1).                         |
|      This developmental code was originally  written by Paul Kent at ORNL,  |
|      and carefully double checked in Vienna.                                |
|      GW as well as linear response parallelism added by Martijn Marsman     |
|      and Georg Kresse.                                                      |
|      Carefully verify results versus KPAR=1.                                |
|      Report problems to Paul Kent and Vienna.                               |
|                                                                             |
 ----------------------------------------------------------------------------- 

 POTCAR:    PAW_PBE Cu_pv 06Sep2000               
   VRHFIN =Cu: d10 p1                                                           
   LEXCH  = PE                                                                  
   EATOM  =  4120.1201 eV,  302.8203 Ry                                         
                                                                                
   TITEL  = PAW_PBE Cu_pv 06Sep2000                                             
   LULTRA =        F    use ultrasoft PP ?                                      
   IUNSCR =        1    unscreen: 0-lin 1-nonlin 2-no                           
   RPACOR =    1.500    partial core radius                                     
   POMASS =   63.546; ZVAL   =   17.000    mass and valenz                      
   RCORE  =    2.000    outmost cutoff radius                                   
   RWIGS  =    2.000; RWIGS  =    1.058    wigner-seitz radius (au A)           
   ENMAX  =  368.648; ENMIN  =  276.486 eV                                      
   RCLOC  =    1.304    cutoff for local pot                                    
   LCOR   =        T    correct aug charges                                     
   LPAW   =        T    paw PP                                                  
   EAUG   =  758.233                                                            
   DEXC   =    0.000                                                            
   RMAX   =    2.046    core radius for proj-oper                               
   RAUG   =    1.300    factor for augmentation sphere                          
   RDEP   =    2.025    radius for radial grids                                 
   RDEPT  =    1.558    core radius for aug-charge                              
                                                                                
   Atomic configuration                                                         
    8 entries                                                                   
     n  l   j            E        occ.                                          
     1  0  0.50     -8850.2467   2.0000                                         
     2  0  0.50     -1062.3498   2.0000                                         
     2  1  1.50      -916.8226   6.0000                                         
     3  0  0.50      -114.6929   2.0000                                         
     3  1  1.50       -72.1325   6.0000                                         
     3  2  2.50        -5.0394  10.0000                                         
     4  0  0.50        -4.6097   1.0000                                         
     4  3  2.50        -1.3606   0.0000                                         
   Description                                                                  
     l       E           TYP  RCUT    TYP  RCUT                                 
     1    -72.1324777     23  1.700                                             
     1     -1.3605826     23  1.700                                             
     2     -5.0393776     23  2.000                                             
     2     -6.3999602     23  2.000                                             
     0     -4.6097062     23  1.800                                             
     0     14.1620818     23  1.800                                             
  local pseudopotential read in
  partial core-charges read in
  partial kinetic energy density read in
  atomic valenz-charges read in
  non local Contribution for L=           1  read in
    real space projection operators read in
  non local Contribution for L=           1  read in
    real space projection operators read in
  non local Contribution for L=           2  read in
    real space projection operators read in
  non local Contribution for L=           2  read in
    real space projection operators read in
  non local Contribution for L=           0  read in
    real space projection operators read in
  non local Contribution for L=           0  read in
    real space projection operators read in
    PAW grid and wavefunctions read in
 
   number of l-projection  operators is LMAX  =           6
   number of lm-projection operators is LMMAX =          18
 
 POTCAR:    PAW_PBE Ge 05Jan2001                  
   VRHFIN =Ge: s2p2                                                             
   LEXCH  = PE                                                                  
   EATOM  =   104.9960 eV,    7.7170 Ry                                         
                                                                                
   TITEL  = PAW_PBE Ge 05Jan2001                                                
   LULTRA =        F    use ultrasoft PP ?                                      
   IUNSCR =        1    unscreen: 0-lin 1-nonlin 2-no                           
   RPACOR =    2.170    partial core radius                                     
   POMASS =   72.610; ZVAL   =    4.000    mass and valenz                      
   RCORE  =    2.300    outmost cutoff radius                                   
   RWIGS  =    2.300; RWIGS  =    1.217    wigner-seitz radius (au A)           
   ENMAX  =  173.807; ENMIN  =  130.355 eV                                      
   ICORE  =        3    local potential                                         
   LCOR   =        T    correct aug charges                                     
   LPAW   =        T    paw PP                                                  
   EAUG   =  385.843                                                            
   DEXC   =    0.000                                                            
   RMAX   =    2.342    core radius for proj-oper                               
   RAUG   =    1.300    factor for augmentation sphere                          
   RDEP   =    2.318    radius for radial grids                                 
   RDEPT  =    2.103    core radius for aug-charge                              
                                                                                
   Atomic configuration                                                         
   10 entries                                                                   
     n  l   j            E        occ.                                          
     1  0  0.50    -10959.8463   2.0000                                         
     2  0  0.50     -1371.6056   2.0000                                         
     2  1  1.50     -1198.4791   6.0000                                         
     3  0  0.50      -168.4733   2.0000                                         
     3  1  1.50      -115.6019   6.0000                                         
     3  2  2.50       -29.3106  10.0000                                         
     4  0  0.50       -11.7309   2.0000                                         
     4  1  0.50        -3.8952   2.0000                                         
     4  2  1.50        -4.0817   0.0000                                         
     4  3  2.50        -4.0817   0.0000                                         
   Description                                                                  
     l       E           TYP  RCUT    TYP  RCUT                                 
     0    -11.7309493     23  2.300                                             
     0     -7.4578696     23  2.300                                             
     1     -3.8952261     23  2.300                                             
     1      6.1178114     23  2.300                                             
     2     -4.0817478     23  2.300                                             
     3     -1.3605826      7  2.300                                             
  local pseudopotential read in
  partial core-charges read in
  partial kinetic energy density read in
  atomic valenz-charges read in
  non local Contribution for L=           0  read in
    real space projection operators read in
  non local Contribution for L=           0  read in
    real space projection operators read in
  non local Contribution for L=           1  read in
    real space projection operators read in
  non local Contribution for L=           1  read in
    real space projection operators read in
  non local Contribution for L=           2  read in
    real space projection operators read in
    PAW grid and wavefunctions read in
 
   number of l-projection  operators is LMAX  =           5
   number of lm-projection operators is LMMAX =          13
 
 POTCAR:    PAW_PBE S 17Jan2003                   
   VRHFIN =S : s2p4                                                             
   LEXCH  = PE                                                                  
   EATOM  =   276.8230 eV,   20.3459 Ry                                         
                                                                                
   TITEL  = PAW_PBE S 17Jan2003                                                 
   LULTRA =        F    use ultrasoft PP ?                                      
   IUNSCR =        1    unscreen: 0-lin 1-nonlin 2-no                           
   RPACOR =    1.500    partial core radius                                     
   POMASS =   32.066; ZVAL   =    6.000    mass and valenz                      
   RCORE  =    1.900    outmost cutoff radius                                   
   RWIGS  =    2.200; RWIGS  =    1.164    wigner-seitz radius (au A)           
   ENMAX  =  280.000; ENMIN  =  194.016 eV                                      
   ICORE  =        2    local potential                                         
   LCOR   =        T    correct aug charges                                     
   LPAW   =        T    paw PP                                                  
   EAUG   =  335.092                                                            
   DEXC   =     .000                                                            
   RMAX   =    2.867    core radius for proj-oper                               
   RAUG   =    1.300    factor for augmentation sphere                          
   RDEP   =    1.954    radius for radial grids                                 
   QCUT   =   -4.360; QGAM   =    8.721    optimization parameters              
                                                                                
   Description                                                                  
     l     E      TYP  RCUT    TYP  RCUT                                        
     0   .000     23  1.900                                                     
     0   .000     23  1.900                                                     
     1   .000     23  1.900                                                     
     1   .000     23  1.900                                                     
     2   .000     23  1.900                                                     
  local pseudopotential read in
  partial core-charges read in
  atomic valenz-charges read in
  non local Contribution for L=           0  read in
    real space projection operators read in
  non local Contribution for L=           0  read in
    real space projection operators read in
  non local Contribution for L=           1  read in
    real space projection operators read in
  non local Contribution for L=           1  read in
    real space projection operators read in
    PAW grid and wavefunctions read in
 
   number of l-projection  operators is LMAX  =           4
   number of lm-projection operators is LMMAX =           8
 
  PAW_PBE Cu_pv 06Sep2000               :
 energy of atom  1       EATOM=-4120.1201
 kinetic energy error for atom=    0.0996 (will be added to EATOM!!)
  PAW_PBE Ge 05Jan2001                  :
 energy of atom  2       EATOM= -104.9960
 kinetic energy error for atom=    0.0003 (will be added to EATOM!!)
  PAW_PBE S 17Jan2003                   :
 energy of atom  3       EATOM= -276.8230
 kinetic energy error for atom=    0.0046 (will be added to EATOM!!)
 
 
 POSCAR: Cu Ge S                                 
  positions in direct lattice
  No initial velocities read in
 exchange correlation table for  LEXCH =        8
   RHO(1)=    0.500       N(1)  =     2000
   RHO(2)=  100.500       N(2)  =     4000
 


--------------------------------------------------------------------------------------------------------


 ion  position               nearest neighbor table
   1  0.618  0.121  0.120-   9 2.29  11 2.29  12 2.30   8 2.35
   2  0.121  0.618  0.620-  12 2.29   7 2.29   9 2.30  10 2.35
   3  0.963  0.790  0.119-  11 2.30  12 2.30   7 2.31   8 2.36
   4  0.790  0.963  0.619-   7 2.30   9 2.30  11 2.31  10 2.36
   5  0.440  0.267  0.599-   7 2.19   9 2.19  10 2.31   8 2.33
   6  0.267  0.440  0.099-  11 2.19  12 2.19   8 2.30  10 2.33
   7  0.079  0.912  0.497-   5 2.19   2 2.29   4 2.30   3 2.31
   8  0.570  0.412  0.980-   6 2.30   5 2.33   1 2.35   3 2.36
   9  0.737  0.250  0.495-   5 2.19   1 2.29   4 2.30   2 2.30
  10  0.412  0.571  0.480-   5 2.31   6 2.33   2 2.35   4 2.36
  11  0.912  0.079  0.997-   6 2.19   1 2.29   3 2.30   4 2.31
  12  0.250  0.737  0.995-   6 2.19   2 2.29   3 2.30   1 2.30
 
  Warning from LATTYP: Got some problem with cell dimensions!
  Tried to take original basis but could not verify dimensions!
  LATTYP: Found a base centered monoclinic cell.
 ALAT       =     6.4499010947
 B/A-ratio  =     1.7500516418
 C/A-ratio  =     1.9305142024
 COS(beta)  =    -0.4326083233
  
  Lattice vectors:
  
 A1 = (   3.2247960000,   5.6438300000,   0.0315720000)
 A2 = (   3.2247960000,  -5.6438300000,   0.0315720000)
 A3 = ( -10.7972380000,   0.0000000000,  -6.2018250000)


Analysis of symmetry for initial positions (statically):
=====================================================================
 Subroutine PRICEL returns:
 Original cell was already a primitive cell.
 

 Routine SETGRP: Setting up the symmetry group for a 
 base centered monoclinic supercell.


 Subroutine GETGRP returns: Found  1 space group operations
 (whereof  1 operations were pure point group operations)
 out of a pool of  4 trial point group operations.


The static configuration has the point symmetry C_1 .


Analysis of symmetry for dynamics (positions and initial velocities):
=====================================================================
 Subroutine PRICEL returns:
 Original cell was already a primitive cell.
 

 Routine SETGRP: Setting up the symmetry group for a 
 base centered monoclinic supercell.


 Subroutine GETGRP returns: Found  1 space group operations
 (whereof  1 operations were pure point group operations)
 out of a pool of  4 trial point group operations.


The dynamic configuration has the point symmetry C_1 .


 irot  :   1
 --------------------------------------------------------------------
 isymop:   1   0   0
           0   1   0
           0   0   1

 gtrans:     0.0000000     0.0000000     0.0000000

 ptrans:     0.0000000     0.0000000     0.0000000
 rotmap:
 (   1->   1)  (   2->   2)  (   3->   3)  (   4->   4)  (   5->   5) 
 (   6->   6)  (   7->   7)  (   8->   8)  (   9->   9)  (  10->  10) 
 (  11->  11)  (  12->  12) 
 
 
 KPOINTS: pymatgen 4.7.6+ generated KPOINTS with g

Automatic generation of k-mesh.
Space group operators:
 irot       det(A)        alpha          n_x          n_y          n_z        tau_x        tau_y        tau_z
    1     1.000000     0.000000     1.000000     0.000000     0.000000     0.000000     0.000000     0.000000
 
 Subroutine IBZKPT returns following result:
 ===========================================
 
 Found     42 irreducible k-points:
 
 Following reciprocal coordinates:
            Coordinates               Weight
  0.000000  0.000000  0.000000      1.000000
  0.250000  0.000000  0.000000      2.000000
  0.500000  0.000000  0.000000      1.000000
  0.000000  0.250000  0.000000      2.000000
  0.250000  0.250000  0.000000      2.000000
  0.500000  0.250000 -0.000000      2.000000
 -0.250000  0.250000  0.000000      2.000000
  0.000000  0.500000  0.000000      1.000000
  0.250000  0.500000 -0.000000      2.000000
  0.500000  0.500000  0.000000      1.000000
 -0.000000 -0.000000  0.200000      2.000000
  0.250000  0.000000  0.200000      2.000000
  0.500000  0.000000  0.200000      2.000000
 -0.250000 -0.000000  0.200000      2.000000
  0.000000  0.250000  0.200000      2.000000
  0.250000  0.250000  0.200000      2.000000
  0.500000  0.250000  0.200000      2.000000
 -0.250000  0.250000  0.200000      2.000000
  0.000000  0.500000  0.200000      2.000000
  0.250000  0.500000  0.200000      2.000000
  0.500000  0.500000  0.200000      2.000000
 -0.250000  0.500000  0.200000      2.000000
 -0.000000 -0.250000  0.200000      2.000000
  0.250000 -0.250000  0.200000      2.000000
  0.500000 -0.250000  0.200000      2.000000
 -0.250000 -0.250000  0.200000      2.000000
 -0.000000 -0.000000  0.400000      2.000000
  0.250000  0.000000  0.400000      2.000000
  0.500000  0.000000  0.400000      2.000000
 -0.250000  0.000000  0.400000      2.000000
  0.000000  0.250000  0.400000      2.000000
  0.250000  0.250000  0.400000      2.000000
  0.500000  0.250000  0.400000      2.000000
 -0.250000  0.250000  0.400000      2.000000
  0.000000  0.500000  0.400000      2.000000
  0.250000  0.500000  0.400000      2.000000
  0.500000  0.500000  0.400000      2.000000
 -0.250000  0.500000  0.400000      2.000000
  0.000000 -0.250000  0.400000      2.000000
  0.250000 -0.250000  0.400000      2.000000
  0.500000 -0.250000  0.400000      2.000000
 -0.250000 -0.250000  0.400000      2.000000
 
 Following cartesian coordinates:
            Coordinates               Weight
  0.000000  0.000000  0.000000      1.000000
  0.038631 -0.022148  0.013365      2.000000
  0.077263 -0.044296  0.026730      1.000000
  0.038631  0.022148  0.013365      2.000000
  0.077263  0.000000  0.026730      2.000000
  0.115894 -0.022148  0.040096      2.000000
  0.000000  0.044296  0.000000      2.000000
  0.077263  0.044296  0.026730      1.000000
  0.115894  0.022148  0.040096      2.000000
  0.154525  0.000000  0.053461      1.000000
 -0.000321  0.000000  0.032808      2.000000
  0.038310 -0.022148  0.046173      2.000000
  0.076941 -0.044296  0.059538      2.000000
 -0.038952  0.022148  0.019443      2.000000
  0.038310  0.022148  0.046173      2.000000
  0.076941  0.000000  0.059538      2.000000
  0.115573 -0.022148  0.072903      2.000000
 -0.000321  0.044296  0.032808      2.000000
  0.076941  0.044296  0.059538      2.000000
  0.115573  0.022148  0.072903      2.000000
  0.154204  0.000000  0.086269      2.000000
  0.038310  0.066444  0.046173      2.000000
 -0.038952 -0.022148  0.019443      2.000000
 -0.000321 -0.044296  0.032808      2.000000
  0.038310 -0.066444  0.046173      2.000000
 -0.077584  0.000000  0.006077      2.000000
 -0.000642  0.000000  0.065616      2.000000
  0.037989 -0.022148  0.078981      2.000000
  0.076620 -0.044296  0.092346      2.000000
 -0.039274  0.022148  0.052250      2.000000
  0.037989  0.022148  0.078981      2.000000
  0.076620  0.000000  0.092346      2.000000
  0.115251 -0.022148  0.105711      2.000000
 -0.000642  0.044296  0.065616      2.000000
  0.076620  0.044296  0.092346      2.000000
  0.115251  0.022148  0.105711      2.000000
  0.153883  0.000000  0.119076      2.000000
  0.037989  0.066444  0.078981      2.000000
 -0.039274 -0.022148  0.052250      2.000000
 -0.000642 -0.044296  0.065616      2.000000
  0.037989 -0.066444  0.078981      2.000000
 -0.077905  0.000000  0.038885      2.000000
 
 
 Subroutine IBZKPT_HF returns following result:
 ==============================================
 
 Found     80 k-points in 1st BZ
 the following     80 k-points will be used (e.g. in the exchange kernel)
 Following reciprocal coordinates:   # in IRBZ
  0.000000  0.000000  0.000000       1 t-inv F
  0.250000  0.000000  0.000000       2 t-inv F
  0.500000  0.000000  0.000000       3 t-inv F
  0.000000  0.250000  0.000000       4 t-inv F
  0.250000  0.250000  0.000000       5 t-inv F
  0.500000  0.250000 -0.000000       6 t-inv F
 -0.250000  0.250000  0.000000       7 t-inv F
  0.000000  0.500000  0.000000       8 t-inv F
  0.250000  0.500000 -0.000000       9 t-inv F
  0.500000  0.500000  0.000000      10 t-inv F
 -0.000000 -0.000000  0.200000      11 t-inv F
  0.250000  0.000000  0.200000      12 t-inv F
  0.500000  0.000000  0.200000      13 t-inv F
 -0.250000 -0.000000  0.200000      14 t-inv F
  0.000000  0.250000  0.200000      15 t-inv F
  0.250000  0.250000  0.200000      16 t-inv F
  0.500000  0.250000  0.200000      17 t-inv F
 -0.250000  0.250000  0.200000      18 t-inv F
  0.000000  0.500000  0.200000      19 t-inv F
  0.250000  0.500000  0.200000      20 t-inv F
  0.500000  0.500000  0.200000      21 t-inv F
 -0.250000  0.500000  0.200000      22 t-inv F
 -0.000000 -0.250000  0.200000      23 t-inv F
  0.250000 -0.250000  0.200000      24 t-inv F
  0.500000 -0.250000  0.200000      25 t-inv F
 -0.250000 -0.250000  0.200000      26 t-inv F
 -0.000000 -0.000000  0.400000      27 t-inv F
  0.250000  0.000000  0.400000      28 t-inv F
  0.500000  0.000000  0.400000      29 t-inv F
 -0.250000  0.000000  0.400000      30 t-inv F
  0.000000  0.250000  0.400000      31 t-inv F
  0.250000  0.250000  0.400000      32 t-inv F
  0.500000  0.250000  0.400000      33 t-inv F
 -0.250000  0.250000  0.400000      34 t-inv F
  0.000000  0.500000  0.400000      35 t-inv F
  0.250000  0.500000  0.400000      36 t-inv F
  0.500000  0.500000  0.400000      37 t-inv F
 -0.250000  0.500000  0.400000      38 t-inv F
  0.000000 -0.250000  0.400000      39 t-inv F
  0.250000 -0.250000  0.400000      40 t-inv F
  0.500000 -0.250000  0.400000      41 t-inv F
 -0.250000 -0.250000  0.400000      42 t-inv F
 -0.250000 -0.000000 -0.000000       2 t-inv T
 -0.000000 -0.250000 -0.000000       4 t-inv T
 -0.250000 -0.250000  0.000000       5 t-inv T
 -0.500000 -0.250000  0.000000       6 t-inv T
  0.250000 -0.250000  0.000000       7 t-inv T
 -0.250000 -0.500000  0.000000       9 t-inv T
  0.000000  0.000000 -0.200000      11 t-inv T
 -0.250000 -0.000000 -0.200000      12 t-inv T
 -0.500000 -0.000000 -0.200000      13 t-inv T
  0.250000  0.000000 -0.200000      14 t-inv T
 -0.000000 -0.250000 -0.200000      15 t-inv T
 -0.250000 -0.250000 -0.200000      16 t-inv T
 -0.500000 -0.250000 -0.200000      17 t-inv T
  0.250000 -0.250000 -0.200000      18 t-inv T
 -0.000000 -0.500000 -0.200000      19 t-inv T
 -0.250000 -0.500000 -0.200000      20 t-inv T
 -0.500000 -0.500000 -0.200000      21 t-inv T
  0.250000 -0.500000 -0.200000      22 t-inv T
  0.000000  0.250000 -0.200000      23 t-inv T
 -0.250000  0.250000 -0.200000      24 t-inv T
 -0.500000  0.250000 -0.200000      25 t-inv T
  0.250000  0.250000 -0.200000      26 t-inv T
  0.000000  0.000000 -0.400000      27 t-inv T
 -0.250000 -0.000000 -0.400000      28 t-inv T
 -0.500000 -0.000000 -0.400000      29 t-inv T
  0.250000 -0.000000 -0.400000      30 t-inv T
 -0.000000 -0.250000 -0.400000      31 t-inv T
 -0.250000 -0.250000 -0.400000      32 t-inv T
 -0.500000 -0.250000 -0.400000      33 t-inv T
  0.250000 -0.250000 -0.400000      34 t-inv T
 -0.000000 -0.500000 -0.400000      35 t-inv T
 -0.250000 -0.500000 -0.400000      36 t-inv T
 -0.500000 -0.500000 -0.400000      37 t-inv T
  0.250000 -0.500000 -0.400000      38 t-inv T
 -0.000000  0.250000 -0.400000      39 t-inv T
 -0.250000  0.250000 -0.400000      40 t-inv T
 -0.500000  0.250000 -0.400000      41 t-inv T
  0.250000  0.250000 -0.400000      42 t-inv T


--------------------------------------------------------------------------------------------------------




 Dimension of arrays:
   k-points           NKPTS =     42   k-points in BZ     NKDIM =     80   number of bands    NBANDS=     80
   number of dos      NEDOS =    301   number of ions     NIONS =     12
   non local maximal  LDIM  =      6   non local SUM 2l+1 LMDIM =     18
   total plane-waves  NPLWV =  32768
   max r-space proj   IRMAX =      1   max aug-charges    IRDMAX=   8224
   dimension x,y,z NGX =    32 NGY =   32 NGZ =   32
   dimension x,y,z NGXF=    64 NGYF=   64 NGZF=   64
   support grid    NGXF=    64 NGYF=   64 NGZF=   64
   ions per type =               4   2   6
 NGX,Y,Z   is equivalent  to a cutoff of   8.18,  8.18,  8.27 a.u.
 NGXF,Y,Z  is equivalent  to a cutoff of  16.37, 16.37, 16.55 a.u.


 I would recommend the setting:
   dimension x,y,z NGX =    32 NGY =   32 NGZ =   31
 SYSTEM =  CGS                                     
 POSCAR =  Cu Ge S                                 

 Startparameter for this run:
   NWRITE =      2    write-flag & timer
   PREC   = normal    normal or accurate (medium, high low for compatibility)
   ISTART =      1    job   : 0-new  1-cont  2-samecut
   ICHARG =      0    charge: 1-file 2-atom 10-const
   ISPIN  =      1    spin polarized calculation?
   LNONCOLLINEAR =      F non collinear calculations
   LSORBIT =      F    spin-orbit coupling
   INIWAV =      1    electr: 0-lowe 1-rand  2-diag
   LASPH  =      F    aspherical Exc in radial PAW
   METAGGA=      F    non-selfconsistent MetaGGA calc.

 Electronic Relaxation 1
   ENCUT  =  400.0 eV  29.40 Ry    5.42 a.u.  10.60 10.60 10.48*2*pi/ulx,y,z
   ENINI  =  400.0     initial cutoff
   ENAUG  =  758.2 eV  augmentation charge cutoff
   NELM   =     60;   NELMIN=  2; NELMDL=  0     # of ELM steps 
   EDIFF  = 0.1E-04   stopping-criterion for ELM
   LREAL  =      F    real-space projection
   NLSPLINE    = F    spline interpolate recip. space projectors
   LCOMPAT=      F    compatible to vasp.4.4
   GGA_COMPAT  = T    GGA compatible to vasp.4.4-vasp.4.6
   LMAXPAW     = -100 max onsite density
   LMAXMIX     =    2 max onsite mixed and CHGCAR
   VOSKOWN=      0    Vosko Wilk Nusair interpolation
   ROPT   =    0.00000   0.00000   0.00000
 Ionic relaxation
   EDIFFG = 0.1E-03   stopping-criterion for IOM
   NSW    =      0    number of steps for IOM
   NBLOCK =      1;   KBLOCK =      1    inner block; outer block 
   IBRION =     -1    ionic relax: 0-MD 1-quasi-New 2-CG
   NFREE  =      0    steps in history (QN), initial steepest desc. (CG)
   ISIF   =      0    stress and relaxation
   IWAVPR =     10    prediction:  0-non 1-charg 2-wave 3-comb
   ISYM   =      3    0-nonsym 1-usesym 2-fastsym
   LCORR  =      T    Harris-Foulkes like correction to forces

   POTIM  = 0.5000    time-step for ionic-motion
   TEIN   =    0.0    initial temperature
   TEBEG  =    0.0;   TEEND  =   0.0 temperature during run
   SMASS  =  -3.00    Nose mass-parameter (am)
   estimated Nose-frequenzy (Omega)   =  0.10E-29 period in steps =****** mass=  -0.966E-27a.u.
   SCALEE = 1.0000    scale energy and forces
   NPACO  =    256;   APACO  = 16.0  distance and # of slots for P.C.
   PSTRESS=    0.0 pullay stress

  Mass of Ions in am
   POMASS =  63.55 72.61 32.07
  Ionic Valenz
   ZVAL   =  17.00  4.00  6.00
  Atomic Wigner-Seitz radii
   RWIGS  =  -1.00 -1.00 -1.00
  virtual crystal weights 
   VCA    =   1.00  1.00  1.00
   NELECT =     112.0000    total number of electrons
   NUPDOWN=      -1.0000    fix difference up-down

 DOS related values:
   EMIN   =  10.00;   EMAX   =-10.00  energy-range for DOS
   EFERMI =   0.00
   ISMEAR =     1;   SIGMA  =   0.10  broadening in eV -4-tet -1-fermi 0-gaus

 Electronic relaxation 2 (details)
   IALGO  =     53    algorithm
   LDIAG  =      T    sub-space diagonalisation (order eigenvalues)
   LSUBROT=      T    optimize rotation matrix (better conditioning)
   TURBO    =      0    0=normal 1=particle mesh
   IRESTART =      0    0=no restart 2=restart with 2 vectors
   NREBOOT  =      0    no. of reboots
   NMIN     =      0    reboot dimension
   EREF     =   0.00    reference energy to select bands
   IMIX   =      4    mixing-type and parameters
     AMIX     =   0.40;   BMIX     =  1.00
     AMIX_MAG =   1.60;   BMIX_MAG =  1.00
     AMIN     =   0.10
     WC   =   100.;   INIMIX=   1;  MIXPRE=   1;  MAXMIX= -45

 Intra band minimization:
   WEIMIN = 0.0000     energy-eigenvalue tresh-hold
   EBREAK =  0.31E-07  absolut break condition
   DEPER  =   0.30     relativ break condition  

   TIME   =   0.40     timestep for ELM

  volume/ion in A,a.u.               =      18.49       124.79
  Fermi-wavevector in a.u.,A,eV,Ry     =   1.303450  2.463163 23.116052  1.698982
  Thomas-Fermi vector in A             =   2.434451
 
 Write flags
   LWAVE  =      T    write WAVECAR
   LCHARG =      T    write CHGCAR
   LVTOT  =      F    write LOCPOT, total local potential
   LVHAR  =      F    write LOCPOT, Hartree potential only
   LELF   =      F    write electronic localiz. function (ELF)
   LORBIT =      0    0 simple, 1 ext, 2 COOP (PROOUT)


 Dipole corrections
   LMONO  =      F    monopole corrections only (constant potential shift)
   LDIPOL =      F    correct potential (dipole corrections)
   IDIPOL =      0    1-x, 2-y, 3-z, 4-all directions 
   EPSILON=  1.0000000 bulk dielectric constant

 Exchange correlation treatment:
   GGA     =    PE    GGA type
   LEXCH   =     8    internal setting for exchange type
   VOSKOWN=      0    Vosko Wilk Nusair interpolation
   EXXOEP  =     0    0=HF, 1=EXX-LHF (local Hartree Fock) 2=EXX OEP
   LHFCALC =     T    Hartree Fock is set to
   LSYMGRAD=     F    symmetrize gradient (conserves proper symmetry)
   PRECFOCK=fast      Normal, Fast or Accurate (Low or Medium for compatibility)
   LRHFCALC=     F    long range Hartree Fock
   LRSCOR  =     F    long range correlation only (use DFT for short range part)
   LTHOMAS =     F    Thomas Fermi screening in HF
   LMODELHF=     F    short range full HF, long range fraction AEXX
   ENCUT4O =  -1.0   cutoff for four orbital integrals eV
   LMAXFOCK=     4    L truncation for augmentation on plane wave grid
   LMAXFOCKAE=  -1    L truncation for all-electron charge restoration on plane wave grid
   NMAXFOCKAE=   1    number of basis functions for all-electron charge restoration
   LFOCKAEDFT=     F  apply the AE augmentation even for DFT
   NKREDX  =     1    reduce k-point grid by
   NKREDY  =     1    reduce k-point grid by
   NKREDZ  =     1    reduce k-point grid by
   SHIFTRED=     F    shift reduced grid of Gamma
   HFKIDENT=     F    idential grid for each k-point
   ODDONLY =     F    use only odd q-grid points
   EVENONLY=     F    use only even q-grid points
   HFALPHA =   -1.0000 decay constant for conv. correction
   MCALPHA =    0.0000 extent of test-charge in conv. correction in multipole expansion
   AEXX    =    0.2500 exact exchange contribution
   HFSCREEN=    0.2000 screening length (either q_TF or 0.3 A-1)
   HFSCREENC=   0.2000 screening length for correlation (either q_TF or 0.3 A-1)
   HFRCUT  =    0.0000 spherical cutoff for potential kernel
   ALDAX   =    0.7500 LDA exchange part
   AGGAX   =    0.7500 GGA exchange part
   ALDAC   =    1.0000 LDA correlation
   AGGAC   =    1.0000 GGA correlation
   NBANDSGWLOW=     1    first orbital included in HF term
 Linear response parameters
   LEPSILON=     F    determine dielectric tensor
   LRPA    =     F    only Hartree local field effects (RPA)
   LNABLA  =     F    use nabla operator in PAW spheres
   LVEL    =     F    velocity operator in full k-point grid
   LINTERFAST=   F  fast interpolation
   KINTER  =     0    interpolate to denser k-point grid
   CSHIFT  =0.1000    complex shift for real part using Kramers Kronig
   OMEGAMAX=  -1.0    maximum frequency
   DEG_THRESHOLD= 0.2000000E-02 threshold for treating states as degnerate
   RTIME   =    0.100 relaxation time in fs

 Orbital magnetization related:
   ORBITALMAG=     F  switch on orbital magnetization
   LCHIMAG   =     F  perturbation theory with respect to B field
   DQ        =  0.001000  dq finite difference perturbation B field



--------------------------------------------------------------------------------------------------------


 Static calculation
 charge density and potential will be updated during run
 non-spin polarized calculation
 Conjugate gradient for all bands, subspace preconditioning
 perform sub-space diagonalisation
    before iterative eigenvector-optimisation
 modified Broyden-mixing scheme, WC =      100.0
 initial mixing is a Kerker type mixing with AMIX =  0.4000 and BMIX =      1.0000
 Hartree-type preconditioning will be used
 using additional bands           24
 reciprocal scheme for non local part
 use partial core corrections
 no Harris-corrections to forces 
 use gradient corrections 
 use of overlap-Matrix (Vanderbilt PP)
 Methfessel and Paxton  Order N= 1 SIGMA  =   0.10


--------------------------------------------------------------------------------------------------------


  energy-cutoff  :      400.00
  volume of cell :      221.90
      direct lattice vectors                 reciprocal lattice vectors
     3.224796000 -5.643830000  0.031572000     0.154525165 -0.088592321  0.053460880
     3.224796000  5.643830000  0.031572000     0.154525165  0.088592321  0.053460880
    -2.101946000  0.000000000  6.075537000    -0.001606004  0.000000000  0.164038877

  length of vectors
     6.500240234  6.500240234  6.428866683     0.185969598  0.185969598  0.164046738


 
 old parameters found on file WAVECAR:
  energy-cutoff  :      400.00
  volume of cell :      222.35
      direct lattice vectors                 reciprocal lattice vectors
     3.227235519 -5.642745207  0.030241751     0.154430495 -0.088609353  0.053450002
     3.227235519  5.642745207  0.030241751     0.154430495  0.088609353  0.053450002
    -2.106135241  0.000000000  6.085154262    -0.001534965  0.000000000  0.163803104

  length of vectors

 
 k-points in units of 2pi/SCALE and weight: pymatgen 4.7.6+ generated KPOINTS with g
   0.00000000  0.00000000  0.00000000       0.013
   0.03863129 -0.02214808  0.01336522       0.025
   0.07726258 -0.04429616  0.02673044       0.013
   0.03863129  0.02214808  0.01336522       0.025
   0.07726258  0.00000000  0.02673044       0.025
   0.11589387 -0.02214808  0.04009566       0.025
   0.00000000  0.04429616  0.00000000       0.025
   0.07726258  0.04429616  0.02673044       0.013
   0.11589387  0.02214808  0.04009566       0.025
   0.15452516  0.00000000  0.05346088       0.013
  -0.00032120  0.00000000  0.03280778       0.025
   0.03831009 -0.02214808  0.04617300       0.025
   0.07694138 -0.04429616  0.05953822       0.025
  -0.03895249  0.02214808  0.01944256       0.025
   0.03831009  0.02214808  0.04617300       0.025
   0.07694138  0.00000000  0.05953822       0.025
   0.11557267 -0.02214808  0.07290344       0.025
  -0.00032120  0.04429616  0.03280778       0.025
   0.07694138  0.04429616  0.05953822       0.025
   0.11557267  0.02214808  0.07290344       0.025
   0.15420396  0.00000000  0.08626865       0.025
   0.03831009  0.06644424  0.04617300       0.025
  -0.03895249 -0.02214808  0.01944256       0.025
  -0.00032120 -0.04429616  0.03280778       0.025
   0.03831009 -0.06644424  0.04617300       0.025
  -0.07758378  0.00000000  0.00607734       0.025
  -0.00064240  0.00000000  0.06561555       0.025
   0.03798889 -0.02214808  0.07898077       0.025
   0.07662018 -0.04429616  0.09234599       0.025
  -0.03927369  0.02214808  0.05225033       0.025
   0.03798889  0.02214808  0.07898077       0.025
   0.07662018  0.00000000  0.09234599       0.025
   0.11525147 -0.02214808  0.10571121       0.025
  -0.00064240  0.04429616  0.06561555       0.025
   0.07662018  0.04429616  0.09234599       0.025
   0.11525147  0.02214808  0.10571121       0.025
   0.15388276  0.00000000  0.11907643       0.025
   0.03798889  0.06644424  0.07898077       0.025
  -0.03927369 -0.02214808  0.05225033       0.025
  -0.00064240 -0.04429616  0.06561555       0.025
   0.03798889 -0.06644424  0.07898077       0.025
  -0.07790498  0.00000000  0.03888511       0.025
 
 k-points in reciprocal lattice and weights: pymatgen 4.7.6+ generated KPOINTS with g
   0.00000000  0.00000000  0.00000000       0.013
   0.25000000  0.00000000  0.00000000       0.025
   0.50000000  0.00000000  0.00000000       0.013
   0.00000000  0.25000000  0.00000000       0.025
   0.25000000  0.25000000  0.00000000       0.025
   0.50000000  0.25000000 -0.00000000       0.025
  -0.25000000  0.25000000  0.00000000       0.025
   0.00000000  0.50000000  0.00000000       0.013
   0.25000000  0.50000000 -0.00000000       0.025
   0.50000000  0.50000000  0.00000000       0.013
  -0.00000000 -0.00000000  0.20000000       0.025
   0.25000000  0.00000000  0.20000000       0.025
   0.50000000  0.00000000  0.20000000       0.025
  -0.25000000 -0.00000000  0.20000000       0.025
   0.00000000  0.25000000  0.20000000       0.025
   0.25000000  0.25000000  0.20000000       0.025
   0.50000000  0.25000000  0.20000000       0.025
  -0.25000000  0.25000000  0.20000000       0.025
   0.00000000  0.50000000  0.20000000       0.025
   0.25000000  0.50000000  0.20000000       0.025
   0.50000000  0.50000000  0.20000000       0.025
  -0.25000000  0.50000000  0.20000000       0.025
  -0.00000000 -0.25000000  0.20000000       0.025
   0.25000000 -0.25000000  0.20000000       0.025
   0.50000000 -0.25000000  0.20000000       0.025
  -0.25000000 -0.25000000  0.20000000       0.025
  -0.00000000 -0.00000000  0.40000000       0.025
   0.25000000  0.00000000  0.40000000       0.025
   0.50000000  0.00000000  0.40000000       0.025
  -0.25000000  0.00000000  0.40000000       0.025
   0.00000000  0.25000000  0.40000000       0.025
   0.25000000  0.25000000  0.40000000       0.025
   0.50000000  0.25000000  0.40000000       0.025
  -0.25000000  0.25000000  0.40000000       0.025
   0.00000000  0.50000000  0.40000000       0.025
   0.25000000  0.50000000  0.40000000       0.025
   0.50000000  0.50000000  0.40000000       0.025
  -0.25000000  0.50000000  0.40000000       0.025
   0.00000000 -0.25000000  0.40000000       0.025
   0.25000000 -0.25000000  0.40000000       0.025
   0.50000000 -0.25000000  0.40000000       0.025
  -0.25000000 -0.25000000  0.40000000       0.025
 
 position of ions in fractional coordinates (direct lattice) 
   0.61844300  0.12117100  0.11953300
   0.12117100  0.61844300  0.61953300
   0.96295700  0.79032200  0.11881300
   0.79032200  0.96295700  0.61881300
   0.43973200  0.26728100  0.59904700
   0.26728100  0.43973200  0.09904700
   0.07949800  0.91167500  0.49736300
   0.56986460  0.41236400  0.98018400
   0.73711100  0.25006200  0.49504900
   0.41236400  0.57140300  0.48018400
   0.91167500  0.07949800  0.99736300
   0.25006200  0.73711100  0.99504900
 
 position of ions in cartesian coordinates  (Angst):
   2.13385236 -2.80651863  0.74957826
   1.08287936  2.80651863  3.78734676
   5.40422860 -0.97432259  0.77720730
   4.35325560  0.97432259  3.81497580
   1.02080825 -0.97328413  3.66185403
   2.07178125  0.97328413  0.62408553
   2.15090056  4.69666552  3.05304062
   1.10719301 -0.88890658  5.98615508
   2.14286528 -2.74882176  3.03885554
   2.16312705  0.89758908  2.94843515
   1.09992756 -4.69666552  6.09080912
   1.09189228  2.74882176  6.07662404
 


--------------------------------------------------------------------------------------------------------


 k-point  1 :   0.0000 0.0000 0.0000  plane waves:    4051
 k-point  2 :   0.2500 0.0000 0.0000  plane waves:    4032
 k-point  3 :   0.5000 0.0000 0.0000  plane waves:    4030
 k-point  4 :   0.0000 0.2500 0.0000  plane waves:    4032
 k-point  5 :   0.2500 0.2500 0.0000  plane waves:    4038
 k-point  6 :   0.5000 0.2500-0.0000  plane waves:    4037
 k-point  7 :  -0.2500 0.2500 0.0000  plane waves:    4042
 k-point  8 :   0.0000 0.5000 0.0000  plane waves:    4030
 k-point  9 :   0.2500 0.5000-0.0000  plane waves:    4037
 k-point 10 :   0.5000 0.5000 0.0000  plane waves:    4026
 k-point 11 :  -0.0000-0.0000 0.2000  plane waves:    4046
 k-point 12 :   0.2500 0.0000 0.2000  plane waves:    4034
 k-point 13 :   0.5000 0.0000 0.2000  plane waves:    4025
 k-point 14 :  -0.2500-0.0000 0.2000  plane waves:    4044
 k-point 15 :   0.0000 0.2500 0.2000  plane waves:    4034
 k-point 16 :   0.2500 0.2500 0.2000  plane waves:    4017
 k-point 17 :   0.5000 0.2500 0.2000  plane waves:    4039
 k-point 18 :  -0.2500 0.2500 0.2000  plane waves:    4042
 k-point 19 :   0.0000 0.5000 0.2000  plane waves:    4025
 k-point 20 :   0.2500 0.5000 0.2000  plane waves:    4039
 k-point 21 :   0.5000 0.5000 0.2000  plane waves:    4030
 k-point 22 :  -0.2500 0.5000 0.2000  plane waves:    4030
 k-point 23 :  -0.0000-0.2500 0.2000  plane waves:    4044
 k-point 24 :   0.2500-0.2500 0.2000  plane waves:    4042
 k-point 25 :   0.5000-0.2500 0.2000  plane waves:    4030
 k-point 26 :  -0.2500-0.2500 0.2000  plane waves:    4020
 k-point 27 :  -0.0000-0.0000 0.4000  plane waves:    4027
 k-point 28 :   0.2500 0.0000 0.4000  plane waves:    4034
 k-point 29 :   0.5000 0.0000 0.4000  plane waves:    4013
 k-point 30 :  -0.2500 0.0000 0.4000  plane waves:    4042
 k-point 31 :   0.0000 0.2500 0.4000  plane waves:    4034
 k-point 32 :   0.2500 0.2500 0.4000  plane waves:    4009
 k-point 33 :   0.5000 0.2500 0.4000  plane waves:    4026
 k-point 34 :  -0.2500 0.2500 0.4000  plane waves:    4027
 k-point 35 :   0.0000 0.5000 0.4000  plane waves:    4013
 k-point 36 :   0.2500 0.5000 0.4000  plane waves:    4026
 k-point 37 :   0.5000 0.5000 0.4000  plane waves:    4037
 k-point 38 :  -0.2500 0.5000 0.4000  plane waves:    4022
 k-point 39 :   0.0000-0.2500 0.4000  plane waves:    4042
 k-point 40 :   0.2500-0.2500 0.4000  plane waves:    4027
 k-point 41 :   0.5000-0.2500 0.4000  plane waves:    4022
 k-point 42 :  -0.2500-0.2500 0.4000  plane waves:    4015

 maximum and minimum number of plane-waves per node :      4051     4009

 maximum number of plane-waves:      4051
 maximum index in each direction: 
   IXMAX=   10   IYMAX=   10   IZMAX=   10
   IXMIN=  -11   IYMIN=  -11   IZMIN=  -10

 WARNING: aliasing errors must be expected set NGX to  44 to avoid them
 WARNING: aliasing errors must be expected set NGY to  44 to avoid them
 WARNING: aliasing errors must be expected set NGZ to  42 to avoid them
 aliasing errors are usually negligible using standard VASP settings
 and one can safely disregard these warnings

 serial   3D FFT for wavefunctions
 parallel 3D FFT for charge:
    minimum data exchange during FFTs selected (reduces bandwidth)


 FFT grid for exact exchange (Hartree Fock) 
  NGX = 24; NGY = 24; NGZ = 24

 
 Radii for the augmentation spheres in the non-local exchange
 for species   1 augmentation radius   1.120 (default was   0.830)
       energy cutoff for augmentation   1600.0
 for species   2 augmentation radius   1.570 (default was   1.163)
       energy cutoff for augmentation   1600.0
 for species   3 augmentation radius   1.034 (default was   0.970)
       energy cutoff for augmentation   1600.0

 total amount of memory used by VASP on root node   151696. kBytes
========================================================================

   base      :      30000. kBytes
   nonl-proj :      74517. kBytes
   fftplans  :        702. kBytes
   grid      :       2400. kBytes
   one-center:        186. kBytes
   HF        :        194. kBytes
   nonlr-proj:       1121. kBytes
   wavefun   :      42576. kBytes
 
 Broyden mixing: mesh for mixing (old mesh)
   NGX = 21   NGY = 21   NGZ = 21
  (NGX  = 64   NGY  = 64   NGZ  = 64)
  gives a total of   9261 points

 charge density for first step will be calculated from the start-wavefunctions


--------------------------------------------------------------------------------------------------------


 Maximum index for augmentation-charges          485 (set IRDMAX)


--------------------------------------------------------------------------------------------------------


 initial charge from wavefunction
 First call to EWALD:  gamma=   0.293
 Maximum number of real-space cells 3x 3x 3
 Maximum number of reciprocal cells 3x 3x 3

 FEWALD executed in parallel
    FEWALD:  cpu time    0.00: real time    0.00


----------------------------------------- Iteration    1(   1)  ---------------------------------------


    POTLOK:  cpu time    0.05: real time    0.05
    SETDIJ:  cpu time    2.02: real time    2.02
 
    SUBROT:  cpu time    0.77: real time    0.77
    SUBROT:  cpu time    0.36: real time    0.36
    SUBROT:  cpu time    0.37: real time    0.37
    SUBROT:  cpu time    0.36: real time    0.36
    --------------------------------------------
    SUBRT+:  cpu time    1.86: real time    1.86

 Broyden mixing:
  rms(total) = 0.10924E-01    rms(broyden)= 0.10919E-01
  rms(prec ) = 0.19521E-01
  weight for this iteration     100.00

 eigenvalues of (default mixing * dielectric matrix)
  average eigenvalue GAMMA=   1.6255
  2.4515  1.5837  0.8413
 
    TRIAL :  cpu time  246.62: real time  246.43
    CORREC:  cpu time    0.00: real time    0.00
    CHARGE:  cpu time    0.06: real time    0.06
    --------------------------------------------
      LOOP:  cpu time  248.76: real time  248.56

 eigenvalue-minimisations  :     0
 total energy-change (2. order) : 0.7554107E+02  (-0.2131649E+03)
 number of electron     112.0001481 magnetization 
 augmentation part       38.9112130 magnetization 

 Free energy of the ion-electron system (eV)
  ---------------------------------------------------
  alpha Z        PSCENC =       339.31929130
  Ewald energy   TEWEN  =     -9066.05716303
  -1/2 Hartree   DENC   =     -8067.43092288
  -exchange  EXHF       =       327.45133223
  -V(xc)+E(xc)   XCENC  =       369.90511624
  PAW double counting   =     16899.73046948   -17392.54711267
  entropy T*S    EENTRO =        -0.00149222
  eigenvalues    EBANDS =     -1655.81362470
  atomic energy  EATOM  =     18320.98302006
  ---------------------------------------------------
  free energy    TOTEN  =        75.54106931 eV

  energy without entropy =       75.54256153  energy(sigma->0) =       75.54156671


--------------------------------------------------------------------------------------------------------




----------------------------------------- Iteration    1(   2)  ---------------------------------------


    POTLOK:  cpu time    0.05: real time    0.05
    SETDIJ:  cpu time    2.02: real time    2.02
 
    SUBROT:  cpu time    0.75: real time    0.75
    SUBROT:  cpu time    0.37: real time    0.37
    SUBROT:  cpu time    0.39: real time    0.39
    SUBROT:  cpu time    0.37: real time    0.37
    --------------------------------------------
    SUBRT+:  cpu time    1.88: real time    1.90

 Broyden mixing:
  rms(total) = 0.27333E-01    rms(broyden)= 0.27323E-01
  rms(prec ) = 0.50343E-01
  weight for this iteration     100.00

 eigenvalues of (default mixing * dielectric matrix)
  average eigenvalue GAMMA=   1.5497
  2.5432  1.2493  0.8566
 
    TRIAL :  cpu time  254.26: real time  254.13
    CORREC:  cpu time    0.00: real time    0.00
    CHARGE:  cpu time    0.06: real time    0.06
    --------------------------------------------
      LOOP:  cpu time  256.39: real time  256.28

 eigenvalue-minimisations  :     0
 total energy-change (2. order) :-0.8392629E+02  (-0.1468649E+03)
 number of electron     112.0001386 magnetization 
 augmentation part       35.4596040 magnetization 

 Free energy of the ion-electron system (eV)
  ---------------------------------------------------
  alpha Z        PSCENC =       339.31929130
  Ewald energy   TEWEN  =     -9066.05716303
  -1/2 Hartree   DENC   =     -8368.92108386
  -exchange  EXHF       =       338.96301228
  -V(xc)+E(xc)   XCENC  =       377.32018843
  PAW double counting   =     17400.18763724   -17939.29702774
  entropy T*S    EENTRO =        -0.00053341
  eigenvalues    EBANDS =     -1410.88160351
  atomic energy  EATOM  =     18320.98302006
  ---------------------------------------------------
  free energy    TOTEN  =        -8.38522105 eV

  energy without entropy =       -8.38468764  energy(sigma->0) =       -8.38504324


--------------------------------------------------------------------------------------------------------




----------------------------------------- Iteration    1(   3)  ---------------------------------------


    POTLOK:  cpu time    0.05: real time    0.05
    SETDIJ:  cpu time    2.02: real time    2.02
 
    SUBROT:  cpu time    0.76: real time    0.76
    SUBROT:  cpu time    0.36: real time    0.36
    SUBROT:  cpu time    0.36: real time    0.36
    SUBROT:  cpu time    0.36: real time    0.36
    --------------------------------------------
    SUBRT+:  cpu time    1.85: real time    1.86

 Broyden mixing:
  rms(total) = 0.28136E-01    rms(broyden)= 0.28125E-01
  rms(prec ) = 0.52424E-01
  weight for this iteration     100.00

 eigenvalues of (default mixing * dielectric matrix)
  average eigenvalue GAMMA=   1.7733
  1.0116  2.4995  1.8089
 
    TRIAL :  cpu time  253.23: real time  253.02
    CORREC:  cpu time    0.00: real time    0.00
    CHARGE:  cpu time    0.06: real time    0.06
    --------------------------------------------
      LOOP:  cpu time  255.36: real time  255.15

 eigenvalue-minimisations  :     0
 total energy-change (2. order) :-0.6837427E+01  (-0.2033057E+03)
 number of electron     112.0001511 magnetization 
 augmentation part       39.6826537 magnetization 

 Free energy of the ion-electron system (eV)
  ---------------------------------------------------
  alpha Z        PSCENC =       339.31929130
  Ewald energy   TEWEN  =     -9066.05716303
  -1/2 Hartree   DENC   =     -7477.32926651
  -exchange  EXHF       =       325.02451086
  -V(xc)+E(xc)   XCENC  =       357.42127349
  PAW double counting   =     15151.08169832   -15580.57333824
  entropy T*S    EENTRO =         0.00041912
  eigenvalues    EBANDS =     -2385.09214129
  atomic energy  EATOM  =     18320.98302006
  ---------------------------------------------------
  free energy    TOTEN  =       -15.22264845 eV

  energy without entropy =      -15.22306757  energy(sigma->0) =      -15.22278816


--------------------------------------------------------------------------------------------------------




----------------------------------------- Iteration    1(   4)  ---------------------------------------


    POTLOK:  cpu time    0.21: real time    0.21
    SETDIJ:  cpu time    2.02: real time    2.02
 
    SUBROT:  cpu time    0.77: real time    0.77
    SUBROT:  cpu time    0.39: real time    0.39
    SUBROT:  cpu time    0.36: real time    0.36
    SUBROT:  cpu time    0.37: real time    0.37
    SUBROT:  cpu time    0.38: real time    0.38
    --------------------------------------------
    SUBRT+:  cpu time    2.28: real time    2.28

 Broyden mixing:
  rms(total) = 0.11158E+00    rms(broyden)= 0.11139E+00
  rms(prec ) = 0.19672E+00
  weight for this iteration     100.00

 eigenvalues of (default mixing * dielectric matrix)
  average eigenvalue GAMMA=   1.2261
  2.5621  1.2983  0.6561  0.3880
 
    TRIAL :  cpu time  255.20: real time  254.99
    CORREC:  cpu time    0.00: real time    0.00
    CHARGE:  cpu time    0.06: real time    0.06
    --------------------------------------------
      LOOP:  cpu time  257.49: real time  257.29

 eigenvalue-minimisations  :     0
 total energy-change (2. order) :-0.7486193E+01  (-0.1072704E+03)
 number of electron     112.0001431 magnetization 
 augmentation part       37.2477888 magnetization 

 Free energy of the ion-electron system (eV)
  ---------------------------------------------------
  alpha Z        PSCENC =       339.31929130
  Ewald energy   TEWEN  =     -9066.05716303
  -1/2 Hartree   DENC   =     -8541.31061442
  -exchange  EXHF       =       343.00328269
  -V(xc)+E(xc)   XCENC  =       381.64752474
  PAW double counting   =     17628.80866821   -18209.33581299
  entropy T*S    EENTRO =         0.00033940
  eigenvalues    EBANDS =     -1219.76745710
  atomic energy  EATOM  =     18320.98302006
  ---------------------------------------------------
  free energy    TOTEN  =       -22.70884141 eV

  energy without entropy =      -22.70918081  energy(sigma->0) =      -22.70895454


--------------------------------------------------------------------------------------------------------




----------------------------------------- Iteration    1(   5)  ---------------------------------------


    POTLOK:  cpu time    0.09: real time    0.09
    SETDIJ:  cpu time    2.04: real time    2.04
 
    SUBROT:  cpu time    0.76: real time    0.76
    SUBROT:  cpu time    0.37: real time    0.37
    SUBROT:  cpu time    0.36: real time    0.36
    SUBROT:  cpu time    0.37: real time    0.37
    --------------------------------------------
    SUBRT+:  cpu time    1.87: real time    1.89

 Broyden mixing:
  rms(total) = 0.45324E-01    rms(broyden)= 0.45313E-01
  rms(prec ) = 0.92121E-01
  weight for this iteration     100.00

 eigenvalues of (default mixing * dielectric matrix)
  average eigenvalue GAMMA=   1.6811
  2.4616  0.9366  1.6451
 
    TRIAL :  cpu time  254.90: real time  254.69
    CORREC:  cpu time    0.00: real time    0.00
    CHARGE:  cpu time    0.05: real time    0.05
    --------------------------------------------
      LOOP:  cpu time  257.09: real time  256.88

 eigenvalue-minimisations  :     0
 total energy-change (2. order) :-0.3811703E+02  (-0.1504665E+02)
 number of electron     112.0001431 magnetization 
 augmentation part       37.2470112 magnetization 

 Free energy of the ion-electron system (eV)
  ---------------------------------------------------
  alpha Z        PSCENC =       339.31929130
  Ewald energy   TEWEN  =     -9066.05716303
  -1/2 Hartree   DENC   =     -8008.20478216
  -exchange  EXHF       =       336.41678598
  -V(xc)+E(xc)   XCENC  =       368.42305714
  PAW double counting   =     15870.95147816   -16340.38584415
  entropy T*S    EENTRO =         0.00062142
  eigenvalues    EBANDS =     -1882.27205288
  atomic energy  EATOM  =     18320.98302006
  ---------------------------------------------------
  free energy    TOTEN  =       -60.82587018 eV

  energy without entropy =      -60.82649160  energy(sigma->0) =      -60.82607732


--------------------------------------------------------------------------------------------------------




----------------------------------------- Iteration    1(   6)  ---------------------------------------


    POTLOK:  cpu time    0.13: real time    0.13
    SETDIJ:  cpu time    2.04: real time    2.04
 
    SUBROT:  cpu time    0.78: real time    0.78
    SUBROT:  cpu time    0.36: real time    0.36
    SUBROT:  cpu time    0.36: real time    0.36
    SUBROT:  cpu time    0.36: real time    0.36
    --------------------------------------------
    SUBRT+:  cpu time    1.86: real time    1.87

 Broyden mixing:
  rms(total) = 0.27375E-02    rms(broyden)= 0.27369E-02
  rms(prec ) = 0.45593E-02
  weight for this iteration     100.00

 eigenvalues of (default mixing * dielectric matrix)
  average eigenvalue GAMMA=   1.8189
  1.0158  2.5253  1.9155
 
    TRIAL :  cpu time  253.97: real time  253.77
    CORREC:  cpu time    0.00: real time    0.00
    CHARGE:  cpu time    0.05: real time    0.05
    --------------------------------------------
      LOOP:  cpu time  256.20: real time  256.00

 eigenvalue-minimisations  :     0
 total energy-change (2. order) :-0.5113543E+01  (-0.8164524E+01)
 number of electron     112.0001461 magnetization 
 augmentation part       38.2283770 magnetization 

 Free energy of the ion-electron system (eV)
  ---------------------------------------------------
  alpha Z        PSCENC =       339.31929130
  Ewald energy   TEWEN  =     -9066.05716303
  -1/2 Hartree   DENC   =     -8000.52000156
  -exchange  EXHF       =       337.16394246
  -V(xc)+E(xc)   XCENC  =       368.79052260
  PAW double counting   =     15771.29320251   -16240.24313022
  entropy T*S    EENTRO =         0.00069535
  eigenvalues    EBANDS =     -1896.66971913
  atomic energy  EATOM  =     18320.98302006
  ---------------------------------------------------
  free energy    TOTEN  =       -65.93941359 eV

  energy without entropy =      -65.94010894  energy(sigma->0) =      -65.93964537


--------------------------------------------------------------------------------------------------------




----------------------------------------- Iteration    1(   7)  ---------------------------------------


    POTLOK:  cpu time    0.10: real time    0.10
    SETDIJ:  cpu time    2.02: real time    2.02
 
    SUBROT:  cpu time    0.76: real time    0.76
    SUBROT:  cpu time    0.36: real time    0.36
    SUBROT:  cpu time    0.36: real time    0.36
    SUBROT:  cpu time    0.35: real time    0.35
    --------------------------------------------
    SUBRT+:  cpu time    1.84: real time    1.85

 Broyden mixing:
  rms(total) = 0.13268E-01    rms(broyden)= 0.13264E-01
  rms(prec ) = 0.23437E-01
  weight for this iteration     100.00

 eigenvalues of (default mixing * dielectric matrix)
  average eigenvalue GAMMA=   1.6017
  2.5012  0.8923  1.4117
 
    TRIAL :  cpu time  255.59: real time  255.38
    CORREC:  cpu time    0.00: real time    0.00
    CHARGE:  cpu time    0.06: real time    0.06
    --------------------------------------------
      LOOP:  cpu time  257.77: real time  257.56

 eigenvalue-minimisations  :     0
 total energy-change (2. order) :-0.1536656E+01  (-0.4130407E+01)
 number of electron     112.0001444 magnetization 
 augmentation part       37.7069452 magnetization 

 Free energy of the ion-electron system (eV)
  ---------------------------------------------------
  alpha Z        PSCENC =       339.31929130
  Ewald energy   TEWEN  =     -9066.05716303
  -1/2 Hartree   DENC   =     -8242.26807146
  -exchange  EXHF       =       341.63397088
  -V(xc)+E(xc)   XCENC  =       374.56396276
  PAW double counting   =     16207.20124479   -16710.50032947
  entropy T*S    EENTRO =         0.00046432
  eigenvalues    EBANDS =     -1632.35269103
  atomic energy  EATOM  =     18320.98302006
  ---------------------------------------------------
  free energy    TOTEN  =       -67.47606985 eV

  energy without entropy =      -67.47653416  energy(sigma->0) =      -67.47622462


--------------------------------------------------------------------------------------------------------




----------------------------------------- Iteration    1(   8)  ---------------------------------------


    POTLOK:  cpu time    0.05: real time    0.05
    SETDIJ:  cpu time    2.02: real time    2.02
 
    SUBROT:  cpu time    0.75: real time    0.75
    SUBROT:  cpu time    0.37: real time    0.37
    SUBROT:  cpu time    0.38: real time    0.38
    SUBROT:  cpu time    0.37: real time    0.37
    --------------------------------------------
    SUBRT+:  cpu time    1.87: real time    1.90

 Broyden mixing:
  rms(total) = 0.83641E-02    rms(broyden)= 0.83616E-02
  rms(prec ) = 0.13996E-01
  weight for this iteration     100.00

 eigenvalues of (default mixing * dielectric matrix)
  average eigenvalue GAMMA=   1.6712
  2.4579  0.9477  1.6079
 
    TRIAL :  cpu time  247.90: real time  247.75
    CORREC:  cpu time    0.00: real time    0.00
    CHARGE:  cpu time    0.07: real time    0.07
    --------------------------------------------
      LOOP:  cpu time  250.04: real time  249.90

 eigenvalue-minimisations  :     0
 total energy-change (2. order) :-0.1609616E+01  (-0.7696735E+00)
 number of electron     112.0001445 magnetization 
 augmentation part       37.7254465 magnetization 

 Free energy of the ion-electron system (eV)
  ---------------------------------------------------
  alpha Z        PSCENC =       339.31929130
  Ewald energy   TEWEN  =     -9066.05716303
  -1/2 Hartree   DENC   =     -8115.67378937
  -exchange  EXHF       =       339.53581847
  -V(xc)+E(xc)   XCENC  =       371.38984774
  PAW double counting   =     15916.47718924   -16397.82139398
  entropy T*S    EENTRO =         0.00075317
  eigenvalues    EBANDS =     -1777.23897044
  atomic energy  EATOM  =     18320.98302006
  ---------------------------------------------------
  free energy    TOTEN  =       -69.08568570 eV

  energy without entropy =      -69.08643887  energy(sigma->0) =      -69.08593676


--------------------------------------------------------------------------------------------------------




----------------------------------------- Iteration    1(   9)  ---------------------------------------


    POTLOK:  cpu time    0.10: real time    0.10
    SETDIJ:  cpu time    1.96: real time    1.95
 
    SUBROT:  cpu time    0.78: real time    0.78
    SUBROT:  cpu time    0.37: real time    0.37
    SUBROT:  cpu time    0.37: real time    0.37
    SUBROT:  cpu time    0.37: real time    0.37
    --------------------------------------------
    SUBRT+:  cpu time    1.89: real time    1.90

 Broyden mixing:
  rms(total) = 0.52451E-03    rms(broyden)= 0.52391E-03
  rms(prec ) = 0.83153E-03
  weight for this iteration     100.00

 eigenvalues of (default mixing * dielectric matrix)
  average eigenvalue GAMMA=   1.6995
  2.5247  1.0023  1.5717
 
    TRIAL :  cpu time  257.98: real time  257.76
    CORREC:  cpu time    0.00: real time    0.00
    CHARGE:  cpu time    0.06: real time    0.06
    --------------------------------------------
      LOOP:  cpu time  260.09: real time  259.87

 eigenvalue-minimisations  :     0
 total energy-change (2. order) :-0.3093332E+00  (-0.3861699E+00)
 number of electron     112.0001450 magnetization 
 augmentation part       37.9063938 magnetization 

 Free energy of the ion-electron system (eV)
  ---------------------------------------------------
  alpha Z        PSCENC =       339.31929130
  Ewald energy   TEWEN  =     -9066.05716303
  -1/2 Hartree   DENC   =     -8123.16105398
  -exchange  EXHF       =       339.60619395
  -V(xc)+E(xc)   XCENC  =       371.44944702
  PAW double counting   =     15912.54753601   -16393.78130458
  entropy T*S    EENTRO =         0.00088984
  eigenvalues    EBANDS =     -1770.30173885
  atomic energy  EATOM  =     18320.98302006
  ---------------------------------------------------
  free energy    TOTEN  =       -69.39501892 eV

  energy without entropy =      -69.39590876  energy(sigma->0) =      -69.39531553


--------------------------------------------------------------------------------------------------------




----------------------------------------- Iteration    1(  10)  ---------------------------------------


    POTLOK:  cpu time    0.20: real time    0.20
    SETDIJ:  cpu time    2.02: real time    2.02
 
    SUBROT:  cpu time    0.75: real time    0.75
    SUBROT:  cpu time    0.39: real time    0.39
    SUBROT:  cpu time    0.40: real time    0.40
    SUBROT:  cpu time    0.39: real time    0.39
    --------------------------------------------
    SUBRT+:  cpu time    1.94: real time    1.94

 Broyden mixing:
  rms(total) = 0.22890E-02    rms(broyden)= 0.22886E-02
  rms(prec ) = 0.38526E-02
  weight for this iteration     100.00

 eigenvalues of (default mixing * dielectric matrix)
  average eigenvalue GAMMA=   1.6841
  2.4757  0.9896  1.5869
 
    TRIAL :  cpu time  258.74: real time  258.51
    CORREC:  cpu time    0.00: real time    0.00
    CHARGE:  cpu time    0.07: real time    0.08
    --------------------------------------------
      LOOP:  cpu time  261.04: real time  260.81

 eigenvalue-minimisations  :     0
 total energy-change (2. order) :-0.1037626E+00  (-0.1520337E+00)
 number of electron     112.0001448 magnetization 
 augmentation part       37.8194850 magnetization 

 Free energy of the ion-electron system (eV)
  ---------------------------------------------------
  alpha Z        PSCENC =       339.31929130
  Ewald energy   TEWEN  =     -9066.05716303
  -1/2 Hartree   DENC   =     -8170.45272187
  -exchange  EXHF       =       340.40758061
  -V(xc)+E(xc)   XCENC  =       372.54435772
  PAW double counting   =     15994.22772766   -16482.18443532
  entropy T*S    EENTRO =         0.00075583
  eigenvalues    EBANDS =     -1718.28732853
  atomic energy  EATOM  =     18320.98302006
  ---------------------------------------------------
  free energy    TOTEN  =       -69.49878156 eV

  energy without entropy =      -69.49953739  energy(sigma->0) =      -69.49903351


--------------------------------------------------------------------------------------------------------




----------------------------------------- Iteration    1(  11)  ---------------------------------------


    POTLOK:  cpu time    0.07: real time    0.08
    SETDIJ:  cpu time    2.02: real time    2.02
 
    SUBROT:  cpu time    0.81: real time    0.81
    SUBROT:  cpu time    0.38: real time    0.38
    SUBROT:  cpu time    0.39: real time    0.39
    SUBROT:  cpu time    0.39: real time    0.39
    --------------------------------------------
    SUBRT+:  cpu time    1.97: real time    1.99

 Broyden mixing:
  rms(total) = 0.77775E-03    rms(broyden)= 0.77751E-03
  rms(prec ) = 0.15565E-02
  weight for this iteration     100.00

 eigenvalues of (default mixing * dielectric matrix)
  average eigenvalue GAMMA=   1.6671
  2.4952  0.9849  1.5213
 
    TRIAL :  cpu time  258.71: real time  258.52
    CORREC:  cpu time    0.00: real time    0.00
    CHARGE:  cpu time    0.09: real time    0.09
    --------------------------------------------
      LOOP:  cpu time  260.89: real time  260.70

 eigenvalue-minimisations  :     0
 total energy-change (2. order) :-0.6951908E-01  (-0.3692523E-01)
 number of electron     112.0001447 magnetization 
 augmentation part       37.7866579 magnetization 

 Free energy of the ion-electron system (eV)
  ---------------------------------------------------
  alpha Z        PSCENC =       339.31929130
  Ewald energy   TEWEN  =     -9066.05716303
  -1/2 Hartree   DENC   =     -8149.14248451
  -exchange  EXHF       =       340.07993380
  -V(xc)+E(xc)   XCENC  =       372.07235589
  PAW double counting   =     15942.39621759   -16427.32249295
  entropy T*S    EENTRO =         0.00063008
  eigenvalues    EBANDS =     -1741.89773462
  atomic energy  EATOM  =     18320.98302006
  ---------------------------------------------------
  free energy    TOTEN  =       -69.56830064 eV

  energy without entropy =      -69.56893072  energy(sigma->0) =      -69.56851067


--------------------------------------------------------------------------------------------------------




----------------------------------------- Iteration    1(  12)  ---------------------------------------


    POTLOK:  cpu time    0.16: real time    0.16
    SETDIJ:  cpu time    2.03: real time    2.02
 
    SUBROT:  cpu time    0.82: real time    0.82
    SUBROT:  cpu time    0.38: real time    0.38
    SUBROT:  cpu time    0.39: real time    0.39
    SUBROT:  cpu time    0.38: real time    0.38
    --------------------------------------------
    SUBRT+:  cpu time    1.97: real time    1.97

 Broyden mixing:
  rms(total) = 0.20739E-03    rms(broyden)= 0.20730E-03
  rms(prec ) = 0.45397E-03
  weight for this iteration     100.00

 eigenvalues of (default mixing * dielectric matrix)
  average eigenvalue GAMMA=   1.6452
  2.5063  0.9997  1.4297
 
    TRIAL :  cpu time  259.20: real time  258.97
    CORREC:  cpu time    0.00: real time    0.00
    CHARGE:  cpu time    0.10: real time    0.10
    --------------------------------------------
      LOOP:  cpu time  261.49: real time  261.27

 eigenvalue-minimisations  :     0
 total energy-change (2. order) :-0.1235284E-01  (-0.2281191E-01)
 number of electron     112.0001448 magnetization 
 augmentation part       37.8268905 magnetization 

 Free energy of the ion-electron system (eV)
  ---------------------------------------------------
  alpha Z        PSCENC =       339.31929130
  Ewald energy   TEWEN  =     -9066.05716303
  -1/2 Hartree   DENC   =     -8140.76048331
  -exchange  EXHF       =       339.96392810
  -V(xc)+E(xc)   XCENC  =       371.89741587
  PAW double counting   =     15920.63509889   -16404.47502001
  entropy T*S    EENTRO =         0.00057621
  eigenvalues    EBANDS =     -1751.08737144
  atomic energy  EATOM  =     18320.98302006
  ---------------------------------------------------
  free energy    TOTEN  =       -69.58065348 eV

  energy without entropy =      -69.58122969  energy(sigma->0) =      -69.58084555


--------------------------------------------------------------------------------------------------------




----------------------------------------- Iteration    1(  13)  ---------------------------------------


    POTLOK:  cpu time    0.12: real time    0.12
    SETDIJ:  cpu time    2.02: real time    2.02
 
    SUBROT:  cpu time    0.82: real time    0.82
    SUBROT:  cpu time    0.39: real time    0.39
    SUBROT:  cpu time    0.38: real time    0.38
    SUBROT:  cpu time    0.39: real time    0.39
    --------------------------------------------
    SUBRT+:  cpu time    1.99: real time    2.01

 Broyden mixing:
  rms(total) = 0.55434E-03    rms(broyden)= 0.55422E-03
  rms(prec ) = 0.94152E-03
  weight for this iteration     100.00

 eigenvalues of (default mixing * dielectric matrix)
  average eigenvalue GAMMA=   1.6931
  2.4805  0.9968  1.6019
 
    TRIAL :  cpu time  259.39: real time  259.19
    CORREC:  cpu time    0.00: real time    0.00
    CHARGE:  cpu time    0.09: real time    0.09
    --------------------------------------------
      LOOP:  cpu time  261.62: real time  261.42

 eigenvalue-minimisations  :     0
 total energy-change (2. order) :-0.9643356E-02  (-0.5115491E-02)
 number of electron     112.0001448 magnetization 
 augmentation part       37.8308002 magnetization 

 Free energy of the ion-electron system (eV)
  ---------------------------------------------------
  alpha Z        PSCENC =       339.31929130
  Ewald energy   TEWEN  =     -9066.05716303
  -1/2 Hartree   DENC   =     -8150.63871584
  -exchange  EXHF       =       340.13630400
  -V(xc)+E(xc)   XCENC  =       372.13113988
  PAW double counting   =     15936.87863996   -16422.20819905
  entropy T*S    EENTRO =         0.00056600
  eigenvalues    EBANDS =     -1740.13519032
  atomic energy  EATOM  =     18320.98302006
  ---------------------------------------------------
  free energy    TOTEN  =       -69.59029683 eV

  energy without entropy =      -69.59086283  energy(sigma->0) =      -69.59048550


--------------------------------------------------------------------------------------------------------




----------------------------------------- Iteration    1(  14)  ---------------------------------------


    POTLOK:  cpu time    0.08: real time    0.08
    SETDIJ:  cpu time    2.03: real time    2.03
 
    SUBROT:  cpu time    0.82: real time    0.82
    SUBROT:  cpu time    0.39: real time    0.39
    SUBROT:  cpu time    0.39: real time    0.39
    SUBROT:  cpu time    0.39: real time    0.39
    --------------------------------------------
    SUBRT+:  cpu time    1.99: real time    2.00

 Broyden mixing:
  rms(total) = 0.67783E-04    rms(broyden)= 0.67768E-04
  rms(prec ) = 0.13932E-03
  weight for this iteration     100.00

 eigenvalues of (default mixing * dielectric matrix)
  average eigenvalue GAMMA=   1.6705
  2.5156  0.9911  1.5049
 
    TRIAL :  cpu time  259.87: real time  259.65
    CORREC:  cpu time    0.00: real time    0.00
    CHARGE:  cpu time    0.08: real time    0.08
    --------------------------------------------
      LOOP:  cpu time  262.06: real time  261.86

 eigenvalue-minimisations  :     0
 total energy-change (2. order) :-0.2450186E-02  (-0.3773985E-02)
 number of electron     112.0001448 magnetization 
 augmentation part       37.8132764 magnetization 

 Free energy of the ion-electron system (eV)
  ---------------------------------------------------
  alpha Z        PSCENC =       339.31929130
  Ewald energy   TEWEN  =     -9066.05716303
  -1/2 Hartree   DENC   =     -8151.17923818
  -exchange  EXHF       =       340.13459951
  -V(xc)+E(xc)   XCENC  =       372.14070396
  PAW double counting   =     15934.87361658   -16420.36617008
  entropy T*S    EENTRO =         0.00058634
  eigenvalues    EBANDS =     -1739.44197315
  atomic energy  EATOM  =     18320.98302006
  ---------------------------------------------------
  free energy    TOTEN  =       -69.59274702 eV

  energy without entropy =      -69.59333336  energy(sigma->0) =      -69.59294247


--------------------------------------------------------------------------------------------------------




----------------------------------------- Iteration    1(  15)  ---------------------------------------


    POTLOK:  cpu time    0.10: real time    0.10
    SETDIJ:  cpu time    2.03: real time    2.02
 
    SUBROT:  cpu time    0.80: real time    0.80
    SUBROT:  cpu time    0.39: real time    0.39
    SUBROT:  cpu time    0.38: real time    0.38
    SUBROT:  cpu time    0.47: real time    0.47
    --------------------------------------------
    SUBRT+:  cpu time    2.04: real time    2.07

 Broyden mixing:
  rms(total) = 0.19447E-03    rms(broyden)= 0.19441E-03
  rms(prec ) = 0.33178E-03
  weight for this iteration     100.00

 eigenvalues of (default mixing * dielectric matrix)
  average eigenvalue GAMMA=   1.6847
  2.4724  0.9898  1.5918
 
    TRIAL :  cpu time  259.78: real time  259.59
    CORREC:  cpu time    0.00: real time    0.00
    CHARGE:  cpu time    0.08: real time    0.08
    --------------------------------------------
      LOOP:  cpu time  261.99: real time  261.80

 eigenvalue-minimisations  :     0
 total energy-change (2. order) :-0.1502005E-02  (-0.1035344E-02)
 number of electron     112.0001448 magnetization 
 augmentation part       37.8176052 magnetization 

 Free energy of the ion-electron system (eV)
  ---------------------------------------------------
  alpha Z        PSCENC =       339.31929130
  Ewald energy   TEWEN  =     -9066.05716303
  -1/2 Hartree   DENC   =     -8146.47625585
  -exchange  EXHF       =       340.04557237
  -V(xc)+E(xc)   XCENC  =       372.02957066
  PAW double counting   =     15922.84848433   -16407.73010114
  entropy T*S    EENTRO =         0.00060000
  eigenvalues    EBANDS =     -1744.55725408
  atomic energy  EATOM  =     18320.98302006
  ---------------------------------------------------
  free energy    TOTEN  =       -69.59424903 eV

  energy without entropy =      -69.59484903  energy(sigma->0) =      -69.59444903


--------------------------------------------------------------------------------------------------------




----------------------------------------- Iteration    1(  16)  ---------------------------------------


    POTLOK:  cpu time    0.06: real time    0.06
    SETDIJ:  cpu time    2.02: real time    2.02
 
    SUBROT:  cpu time    0.80: real time    0.80
    SUBROT:  cpu time    0.38: real time    0.38
    SUBROT:  cpu time    0.39: real time    0.39
    SUBROT:  cpu time    0.40: real time    0.40
    --------------------------------------------
    SUBRT+:  cpu time    1.98: real time    2.00

 Broyden mixing:
  rms(total) = 0.83620E-04    rms(broyden)= 0.83602E-04
  rms(prec ) = 0.13979E-03
  weight for this iteration     100.00

 eigenvalues of (default mixing * dielectric matrix)
  average eigenvalue GAMMA=   1.6853
  2.4865  0.9902  1.5791
 
    TRIAL :  cpu time  260.20: real time  260.29
    CORREC:  cpu time    0.00: real time    0.00
    CHARGE:  cpu time    0.08: real time    0.08
    --------------------------------------------
      LOOP:  cpu time  262.37: real time  262.47

 eigenvalue-minimisations  :     0
 total energy-change (2. order) :-0.5690551E-03  (-0.4082487E-03)
 number of electron     112.0001448 magnetization 
 augmentation part       37.8224115 magnetization 

 Free energy of the ion-electron system (eV)
  ---------------------------------------------------
  alpha Z        PSCENC =       339.31929130
  Ewald energy   TEWEN  =     -9066.05716303
  -1/2 Hartree   DENC   =     -8147.59693924
  -exchange  EXHF       =       340.06417483
  -V(xc)+E(xc)   XCENC  =       372.05677131
  PAW double counting   =     15923.72495261   -16408.79486018
  entropy T*S    EENTRO =         0.00060025
  eigenvalues    EBANDS =     -1743.29466575
  atomic energy  EATOM  =     18320.98302006
  ---------------------------------------------------
  free energy    TOTEN  =       -69.59481808 eV

[...]
     22      -2.2899      2.00000
     23      -1.9516      2.00000
     24      -1.6201      2.00000
     25      -1.2201      2.00000
     26      -1.0075      2.00000
     27      -0.9717      2.00000
     28      -0.7153      2.00000
     29      -0.5462      2.00000
     30      -0.3881      2.00000
     31      -0.2864      2.00000
     32      -0.1967      2.00000
     33      -0.1793      2.00000
     34      -0.1386      2.00000
     35      -0.0167      2.00000
     36       0.0202      2.00000
     37       1.2979      2.00000
     38       1.3110      2.00000
     39       1.3721      2.00000
     40       1.4139      2.00000
     41       1.4533      2.00000
     42       1.4688      2.00000
     43       1.5080      2.00000
     44       1.5519      2.00000
     45       1.7648      2.00000
     46       1.8941      2.00000
     47       1.9837      2.00000
     48       2.1544      2.00000
     49       2.3723      2.00000
     50       2.5753      2.00000
     51       2.7048      2.00000
     52       2.9105      2.00000
     53       3.0149      2.00000
     54       3.2208      2.00000
     55       3.4003      2.00000
     56       3.6550      2.00000
     57       6.3942     -0.00000
     58       6.5151     -0.00000
     59       7.7188      0.00000
     60       7.9155      0.00000
     61       8.2988      0.00000
     62       8.5759      0.00000
     63       9.3267      0.00000
     64       9.8456      0.00000
     65      10.0206      0.00000
     66      10.3534      0.00000
     67      10.5848      0.00000
     68      10.7838      0.00000
     69      10.9751      0.00000
     70      11.2511      0.00000
     71      11.3054      0.00000
     72      11.7038      0.00000
     73      12.2523      0.00000
     74      12.4630      0.00000
     75      13.0934      0.00000
     76      13.4852      0.00000
     77      13.8152      0.00000
     78      14.6877      0.00000
     79      14.9952      0.00000
     80      15.7145      0.00000

 k-point  40 :       0.2500   -0.2500    0.4000
  band No.  band energies     occupation 
      1     -68.6451      2.00000
      2     -68.6405      2.00000
      3     -68.6335      2.00000
      4     -68.6260      2.00000
      5     -68.6131      2.00000
      6     -68.6094      2.00000
      7     -68.5959      2.00000
      8     -68.5911      2.00000
      9     -68.5777      2.00000
     10     -68.5712      2.00000
     11     -68.5608      2.00000
     12     -68.5541      2.00000
     13     -12.2290      2.00000
     14     -11.8238      2.00000
     15     -10.8249      2.00000
     16     -10.6697      2.00000
     17     -10.3493      2.00000
     18     -10.2764      2.00000
     19      -5.4504      2.00000
     20      -5.1193      2.00000
     21      -2.4313      2.00000
     22      -2.1562      2.00000
     23      -2.0168      2.00000
     24      -1.5252      2.00000
     25      -1.3605      2.00000
     26      -1.1638      2.00000
     27      -0.9368      2.00000
     28      -0.8129      2.00000
     29      -0.5843      2.00000
     30      -0.5311      2.00000
     31      -0.2751      2.00000
     32      -0.2354      2.00000
     33      -0.1332      2.00000
     34      -0.0905      2.00000
     35      -0.0229      2.00000
     36       0.0352      2.00000
     37       1.3155      2.00000
     38       1.3474      2.00000
     39       1.3652      2.00000
     40       1.3998      2.00000
     41       1.4544      2.00000
     42       1.4847      2.00000
     43       1.5015      2.00000
     44       1.5666      2.00000
     45       1.8032      2.00000
     46       1.8498      2.00000
     47       1.9613      2.00000
     48       2.1116      2.00000
     49       2.2973      2.00000
     50       2.5307      2.00000
     51       2.6403      2.00000
     52       2.7706      2.00000
     53       2.9294      2.00000
     54       3.1607      2.00000
     55       3.3038      2.00000
     56       3.5741      2.00000
     57       6.5638     -0.00000
     58       6.7276     -0.00000
     59       7.9665      0.00000
     60       8.0031      0.00000
     61       8.7328      0.00000
     62       9.0954      0.00000
     63       9.4595      0.00000
     64       9.8292      0.00000
     65      10.2954      0.00000
     66      10.3704      0.00000
     67      10.7711      0.00000
     68      10.8476      0.00000
     69      11.1166      0.00000
     70      11.2696      0.00000
     71      11.3680      0.00000
     72      11.6175      0.00000
     73      12.0475      0.00000
     74      12.2957      0.00000
     75      12.6475      0.00000
     76      13.1211      0.00000
     77      13.2752      0.00000
     78      14.2488      0.00000
     79      15.6332      0.00000
     80      15.8458      0.00000

 k-point  41 :       0.5000   -0.2500    0.4000
  band No.  band energies     occupation 
      1     -68.6450      2.00000
      2     -68.6404      2.00000
      3     -68.6333      2.00000
      4     -68.6259      2.00000
      5     -68.6130      2.00000
      6     -68.6094      2.00000
      7     -68.5957      2.00000
      8     -68.5909      2.00000
      9     -68.5777      2.00000
     10     -68.5712      2.00000
     11     -68.5608      2.00000
     12     -68.5541      2.00000
     13     -12.0887      2.00000
     14     -11.7833      2.00000
     15     -10.8448      2.00000
     16     -10.7599      2.00000
     17     -10.5325      2.00000
     18     -10.3154      2.00000
     19      -5.4230      2.00000
     20      -4.9420      2.00000
     21      -2.4014      2.00000
     22      -2.1349      2.00000
     23      -1.8629      2.00000
     24      -1.7242      2.00000
     25      -1.4462      2.00000
     26      -1.1285      2.00000
     27      -0.8822      2.00000
     28      -0.6437      2.00000
     29      -0.6010      2.00000
     30      -0.4496      2.00000
     31      -0.2598      2.00000
     32      -0.1766      2.00000
     33      -0.1195      2.00000
     34      -0.0525      2.00000
     35      -0.0192      2.00000
     36       0.0222      2.00000
     37       1.2654      2.00000
     38       1.3175      2.00000
     39       1.4130      2.00000
     40       1.4387      2.00000
     41       1.4877      2.00000
     42       1.4951      2.00000
     43       1.5180      2.00000
     44       1.5767      2.00000
     45       1.7621      2.00000
     46       1.8455      2.00000
     47       2.1191      2.00000
     48       2.1866      2.00000
     49       2.3678      2.00000
     50       2.4594      2.00000
     51       2.4933      2.00000
     52       2.6971      2.00000
     53       2.8254      2.00000
     54       3.0886      2.00000
     55       3.2896      2.00000
     56       3.5241      2.00000
     57       6.4913     -0.00000
     58       6.6005     -0.00000
     59       7.4608      0.00000
     60       7.7152      0.00000
     61       8.5906      0.00000
     62       8.7509      0.00000
     63       9.3029      0.00000
     64       9.5313      0.00000
     65       9.9477      0.00000
     66      10.1865      0.00000
     67      10.6810      0.00000
     68      11.1129      0.00000
     69      11.2505      0.00000
     70      11.5668      0.00000
     71      11.7077      0.00000
     72      11.8931      0.00000
     73      12.2931      0.00000
     74      12.6541      0.00000
     75      13.0048      0.00000
     76      13.2353      0.00000
     77      13.6692      0.00000
     78      14.0742      0.00000
     79      14.3951      0.00000
     80      16.5220      0.00000

 k-point  42 :      -0.2500   -0.2500    0.4000
  band No.  band energies     occupation 
      1     -68.6452      2.00000
      2     -68.6406      2.00000
      3     -68.6333      2.00000
      4     -68.6258      2.00000
      5     -68.6130      2.00000
      6     -68.6095      2.00000
      7     -68.5957      2.00000
      8     -68.5909      2.00000
      9     -68.5777      2.00000
     10     -68.5712      2.00000
     11     -68.5609      2.00000
     12     -68.5542      2.00000
     13     -12.1869      2.00000
     14     -11.7136      2.00000
     15     -10.7169      2.00000
     16     -10.6937      2.00000
     17     -10.5862      2.00000
     18     -10.3914      2.00000
     19      -5.4506      2.00000
     20      -5.0716      2.00000
     21      -2.5098      2.00000
     22      -2.3803      2.00000
     23      -1.9662      2.00000
     24      -1.3673      2.00000
     25      -1.3306      2.00000
     26      -1.0589      2.00000
     27      -0.8295      2.00000
     28      -0.7671      2.00000
     29      -0.4228      2.00000
     30      -0.3384      2.00000
     31      -0.2695      2.00000
     32      -0.2057      2.00000
     33      -0.1392      2.00000
     34      -0.1379      2.00000
     35      -0.0116      2.00000
     36       0.0286      2.00000
     37       1.1765      2.00000
     38       1.3739      2.00000
     39       1.4002      2.00000
     40       1.4549      2.00000
     41       1.4564      2.00000
     42       1.5007      2.00000
     43       1.5195      2.00000
     44       1.5508      2.00000
     45       1.7458      2.00000
     46       1.8223      2.00000
     47       1.9762      2.00000
     48       2.2292      2.00000
     49       2.3950      2.00000
     50       2.6115      2.00000
     51       2.6549      2.00000
     52       2.9163      2.00000
     53       3.0718      2.00000
     54       3.1178      2.00000
     55       3.2875      2.00000
     56       3.5841      2.00000
     57       6.3012     -0.00000
     58       6.3796     -0.00000
     59       7.3665      0.00000
     60       7.5252      0.00000
     61       8.3119      0.00000
     62       8.3407      0.00000
     63       9.1055      0.00000
     64       9.3543      0.00000
     65       9.7181      0.00000
     66       9.9489      0.00000
     67      10.5250      0.00000
     68      10.9879      0.00000
     69      11.4219      0.00000
     70      11.5612      0.00000
     71      12.0208      0.00000
     72      12.2841      0.00000
     73      12.4260      0.00000
     74      12.4759      0.00000
     75      13.0325      0.00000
     76      13.1452      0.00000
     77      14.1361      0.00000
     78      14.4374      0.00000
     79      15.1621      0.00000
     80      15.8618      0.00000


--------------------------------------------------------------------------------------------------------


 soft charge-density along one line, spin component           1
         0         1         2         3         4         5         6         7         8         9
 total charge-density along one line
 
 pseudopotential strength for first ion, spin component:           1
-65.420   0.002   0.006   7.361   0.000  -0.003   0.001   0.007
  0.002 -65.391  -0.005   0.000   7.352   0.001  -0.001  -0.025
  0.006  -0.005 -65.380  -0.003   0.001   7.348  -0.037  -0.001
  7.361   0.000  -0.003   6.111   0.000   0.001   0.002  -0.004
  0.000   7.352   0.001   0.000   6.113  -0.000   0.000   0.007
 -0.003   0.001   7.348   0.001  -0.000   6.114   0.009   0.000
  0.001  -0.001  -0.037   0.002   0.000   0.009  -2.976  -0.003
  0.007  -0.025  -0.001  -0.004   0.007   0.000  -0.003  -2.982
  0.022   0.043   0.010  -0.005  -0.008  -0.003  -0.004   0.008
 -0.001  -0.018   0.007   0.000   0.005  -0.004   0.004   0.007
  0.026   0.000  -0.035  -0.007  -0.000   0.007  -0.000   0.007
  0.001  -0.001  -0.037   0.002   0.000   0.009  -3.622  -0.003
  0.007  -0.024  -0.001  -0.004   0.007   0.000  -0.003  -3.628
  0.022   0.042   0.009  -0.005  -0.008  -0.003  -0.004   0.008
 -0.001  -0.017   0.007   0.000   0.005  -0.004   0.004   0.007
  0.026   0.000  -0.034  -0.007  -0.000   0.007  -0.000   0.007
  0.008  -0.005   0.004  -0.001   0.001  -0.001  -0.002   0.000
  0.016  -0.010   0.009  -0.002   0.001  -0.002  -0.003   0.001
 total augmentation occupancy for first ion, spin component:           1
  2.000  -0.000   0.000  -0.003  -0.000   0.000   0.007  -0.005   0.001  -0.001  -0.005  -0.008   0.005  -0.001   0.001   0.005
 -0.000   2.000  -0.000  -0.000  -0.003   0.000  -0.001   0.005   0.004   0.001   0.000   0.001  -0.005  -0.005  -0.001  -0.000
  0.000  -0.000   2.000   0.000   0.000  -0.003  -0.000  -0.000  -0.001  -0.005  -0.004   0.001   0.000   0.001   0.005   0.005
 -0.003  -0.000   0.000   0.094   0.006  -0.005  -0.331   0.231  -0.074   0.010   0.017   0.278  -0.195   0.059  -0.006  -0.011
 -0.000  -0.003   0.000   0.006   0.102   0.001   0.019  -0.047  -0.444   0.016   0.011  -0.012   0.036   0.377  -0.011  -0.009
  0.000   0.000  -0.003  -0.005   0.001   0.099   0.100  -0.004  -0.014   0.235   0.354  -0.079   0.003   0.011  -0.201  -0.297
  0.007  -0.001  -0.000  -0.331   0.019   0.100   3.996  -0.785   0.097   0.221   0.148  -1.724   0.736  -0.091  -0.188  -0.143
 -0.005   0.005  -0.000   0.231  -0.047  -0.004  -0.785   3.503   0.292   0.154   0.297   0.735  -1.263  -0.215  -0.110  -0.206
  0.001   0.004  -0.001  -0.074  -0.444  -0.014   0.097   0.292   4.687  -0.045  -0.115  -0.091  -0.215  -2.396   0.037   0.086
 -0.001   0.001  -0.005   0.010   0.016   0.235   0.221   0.154  -0.045   3.629   0.796  -0.188  -0.110   0.037  -1.349  -0.758
 -0.005   0.000  -0.004   0.017   0.011   0.354   0.148   0.297  -0.115   0.796   3.998  -0.143  -0.205   0.085  -0.759  -1.743
 -0.008   0.001   0.001   0.278  -0.012  -0.079  -1.724   0.735  -0.091  -0.188  -0.143   1.430  -0.688   0.085   0.159   0.137
  0.005  -0.005   0.000  -0.195   0.036   0.003   0.736  -1.263  -0.215  -0.110  -0.205  -0.688   0.999   0.153   0.074   0.131
 -0.001  -0.005   0.001   0.059   0.377   0.011  -0.091  -0.215  -2.396   0.037   0.085   0.085   0.153   2.081  -0.031  -0.062
  0.001  -0.001   0.005  -0.006  -0.011  -0.201  -0.188  -0.110   0.037  -1.349  -0.759   0.159   0.074  -0.031   1.055   0.720
  0.005  -0.000   0.005  -0.011  -0.009  -0.297  -0.143  -0.206   0.086  -0.758  -1.743   0.137   0.131  -0.062   0.720   1.462
 -0.025   0.016  -0.013  -0.021   0.011  -0.007   0.089  -0.106  -0.025  -0.009   0.026  -0.070   0.092   0.036   0.009   0.005
  0.012  -0.008   0.006   0.001  -0.000   0.000  -0.009   0.003  -0.003   0.005  -0.019   0.005  -0.006  -0.002  -0.001   0.003


------------------------ aborting loop because EDIFF is reached ----------------------------------------


    FORLOC:  cpu time    0.01: real time    0.01
    FORHF :  cpu time  487.90: real time  487.47
    FORNL :  cpu time    0.39: real time    0.39
    FORCOR:  cpu time    2.00: real time    1.99

 VOLUME and BASIS-vectors are now :
 -----------------------------------------------------------------------------
  energy-cutoff  :      400.00
  volume of cell :      221.90
      direct lattice vectors                 reciprocal lattice vectors
     3.224796000 -5.643830000  0.031572000     0.154525165 -0.088592321  0.053460880
     3.224796000  5.643830000  0.031572000     0.154525165  0.088592321  0.053460880
    -2.101946000  0.000000000  6.075537000    -0.001606004  0.000000000  0.164038877

  length of vectors
     6.500240234  6.500240234  6.428866683     0.185969598  0.185969598  0.164046738


 FORCES acting on ions:
    Electron-Ion                     Ewald-Force                    Non-Local-Force
 -----------------------------------------------------------------------------------------------
   -.157E+02 -.979E+02 0.120E+02   0.144E+02 0.955E+02 -.104E+02   0.105E+01 0.217E+01 -.142E+01
   -.143E+02 0.970E+02 0.116E+02   0.131E+02 -.945E+02 -.997E+01   0.102E+01 -.210E+01 -.142E+01
   0.267E+02 -.162E+02 0.501E+01   -.234E+02 0.160E+02 -.371E+01   -.291E+01 0.179E+00 -.113E+01
   0.255E+02 0.167E+02 0.439E+01   -.223E+02 -.165E+02 -.311E+01   -.284E+01 -.151E+00 -.112E+01
   -.111E+02 -.313E+02 -.112E+02   0.104E+02 0.300E+02 0.100E+02   0.684E+00 0.134E+01 0.114E+01
   -.107E+02 0.310E+02 -.114E+02   0.100E+02 -.297E+02 0.102E+02   0.649E+00 -.129E+01 0.115E+01
   -.135E+03 -.982E+01 -.491E+02   0.132E+03 0.985E+01 0.483E+02   0.278E+01 -.305E-01 0.730E+00
   0.697E+02 -.125E+03 0.953E+02   -.679E+02 0.122E+03 -.933E+02   -.152E+01 0.222E+01 -.188E+01
   0.666E+02 -.133E+03 -.498E+02   -.651E+02 0.130E+03 0.488E+02   -.136E+01 0.219E+01 0.891E+00
   0.702E+02 0.126E+03 0.961E+02   -.685E+02 -.123E+03 -.941E+02   -.156E+01 -.230E+01 -.188E+01
   -.135E+03 0.971E+01 -.492E+02   0.132E+03 -.975E+01 0.483E+02   0.278E+01 0.499E-01 0.737E+00
   0.667E+02 0.132E+03 -.498E+02   -.652E+02 -.130E+03 0.488E+02   -.137E+01 -.216E+01 0.878E+00
 -----------------------------------------------------------------------------------------------
   0.286E+01 -.128E+00 0.376E+01   -.142E-13 0.000E+00 -.711E-13   -.260E+01 0.115E+00 -.332E+01
 
 
 POSITION                                       TOTAL-FORCE (eV/Angst)
 -----------------------------------------------------------------------------------
      2.13385     -2.80652      0.74958         0.001110      0.002659     -0.000908
      1.08288      2.80652      3.78735        -0.002301      0.001208      0.000051
      5.40423     -0.97432      0.77721        -0.001815     -0.001982     -0.000106
      4.35326      0.97432      3.81498         0.003082     -0.000882      0.000926
      1.02081     -0.97328      3.66185        -0.007654      0.017129     -0.009693
      2.07178      0.97328      0.62409        -0.033588      0.050220      0.014570
      2.15090      4.69667      3.05304         0.000741      0.001106     -0.004270
      1.10719     -0.88891      5.98616         0.058112     -0.103530     -0.005959
      2.14287     -2.74882      3.03886        -0.002524      0.006276      0.005413
      2.16313      0.89759      2.94844        -0.000615      0.006643      0.000248
      1.09993     -4.69667      6.09081        -0.004124      0.011122     -0.000292
      1.09189      2.74882      6.07662        -0.010423      0.010031      0.000020
 -----------------------------------------------------------------------------------
    total drift:                               -0.058932     -0.001044     -0.053973


--------------------------------------------------------------------------------------------------------



  FREE ENERGIE OF THE ION-ELECTRON SYSTEM (eV)
  ---------------------------------------------------
  free  energy   TOTEN  =       -69.59516266 eV

  energy  without entropy=      -69.59575609  energy(sigma->0) =      -69.59536047
 


--------------------------------------------------------------------------------------------------------


    POTLOK:  cpu time    2.09: real time    2.17


--------------------------------------------------------------------------------------------------------


 writing wavefunctions
     LOOP+:  cpu time 5928.74: real time 5926.60
    4ORBIT:  cpu time    0.00: real time    0.00

 total amount of memory used by VASP on root node   155701. kBytes
========================================================================

   base      :      30000. kBytes
   nonl-proj :      74517. kBytes
   fftplans  :        702. kBytes
   grid      :       2400. kBytes
   one-center:        186. kBytes
   HF        :        194. kBytes
   nonlr-proj:       5126. kBytes
   wavefun   :      42576. kBytes
 
  
  
 General timing and accounting informations for this job:
 ========================================================
  
                  Total CPU time used (sec):     5965.427
                            User time (sec):     5963.901
                          System time (sec):        1.526
                         Elapsed time (sec):     5964.108
  
                   Maximum memory used (kb):      299956.
                   Average memory used (kb):           0.
  
                          Minor page faults:        79227
                          Major page faults:            1
                 Voluntary context switches:         3630
