<?xml version="1.0" encoding="ISO-8859-1"?>
<modeling>
 <generator>
  <i name="program" type="string">vasp </i>
  <i name="version" type="string">5.3.3  </i>
  <i name="subversion" type="string">18Dez12 (build Nov 13 2015 09:58:40) complex                          parallel </i>
  <i name="platform" type="string">LinuxIFC </i>
  <i name="date" type="string">2017 10 18 </i>
  <i name="time" type="string">13:12:37 </i>
 </generator>
 <incar>
  <i type="string" name="SYSTEM"> CGS</i>
  <i type="string" name="PREC">normal</i>
  <i type="string" name="ALGO"> D</i>
  <i type="logical" name="LDIAG"> T  </i>
  <i name="EDIFF">      0.00001000</i>
  <i name="ENCUT">    400.00000000</i>
  <i name="TIME">      0.40000000</i>
  <i type="int" name="ISMEAR">     1</i>
  <i name="SIGMA">      0.10000000</i>
  <i type="logical" name="LHFCALC"> T  </i>
  <i type="string" name="GGA"> PE</i>
  <i name="HFSCREEN">      0.20000000</i>
  <i name="AEXX">      0.25000000</i>
  <i type="string" name="PRECFOCK">fast</i>
 </incar>
 <kpoints>
  <generation param="Gamma">
   <v type="int" name="divisions">       4        4        5 </v>
   <v name="usershift">      0.00000000       0.00000000       0.00000000 </v>
   <v name="genvec1">      0.25000000       0.00000000       0.00000000 </v>
   <v name="genvec2">      0.00000000       0.25000000       0.00000000 </v>
   <v name="genvec3">      0.00000000       0.00000000       0.20000000 </v>
   <v name="shift">      0.00000000       0.00000000       0.00000000 </v>
  </generation>
  <varray name="kpointlist" >
   <v>       0.00000000       0.00000000       0.00000000 </v>
   <v>       0.25000000       0.00000000       0.00000000 </v>
   <v>       0.50000000       0.00000000       0.00000000 </v>
   <v>       0.00000000       0.25000000       0.00000000 </v>
   <v>       0.25000000       0.25000000       0.00000000 </v>
   <v>       0.50000000       0.25000000      -0.00000000 </v>
   <v>      -0.25000000       0.25000000       0.00000000 </v>
   <v>       0.00000000       0.50000000       0.00000000 </v>
   <v>       0.25000000       0.50000000      -0.00000000 </v>
   <v>       0.50000000       0.50000000       0.00000000 </v>
   <v>      -0.00000000      -0.00000000       0.20000000 </v>
   <v>       0.25000000       0.00000000       0.20000000 </v>
   <v>       0.50000000       0.00000000       0.20000000 </v>
   <v>      -0.25000000      -0.00000000       0.20000000 </v>
   <v>       0.00000000       0.25000000       0.20000000 </v>
   <v>       0.25000000       0.25000000       0.20000000 </v>
   <v>       0.50000000       0.25000000       0.20000000 </v>
   <v>      -0.25000000       0.25000000       0.20000000 </v>
   <v>       0.00000000       0.50000000       0.20000000 </v>
   <v>       0.25000000       0.50000000       0.20000000 </v>
   <v>       0.50000000       0.50000000       0.20000000 </v>
   <v>      -0.25000000       0.50000000       0.20000000 </v>
   <v>      -0.00000000      -0.25000000       0.20000000 </v>
   <v>       0.25000000      -0.25000000       0.20000000 </v>
   <v>       0.50000000      -0.25000000       0.20000000 </v>
   <v>      -0.25000000      -0.25000000       0.20000000 </v>
   <v>      -0.00000000      -0.00000000       0.40000000 </v>
   <v>       0.25000000       0.00000000       0.40000000 </v>
   <v>       0.50000000       0.00000000       0.40000000 </v>
   <v>      -0.25000000       0.00000000       0.40000000 </v>
   <v>       0.00000000       0.25000000       0.40000000 </v>
   <v>       0.25000000       0.25000000       0.40000000 </v>
   <v>       0.50000000       0.25000000       0.40000000 </v>
   <v>      -0.25000000       0.25000000       0.40000000 </v>
   <v>       0.00000000       0.50000000       0.40000000 </v>
   <v>       0.25000000       0.50000000       0.40000000 </v>
   <v>       0.50000000       0.50000000       0.40000000 </v>
   <v>      -0.25000000       0.50000000       0.40000000 </v>
   <v>       0.00000000      -0.25000000       0.40000000 </v>
   <v>       0.25000000      -0.25000000       0.40000000 </v>
   <v>       0.50000000      -0.25000000       0.40000000 </v>
   <v>      -0.25000000      -0.25000000       0.40000000 </v>
  </varray>
  <varray name="weights" >
   <v>       0.01250000 </v>
   <v>       0.02500000 </v>
   <v>       0.01250000 </v>
   <v>       0.02500000 </v>
   <v>       0.02500000 </v>
   <v>       0.02500000 </v>
   <v>       0.02500000 </v>
   <v>       0.01250000 </v>
   <v>       0.02500000 </v>
   <v>       0.01250000 </v>
   <v>       0.02500000 </v>
   <v>       0.02500000 </v>
   <v>       0.02500000 </v>
   <v>       0.02500000 </v>
   <v>       0.02500000 </v>
   <v>       0.02500000 </v>
   <v>       0.02500000 </v>
   <v>       0.02500000 </v>
   <v>       0.02500000 </v>
   <v>       0.02500000 </v>
   <v>       0.02500000 </v>
   <v>       0.02500000 </v>
   <v>       0.02500000 </v>
   <v>       0.02500000 </v>
   <v>       0.02500000 </v>
   <v>       0.02500000 </v>
   <v>       0.02500000 </v>
   <v>       0.02500000 </v>
   <v>       0.02500000 </v>
   <v>       0.02500000 </v>
   <v>       0.02500000 </v>
   <v>       0.02500000 </v>
   <v>       0.02500000 </v>
   <v>       0.02500000 </v>
   <v>       0.02500000 </v>
   <v>       0.02500000 </v>
   <v>       0.02500000 </v>
   <v>       0.02500000 </v>
   <v>       0.02500000 </v>
   <v>       0.02500000 </v>
   <v>       0.02500000 </v>
   <v>       0.02500000 </v>
  </varray>
 </kpoints>
 <parameters>
  <separator name="general" >
   <i type="string" name="SYSTEM">CGS</i>
   <i type="logical" name="LCOMPAT"> F  </i>
  </separator>
  <separator name="electronic" >
   <i type="string" name="PREC">normal</i>
   <i name="ENMAX">    400.00000000</i>
   <i name="ENAUG">    758.23300000</i>
   <i name="EDIFF">      0.00001000</i>
   <i type="int" name="IALGO">    53</i>
   <i type="int" name="IWAVPR">    10</i>
   <i type="int" name="NBANDS">    80</i>
   <i name="NELECT">    112.00000000</i>
   <i type="int" name="TURBO">     0</i>
   <i type="int" name="IRESTART">     0</i>
   <i type="int" name="NREBOOT">     0</i>
   <i type="int" name="NMIN">     0</i>
   <i name="EREF">      0.00000000</i>
   <separator name="electronic smearing" >
    <i type="int" name="ISMEAR">     1</i>
    <i name="SIGMA">      0.10000000</i>
    <i name="KSPACING">      0.50000000</i>
    <i type="logical" name="KGAMMA"> T  </i>
   </separator>
   <separator name="electronic projectors" >
    <i type="logical" name="LREAL"> F  </i>
    <v name="ROPT">      0.00000000      0.00000000      0.00000000</v>
    <i type="int" name="LMAXPAW">  -100</i>
    <i type="int" name="LMAXMIX">     2</i>
    <i type="logical" name="NLSPLINE"> F  </i>
   </separator>
   <separator name="electronic startup" >
    <i type="int" name="ISTART">     1</i>
    <i type="int" name="ICHARG">     0</i>
    <i type="int" name="INIWAV">     1</i>
   </separator>
   <separator name="electronic spin" >
    <i type="int" name="ISPIN">     1</i>
    <i type="logical" name="LNONCOLLINEAR"> F  </i>
    <v name="MAGMOM">      1.00000000      1.00000000      1.00000000      1.00000000      1.00000000      1.00000000      1.00000000      1.00000000      1.00000000      1.00000000      1.00000000      1.00000000</v>
    <i name="NUPDOWN">     -1.00000000</i>
    <i type="logical" name="LSORBIT"> F  </i>
    <v name="SAXIS">      0.00000000      0.00000000      1.00000000</v>
    <i type="logical" name="LSPIRAL"> F  </i>
    <v name="QSPIRAL">      0.00000000      0.00000000      0.00000000</v>
    <i type="logical" name="LZEROZ"> F  </i>
   </separator>
   <separator name="electronic exchange-correlation" >
    <i type="logical" name="LASPH"> F  </i>
    <i type="logical" name="LMETAGGA"> F  </i>
   </separator>
   <separator name="electronic convergence" >
    <i type="int" name="NELM">    60</i>
    <i type="int" name="NELMDL">     0</i>
    <i type="int" name="NELMIN">     2</i>
    <i name="ENINI">    400.00000000</i>
    <separator name="electronic convergence detail" >
     <i type="logical" name="LDIAG"> T  </i>
     <i type="logical" name="LSUBROT"> T  </i>
     <i name="WEIMIN">      0.00000000</i>
     <i name="EBREAK">      0.00000003</i>
     <i name="DEPER">      0.30000000</i>
     <i type="int" name="NRMM">     4</i>
     <i name="TIME">      0.40000000</i>
    </separator>
   </separator>
   <separator name="electronic mixer" >
    <i name="AMIX">      0.40000000</i>
    <i name="BMIX">      1.00000000</i>
    <i name="AMIN">      0.10000000</i>
    <i name="AMIX_MAG">      1.60000000</i>
    <i name="BMIX_MAG">      1.00000000</i>
    <separator name="electronic mixer details" >
     <i type="int" name="IMIX">     4</i>
     <i type="int" name="MAXMIX">   -45</i>
     <i name="WC">    100.00000000</i>
     <i type="int" name="INIMIX">     1</i>
     <i type="int" name="MIXPRE">     1</i>
     <i type="int" name="MREMOVE">     5</i>
    </separator>
   </separator>
   <separator name="electronic dipolcorrection" >
    <i type="logical" name="LDIPOL"> F  </i>
    <i type="logical" name="LMONO"> F  </i>
    <i type="int" name="IDIPOL">     0</i>
    <i name="EPSILON">      1.00000000</i>
    <v name="DIPOL">   -100.00000000   -100.00000000   -100.00000000</v>
    <i name="EFIELD">      0.00000000</i>
   </separator>
  </separator>
  <separator name="grids" >
   <i type="int" name="NGX">    32</i>
   <i type="int" name="NGY">    32</i>
   <i type="int" name="NGZ">    32</i>
   <i type="int" name="NGXF">    64</i>
   <i type="int" name="NGYF">    64</i>
   <i type="int" name="NGZF">    64</i>
   <i type="logical" name="ADDGRID"> F  </i>
  </separator>
  <separator name="ionic" >
   <i type="int" name="NSW">     0</i>
   <i type="int" name="IBRION">    -1</i>
   <i type="int" name="ISIF">     0</i>
   <i name="PSTRESS">      0.00000000</i>
   <i name="EDIFFG">      0.00010000</i>
   <i type="int" name="NFREE">     0</i>
   <i name="POTIM">      0.50000000</i>
   <i name="SMASS">     -3.00000000</i>
   <i name="SCALEE">      1.00000000</i>
  </separator>
  <separator name="ionic md" >
   <i name="TEBEG">      0.00010000</i>
   <i name="TEEND">      0.00010000</i>
   <i type="int" name="NBLOCK">     1</i>
   <i type="int" name="KBLOCK">     1</i>
   <i type="int" name="NPACO">   256</i>
   <i name="APACO">     16.00000000</i>
  </separator>
  <separator name="symmetry" >
   <i type="int" name="ISYM">     3</i>
   <i name="SYMPREC">      0.00001000</i>
  </separator>
  <separator name="dos" >
   <i type="logical" name="LORBIT"> F  </i>
   <v name="RWIGS">     -1.00000000     -1.00000000     -1.00000000</v>
   <i type="int" name="NEDOS">   301</i>
   <i name="EMIN">     10.00000000</i>
   <i name="EMAX">    -10.00000000</i>
   <i name="EFERMI">      0.00000000</i>
  </separator>
  <separator name="writing" >
   <i type="int" name="NWRITE">     2</i>
   <i type="logical" name="LWAVE"> T  </i>
   <i type="logical" name="LCHARG"> T  </i>
   <i type="logical" name="LPARD"> F  </i>
   <i type="logical" name="LVTOT"> F  </i>
   <i type="logical" name="LVHAR"> F  </i>
   <i type="logical" name="LELF"> F  </i>
   <i type="logical" name="LOPTICS"> F  </i>
   <v name="STM">      0.00000000      0.00000000      0.00000000      0.00000000      0.00000000      0.00000000      0.00000000</v>
  </separator>
  <separator name="performance" >
   <i type="int" name="NPAR">    16</i>
   <i type="int" name="NSIM">     4</i>
   <i type="int" name="NBLK">    -1</i>
   <i type="logical" name="LPLANE"> T  </i>
   <i type="logical" name="LSCALAPACK"> T  </i>
   <i type="logical" name="LSCAAWARE"> F  </i>
   <i type="logical" name="LSCALU"> F  </i>
   <i type="logical" name="LASYNC"> F  </i>
   <i type="logical" name="LORBITALREAL"> F  </i>
  </separator>
  <separator name="miscellaneous" >
   <i type="int" name="IDIOT">     3</i>
   <i type="logical" name="LMUSIC"> F  </i>
   <v name="POMASS">     63.54600000     72.61000000     32.06600000</v>
   <v name="DARWINR">      0.00000000      0.00000000      0.00000000</v>
   <v name="DARWINV">      1.00000000      1.00000000      1.00000000</v>
   <i type="logical" name="LCORR"> T  </i>
  </separator>
  <i type="logical" name="GGA_COMPAT"> T  </i>
  <i type="logical" name="LBERRY"> F  </i>
  <i type="int" name="ICORELEVEL">     0</i>
  <i type="logical" name="LDAU"> F  </i>
  <i type="int" name="I_CONSTRAINED_M">     0</i>
  <separator name="electronic exchange-correlation" >
   <i type="string" name="GGA">PE</i>
   <i type="int" name="VOSKOWN">     0</i>
   <i type="logical" name="LHFCALC"> T  </i>
   <i type="string" name="PRECFOCK">fast</i>
   <i type="logical" name="LSYMGRAD"> F  </i>
   <i type="logical" name="LHFONE"> F  </i>
   <i type="logical" name="LRHFCALC"> F  </i>
   <i type="logical" name="LTHOMAS"> F  </i>
   <i type="logical" name="LMODELHF"> F  </i>
   <i name="ENCUT4O">     -1.00000000</i>
   <i type="int" name="EXXOEP">     0</i>
   <i type="int" name="FOURORBIT">     0</i>
   <i name="AEXX">      0.25000000</i>
   <i name="HFALPHA">     -1.00000000</i>
   <i name="MCALPHA">      0.00000000</i>
   <i name="ALDAX">      0.75000000</i>
   <i name="AGGAX">      0.75000000</i>
   <i name="ALDAC">      1.00000000</i>
   <i name="AGGAC">      1.00000000</i>
   <i type="int" name="NKREDX">     1</i>
   <i type="int" name="NKREDY">     1</i>
   <i type="int" name="NKREDZ">     1</i>
   <i type="logical" name="SHIFTRED"> F  </i>
   <i type="logical" name="ODDONLY"> F  </i>
   <i type="logical" name="EVENONLY"> F  </i>
   <i type="int" name="LMAXFOCK">     4</i>
   <i type="int" name="NMAXFOCKAE">     1</i>
   <i type="logical" name="LFOCKAEDFT"> F  </i>
   <i name="HFSCREEN">      0.20000000</i>
   <i name="HFSCREENC">      0.20000000</i>
   <i type="int" name="NBANDSGWLOW">     1</i>
  </separator>
  <separator name="vdW DFT" >
   <i type="logical" name="LUSE_VDW"> F  </i>
   <i name="Zab_VDW">     -0.84910000</i>
   <i name="PARAM1">      0.12340000</i>
   <i name="PARAM2">      1.00000000</i>
   <i name="PARAM3">      0.00000000</i>
  </separator>
  <separator name="model GW" >
   <i type="int" name="MODEL_GW">     0</i>
   <i name="MODEL_EPS0">     11.09505304</i>
   <i name="MODEL_ALPHA">      1.00000000</i>
  </separator>
  <separator name="linear response parameters" >
   <i type="logical" name="LEPSILON"> F  </i>
   <i type="logical" name="LRPA"> F  </i>
   <i type="logical" name="LNABLA"> F  </i>
   <i type="logical" name="LVEL"> F  </i>
   <i type="int" name="KINTER">     0</i>
   <i name="CSHIFT">      0.10000000</i>
   <i name="OMEGAMAX">     -1.00000000</i>
   <i name="DEG_THRESHOLD">      0.00200000</i>
  </separator>
  <separator name="orbital magnetization" >
   <i type="logical" name="NUCIND"> F  </i>
   <v name="MAGPOS">      0.00000000      0.00000000      0.00000000</v>
   <i type="logical" name="LNICSALL"> T  </i>
   <i type="logical" name="ORBITALMAG"> F  </i>
   <i type="logical" name="LMAGBLOCH"> F  </i>
   <i type="logical" name="LCHIMAG"> F  </i>
   <i type="logical" name="LGAUGE"> T  </i>
   <i type="int" name="MAGATOM">     0</i>
   <v name="MAGDIPOL">      0.00000000      0.00000000      0.00000000</v>
   <v name="AVECCONST">      0.00000000      0.00000000      0.00000000</v>
  </separator>
  <separator name="response functions" >
   <i type="logical" name="LADDER"> F  </i>
   <i type="logical" name="LFXC"> F  </i>
   <i type="logical" name="LHARTREE"> T  </i>
   <i type="int" name="IBSE">     0</i>
   <i type="logical" name="LTCTE"> F  </i>
   <i type="logical" name="LTETE"> F  </i>
   <i type="logical" name="LTRIPLET"> F  </i>
   <i type="logical" name="LFXCEPS"> F  </i>
   <i type="logical" name="L2ORDER"> F  </i>
   <i type="logical" name="LUSEW"> F  </i>
   <i name="ENCUTGW">     -2.00000000</i>
   <i name="ENCUTGWSOFT">     -2.00000000</i>
   <i name="ENCUTLF">     -1.00000000</i>
   <i type="int" name="LMAXMP2">    -1</i>
   <i name="SCISSOR">      0.00000000</i>
   <i type="int" name="NOMEGA">     0</i>
   <i type="int" name="NOMEGAR">     0</i>
   <i type="int" name="NBANDSGW">    -1</i>
   <i type="int" name="NBANDSO">    -1</i>
   <i type="int" name="NBANDSV">    -1</i>
   <i type="int" name="NELM">     1</i>
   <i type="int" name="DIM">     3</i>
   <i type="int" name="ANTIRES">     0</i>
   <i name="OMEGAMAX">    -30.00000000</i>
   <i name="OMEGATL">   -200.00000000</i>
   <i type="int" name="OMEGAGRID">     0</i>
   <i name="CSHIFT">     -0.10000000</i>
   <i type="logical" name="SELFENERGY"> F  </i>
   <i type="logical" name="LSPECTRAL"> F  </i>
   <i type="logical" name="ODDONLYGW"> F  </i>
   <i type="logical" name="EVENONLYGW"> F  </i>
   <i type="int" name="NKREDLFX">     1</i>
   <i type="int" name="NKREDLFY">     1</i>
   <i type="int" name="NKREDLFZ">     1</i>
   <i type="int" name="MAXMEM">  1800</i>
   <i type="int" name="TELESCOPE">     0</i>
  </separator>
 </parameters>
 <atominfo>
  <atoms>      12 </atoms>
  <types>       3 </types>
  <array name="atoms" >
   <dimension dim="1">ion</dimension>
   <field type="string">element</field>
   <field type="int">atomtype</field>
   <set>
    <rc><c>Cu</c><c>   1</c></rc>
    <rc><c>Cu</c><c>   1</c></rc>
    <rc><c>Cu</c><c>   1</c></rc>
    <rc><c>Cu</c><c>   1</c></rc>
    <rc><c>Ge</c><c>   2</c></rc>
    <rc><c>Ge</c><c>   2</c></rc>
    <rc><c>S </c><c>   3</c></rc>
    <rc><c>S </c><c>   3</c></rc>
    <rc><c>S </c><c>   3</c></rc>
    <rc><c>S </c><c>   3</c></rc>
    <rc><c>S </c><c>   3</c></rc>
    <rc><c>S </c><c>   3</c></rc>
   </set>
  </array>
  <array name="atomtypes" >
   <dimension dim="1">type</dimension>
   <field type="int">atomspertype</field>
   <field type="string">element</field>
   <field>mass</field>
   <field>valence</field>
   <field type="string">pseudopotential</field>
   <set>
    <rc><c>   4</c><c>Cu</c><c>     63.54600000</c><c>     17.00000000</c><c>  PAW_PBE Cu_pv 06Sep2000               </c></rc>
    <rc><c>   2</c><c>Ge</c><c>     72.61000000</c><c>      4.00000000</c><c>  PAW_PBE Ge 05Jan2001                  </c></rc>
    <rc><c>   6</c><c>S </c><c>     32.06600000</c><c>      6.00000000</c><c>  PAW_PBE S 17Jan2003                   </c></rc>
   </set>
  </array>
 </atominfo>
 <structure name="initialpos" >
  <crystal>
   <varray name="basis" >
    <v>       3.22479600      -5.64383000       0.03157200 </v>
    <v>       3.22479600       5.64383000       0.03157200 </v>
    <v>      -2.10194600       0.00000000       6.07553700 </v>
   </varray>
   <i name="volume">    221.90106089 </i>
   <varray name="rec_basis" >
    <v>       0.15452516      -0.08859232       0.05346088 </v>
    <v>       0.15452516       0.08859232       0.05346088 </v>
    <v>      -0.00160600       0.00000000       0.16403888 </v>
   </varray>
  </crystal>
  <varray name="positions" >
   <v>       0.61844300       0.12117100       0.11953300 </v>
   <v>       0.12117100       0.61844300       0.61953300 </v>
   <v>       0.96295700       0.79032200       0.11881300 </v>
   <v>       0.79032200       0.96295700       0.61881300 </v>
   <v>       0.43973200       0.26728100       0.59904700 </v>
   <v>       0.26728100       0.43973200       0.09904700 </v>
   <v>       0.07949800       0.91167500       0.49736300 </v>
   <v>       0.56986460       0.41236400       0.98018400 </v>
   <v>       0.73711100       0.25006200       0.49504900 </v>
   <v>       0.41236400       0.57140300       0.48018400 </v>
   <v>       0.91167500       0.07949800       0.99736300 </v>
   <v>       0.25006200       0.73711100       0.99504900 </v>
  </varray>
 </structure>
 <calculation>
  <scstep>
   <time name="total">  248.76  248.56</time>
   <energy>
    <i name="alphaZ">    339.31929130 </i>
    <i name="ewald">  -9066.05716303 </i>
    <i name="hartreedc">  -8067.43092288 </i>
    <i name="XCdc">    369.90511624 </i>
    <i name="pawpsdc">  16899.73046948 </i>
    <i name="pawaedc"> -17392.54711267 </i>
    <i name="eentropy">     -0.00149222 </i>
    <i name="bandstr">  -1655.81362470 </i>
    <i name="atom">  18320.98302006 </i>
    <i name="e_fr_energy">     75.54106931 </i>
    <i name="e_wo_entrp">     75.54256153 </i>
    <i name="e_0_energy">     75.54156671 </i>
   </energy>
  </scstep>
  <scstep>
   <time name="total">  256.39  256.28</time>
   <energy>
    <i name="e_fr_energy">     -8.38522105 </i>
    <i name="e_wo_entrp">     -8.38468764 </i>
    <i name="e_0_energy">     -8.38504324 </i>
   </energy>
  </scstep>
  <scstep>
   <time name="total">  255.36  255.15</time>
   <energy>
    <i name="e_fr_energy">    -15.22264845 </i>
    <i name="e_wo_entrp">    -15.22306757 </i>
    <i name="e_0_energy">    -15.22278816 </i>
   </energy>
  </scstep>
  <scstep>
   <time name="total">  257.49  257.29</time>
   <energy>
    <i name="e_fr_energy">    -22.70884141 </i>
    <i name="e_wo_entrp">    -22.70918081 </i>
    <i name="e_0_energy">    -22.70895454 </i>
   </energy>
  </scstep>
  <scstep>
   <time name="total">  257.09  256.88</time>
   <energy>
    <i name="e_fr_energy">    -60.82587018 </i>
    <i name="e_wo_entrp">    -60.82649160 </i>
    <i name="e_0_energy">    -60.82607732 </i>
   </energy>
  </scstep>
  <scstep>
   <time name="total">  256.20  256.00</time>
   <energy>
    <i name="e_fr_energy">    -65.93941359 </i>
    <i name="e_wo_entrp">    -65.94010894 </i>
    <i name="e_0_energy">    -65.93964537 </i>
   </energy>
  </scstep>
  <scstep>
   <time name="total">  257.77  257.56</time>
   <energy>
    <i name="e_fr_energy">    -67.47606985 </i>
    <i name="e_wo_entrp">    -67.47653416 </i>
    <i name="e_0_energy">    -67.47622462 </i>
   </energy>
  </scstep>
  <scstep>
   <time name="total">  250.04  249.90</time>
   <energy>
    <i name="e_fr_energy">    -69.08568570 </i>
    <i name="e_wo_entrp">    -69.08643887 </i>
    <i name="e_0_energy">    -69.08593676 </i>
   </energy>
  </scstep>
  <scstep>
   <time name="total">  260.09  259.87</time>
   <energy>
    <i name="e_fr_energy">    -69.39501892 </i>
    <i name="e_wo_entrp">    -69.39590876 </i>
    <i name="e_0_energy">    -69.39531553 </i>
   </energy>
  </scstep>
  <scstep>
   <time name="total">  261.04  260.81</time>
   <energy>
    <i name="e_fr_energy">    -69.49878156 </i>
    <i name="e_wo_entrp">    -69.49953739 </i>
    <i name="e_0_energy">    -69.49903351 </i>
   </energy>
  </scstep>
  <scstep>
   <time name="total">  260.89  260.70</time>
   <energy>
    <i name="e_fr_energy">    -69.56830064 </i>
    <i name="e_wo_entrp">    -69.56893072 </i>
    <i name="e_0_energy">    -69.56851067 </i>
   </energy>
  </scstep>
  <scstep>
   <time name="total">  261.49  261.27</time>
   <energy>
    <i name="e_fr_energy">    -69.58065348 </i>
    <i name="e_wo_entrp">    -69.58122969 </i>
    <i name="e_0_energy">    -69.58084555 </i>
   </energy>
  </scstep>
  <scstep>
   <time name="total">  261.62  261.42</time>
   <energy>
    <i name="e_fr_energy">    -69.59029683 </i>
    <i name="e_wo_entrp">    -69.59086283 </i>
    <i name="e_0_energy">    -69.59048550 </i>
   </energy>
  </scstep>
  <scstep>
   <time name="total">  262.06  261.86</time>
   <energy>
    <i name="e_fr_energy">    -69.59274702 </i>
    <i name="e_wo_entrp">    -69.59333336 </i>
    <i name="e_0_energy">    -69.59294247 </i>
   </energy>
  </scstep>
  <scstep>
   <time name="total">  261.99  261.80</time>
   <energy>
    <i name="e_fr_energy">    -69.59424903 </i>
    <i name="e_wo_entrp">    -69.59484903 </i>
    <i name="e_0_energy">    -69.59444903 </i>
   </energy>
  </scstep>
  <scstep>
   <time name="total">  262.37  262.47</time>
   <energy>
    <i name="e_fr_energy">    -69.59481808 </i>
    <i name="e_wo_entrp">    -69.59541833 </i>
    <i name="e_0_energy">    -69.59501816 </i>
   </energy>
  </scstep>
  <scstep>
   <time name="total">  261.10  260.90</time>
   <energy>
    <i name="e_fr_energy">    -69.59499038 </i>
    <i name="e_wo_entrp">    -69.59558708 </i>
    <i name="e_0_energy">    -69.59518928 </i>
   </energy>
  </scstep>
  <scstep>
   <time name="total">  261.22  261.32</time>
   <energy>
    <i name="e_fr_energy">    -69.59510705 </i>
    <i name="e_wo_entrp">    -69.59570058 </i>
    <i name="e_0_energy">    -69.59530489 </i>
   </energy>
  </scstep>
  <scstep>
   <time name="total">  261.03  260.99</time>
   <energy>
    <i name="e_fr_energy">    -69.59513571 </i>
    <i name="e_wo_entrp">    -69.59572795 </i>
    <i name="e_0_energy">    -69.59533312 </i>
   </energy>
  </scstep>
  <scstep>
   <time name="total">  260.08  259.88</time>
   <energy>
    <i name="e_fr_energy">    -69.59515534 </i>
    <i name="e_wo_entrp">    -69.59574812 </i>
    <i name="e_0_energy">    -69.59535293 </i>
   </energy>
  </scstep>
  <scstep>
   <time name="total">  261.23  261.30</time>
   <energy>
    <i name="alphaZ">    339.31929130 </i>
    <i name="ewald">  -9066.05716303 </i>
    <i name="hartreedc">  -8148.18806929 </i>
    <i name="XCdc">    372.07231484 </i>
    <i name="pawpsdc">  15922.32982193 </i>
    <i name="pawaedc"> -16407.50018674 </i>
    <i name="eentropy">      0.00059343 </i>
    <i name="bandstr">  -1742.63056342 </i>
    <i name="atom">  18320.98302006 </i>
    <i name="e_fr_energy">    -69.59516266 </i>
    <i name="e_wo_entrp">    -69.59575609 </i>
    <i name="e_0_energy">    -69.59536047 </i>
   </energy>
  </scstep>
  <structure>
   <crystal>
    <varray name="basis" >
     <v>       3.22479600      -5.64383000       0.03157200 </v>
     <v>       3.22479600       5.64383000       0.03157200 </v>
     <v>      -2.10194600       0.00000000       6.07553700 </v>
    </varray>
    <i name="volume">    221.90106089 </i>
    <varray name="rec_basis" >
     <v>       0.15452516      -0.08859232       0.05346088 </v>
     <v>       0.15452516       0.08859232       0.05346088 </v>
     <v>      -0.00160600       0.00000000       0.16403888 </v>
    </varray>
   </crystal>
   <varray name="positions" >
    <v>       0.61844300       0.12117100       0.11953300 </v>
    <v>       0.12117100       0.61844300       0.61953300 </v>
    <v>       0.96295700       0.79032200       0.11881300 </v>
    <v>       0.79032200       0.96295700       0.61881300 </v>
    <v>       0.43973200       0.26728100       0.59904700 </v>
    <v>       0.26728100       0.43973200       0.09904700 </v>
    <v>       0.07949800       0.91167500       0.49736300 </v>
    <v>       0.56986460       0.41236400       0.98018400 </v>
    <v>       0.73711100       0.25006200       0.49504900 </v>
    <v>       0.41236400       0.57140300       0.48018400 </v>
    <v>       0.91167500       0.07949800       0.99736300 </v>
    <v>       0.25006200       0.73711100       0.99504900 </v>
   </varray>
  </structure>
  <varray name="forces" >
   <v>       0.00110974       0.00265888      -0.00090795 </v>
   <v>      -0.00230086       0.00120765       0.00005092 </v>
   <v>      -0.00181520      -0.00198178      -0.00010557 </v>
   <v>       0.00308232      -0.00088249       0.00092604 </v>
   <v>      -0.00765450       0.01712914      -0.00969340 </v>
   <v>      -0.03358828       0.05022022       0.01456975 </v>
   <v>       0.00074085       0.00110610      -0.00427005 </v>
   <v>       0.05811212      -0.10353008      -0.00595898 </v>
   <v>      -0.00252378       0.00627641       0.00541295 </v>
   <v>      -0.00061529       0.00664342       0.00024786 </v>
   <v>      -0.00412419       0.01112190      -0.00029151 </v>
   <v>      -0.01042293       0.01003063       0.00001993 </v>
  </varray>
  <energy>
   <i name="e_fr_energy">    -69.59516266 </i>
   <i name="e_wo_entrp">    -69.59536047 </i>
   <i name="e_0_energy">      0.00059343 </i>
  </energy>
  <time name="totalsc"> 5928.74 5926.60</time>
  <eigenvalues>
   <array>
    <dimension dim="1">band</dimension>
    <dimension dim="2">kpoint</dimension>
    <dimension dim="3">spin</dimension>
    <field>eigene</field>
    <field>occ</field>
    <set>
     <set comment="spin 1">
      <set comment="kpoint 1">
       <r>  -68.6453    1.0000 </r>
       <r>  -68.6407    1.0000 </r>
       <r>  -68.6335    1.0000 </r>
       <r>  -68.6261    1.0000 </r>
       <r>  -68.6132    1.0000 </r>
       <r>  -68.6096    1.0000 </r>
       <r>  -68.5959    1.0000 </r>
       <r>  -68.5911    1.0000 </r>
       <r>  -68.5778    1.0000 </r>
       <r>  -68.5714    1.0000 </r>
       <r>  -68.5610    1.0000 </r>
       <r>  -68.5543    1.0000 </r>
       <r>  -12.7287    1.0000 </r>
       <r>  -11.1351    1.0000 </r>
       <r>  -10.9162    1.0000 </r>
       <r>  -10.6061    1.0000 </r>
       <r>  -10.2510    1.0000 </r>
       <r>  -10.2345    1.0000 </r>
       <r>   -5.9960    1.0000 </r>
       <r>   -4.9796    1.0000 </r>
       <r>   -2.7639    1.0000 </r>
       <r>   -2.2134    1.0000 </r>
       <r>   -2.0721    1.0000 </r>
       <r>   -1.9210    1.0000 </r>
       <r>   -1.5801    1.0000 </r>
       <r>   -0.9806    1.0000 </r>
       <r>   -0.9471    1.0000 </r>
       <r>   -0.6782    1.0000 </r>
       <r>   -0.4031    1.0000 </r>
       <r>   -0.2753    1.0000 </r>
       <r>   -0.2580    1.0000 </r>
       <r>   -0.2305    1.0000 </r>
       <r>   -0.1871    1.0000 </r>
       <r>   -0.1545    1.0000 </r>
       <r>   -0.0391    1.0000 </r>
       <r>    0.0352    1.0000 </r>
       <r>    1.3522    1.0000 </r>
       <r>    1.3647    1.0000 </r>
       <r>    1.4163    1.0000 </r>
       <r>    1.4598    1.0000 </r>
       <r>    1.4742    1.0000 </r>
       <r>    1.4761    1.0000 </r>
       <r>    1.5229    1.0000 </r>
       <r>    1.5339    1.0000 </r>
       <r>    1.5762    1.0000 </r>
       <r>    1.7123    1.0000 </r>
       <r>    1.8929    1.0000 </r>
       <r>    1.9291    1.0000 </r>
       <r>    2.0592    1.0000 </r>
       <r>    2.6532    1.0000 </r>
       <r>    2.7310    1.0000 </r>
       <r>    3.0899    1.0000 </r>
       <r>    3.2174    1.0000 </r>
       <r>    4.0050    1.0053 </r>
       <r>    4.0357    1.0140 </r>
       <r>    4.1698    0.8535 </r>
       <r>    5.5403   -0.0000 </r>
       <r>    6.3689   -0.0000 </r>
       <r>    7.6344    0.0000 </r>
       <r>    7.9825    0.0000 </r>
       <r>    8.6225    0.0000 </r>
       <r>    8.7960    0.0000 </r>
       <r>    9.5702    0.0000 </r>
       <r>    9.7413    0.0000 </r>
       <r>    9.8126    0.0000 </r>
       <r>   10.4213    0.0000 </r>
       <r>   10.5824    0.0000 </r>
       <r>   10.6882    0.0000 </r>
       <r>   10.7129    0.0000 </r>
       <r>   11.2803    0.0000 </r>
       <r>   11.7057    0.0000 </r>
       <r>   12.3907    0.0000 </r>
       <r>   12.4529    0.0000 </r>
       <r>   12.7316    0.0000 </r>
       <r>   13.3243    0.0000 </r>
       <r>   13.3815    0.0000 </r>
       <r>   13.8304    0.0000 </r>
       <r>   13.8868    0.0000 </r>
       <r>   14.1412    0.0000 </r>
       <r>   14.1767    0.0000 </r>
      </set>
      <set comment="kpoint 2">
       <r>  -68.6452    1.0000 </r>
       <r>  -68.6407    1.0000 </r>
       <r>  -68.6335    1.0000 </r>
       <r>  -68.6261    1.0000 </r>
       <r>  -68.6131    1.0000 </r>
       <r>  -68.6095    1.0000 </r>
       <r>  -68.5959    1.0000 </r>
       <r>  -68.5911    1.0000 </r>
       <r>  -68.5778    1.0000 </r>
       <r>  -68.5713    1.0000 </r>
       <r>  -68.5610    1.0000 </r>
       <r>  -68.5543    1.0000 </r>
       <r>  -12.6047    1.0000 </r>
       <r>  -11.1277    1.0000 </r>
       <r>  -10.9876    1.0000 </r>
       <r>  -10.6774    1.0000 </r>
       <r>  -10.3661    1.0000 </r>
       <r>  -10.2775    1.0000 </r>
       <r>   -5.9441    1.0000 </r>
       <r>   -4.7687    1.0000 </r>
       <r>   -2.6486    1.0000 </r>
       <r>   -2.2551    1.0000 </r>
       <r>   -2.0872    1.0000 </r>
       <r>   -1.6929    1.0000 </r>
       <r>   -1.3474    1.0000 </r>
       <r>   -0.9951    1.0000 </r>
       <r>   -0.7654    1.0000 </r>
       <r>   -0.6205    1.0000 </r>
       <r>   -0.5535    1.0000 </r>
       <r>   -0.4345    1.0000 </r>
       <r>   -0.3599    1.0000 </r>
       <r>   -0.2391    1.0000 </r>
       <r>   -0.1918    1.0000 </r>
       <r>   -0.1631    1.0000 </r>
       <r>   -0.0458    1.0000 </r>
       <r>    0.0412    1.0000 </r>
       <r>    1.2815    1.0000 </r>
       <r>    1.3375    1.0000 </r>
       <r>    1.3569    1.0000 </r>
       <r>    1.3953    1.0000 </r>
       <r>    1.4296    1.0000 </r>
       <r>    1.4747    1.0000 </r>
       <r>    1.4997    1.0000 </r>
       <r>    1.5331    1.0000 </r>
       <r>    1.7262    1.0000 </r>
       <r>    1.8616    1.0000 </r>
       <r>    2.0577    1.0000 </r>
       <r>    2.0951    1.0000 </r>
       <r>    2.2316    1.0000 </r>
       <r>    2.4153    1.0000 </r>
       <r>    2.5555    1.0000 </r>
       <r>    2.8265    1.0000 </r>
       <r>    2.9494    1.0000 </r>
       <r>    3.2427    1.0000 </r>
       <r>    3.6621    1.0000 </r>
       <r>    4.0385    1.0151 </r>
       <r>    6.1674   -0.0000 </r>
       <r>    6.9192   -0.0000 </r>
       <r>    8.1352    0.0000 </r>
       <r>    8.2703    0.0000 </r>
       <r>    8.5986    0.0000 </r>
       <r>    9.0159    0.0000 </r>
       <r>    9.2437    0.0000 </r>
       <r>    9.5364    0.0000 </r>
       <r>    9.8615    0.0000 </r>
       <r>   10.3729    0.0000 </r>
       <r>   10.6291    0.0000 </r>
       <r>   10.8106    0.0000 </r>
       <r>   10.9422    0.0000 </r>
       <r>   11.1858    0.0000 </r>
       <r>   11.6567    0.0000 </r>
       <r>   11.7686    0.0000 </r>
       <r>   12.1156    0.0000 </r>
       <r>   12.4436    0.0000 </r>
       <r>   12.6171    0.0000 </r>
       <r>   13.0098    0.0000 </r>
       <r>   13.5080    0.0000 </r>
       <r>   13.8735    0.0000 </r>
       <r>   14.2070    0.0000 </r>
       <r>   14.7104    0.0000 </r>
      </set>
      <set comment="kpoint 3">
       <r>  -68.6451    1.0000 </r>
       <r>  -68.6405    1.0000 </r>
       <r>  -68.6334    1.0000 </r>
       <r>  -68.6260    1.0000 </r>
       <r>  -68.6131    1.0000 </r>
       <r>  -68.6095    1.0000 </r>
       <r>  -68.5959    1.0000 </r>
       <r>  -68.5910    1.0000 </r>
       <r>  -68.5778    1.0000 </r>
       <r>  -68.5712    1.0000 </r>
       <r>  -68.5608    1.0000 </r>
       <r>  -68.5542    1.0000 </r>
       <r>  -12.4471    1.0000 </r>
       <r>  -11.2457    1.0000 </r>
       <r>  -10.9650    1.0000 </r>
       <r>  -10.7643    1.0000 </r>
       <r>  -10.4265    1.0000 </r>
       <r>  -10.3586    1.0000 </r>
       <r>   -5.8817    1.0000 </r>
       <r>   -4.5432    1.0000 </r>
       <r>   -2.4976    1.0000 </r>
       <r>   -2.2470    1.0000 </r>
       <r>   -1.9456    1.0000 </r>
       <r>   -1.4637    1.0000 </r>
       <r>   -1.2249    1.0000 </r>
       <r>   -1.1075    1.0000 </r>
       <r>   -0.9011    1.0000 </r>
       <r>   -0.8622    1.0000 </r>
       <r>   -0.5998    1.0000 </r>
       <r>   -0.5349    1.0000 </r>
       <r>   -0.2704    1.0000 </r>
       <r>   -0.2048    1.0000 </r>
       <r>   -0.1999    1.0000 </r>
       <r>   -0.1359    1.0000 </r>
       <r>   -0.0292    1.0000 </r>
       <r>    0.0815    1.0000 </r>
       <r>    1.2563    1.0000 </r>
       <r>    1.3287    1.0000 </r>
       <r>    1.3511    1.0000 </r>
       <r>    1.3997    1.0000 </r>
       <r>    1.4732    1.0000 </r>
       <r>    1.4809    1.0000 </r>
       <r>    1.5025    1.0000 </r>
       <r>    1.5572    1.0000 </r>
       <r>    1.7545    1.0000 </r>
       <r>    1.7927    1.0000 </r>
       <r>    1.9683    1.0000 </r>
       <r>    2.1490    1.0000 </r>
       <r>    2.3208    1.0000 </r>
       <r>    2.3631    1.0000 </r>
       <r>    2.5562    1.0000 </r>
       <r>    2.6730    1.0000 </r>
       <r>    2.9376    1.0000 </r>
       <r>    3.0791    1.0000 </r>
       <r>    3.2500    1.0000 </r>
       <r>    3.8623    1.0000 </r>
       <r>    6.3796   -0.0000 </r>
       <r>    7.1151    0.0000 </r>
       <r>    7.9822    0.0000 </r>
       <r>    8.2000    0.0000 </r>
       <r>    8.5115    0.0000 </r>
       <r>    8.8241    0.0000 </r>
       <r>    9.3363    0.0000 </r>
       <r>    9.8931    0.0000 </r>
       <r>   10.0094    0.0000 </r>
       <r>   10.5134    0.0000 </r>
       <r>   10.6905    0.0000 </r>
       <r>   10.7887    0.0000 </r>
       <r>   11.1428    0.0000 </r>
       <r>   11.4067    0.0000 </r>
       <r>   11.6086    0.0000 </r>
       <r>   11.7763    0.0000 </r>
       <r>   11.9435    0.0000 </r>
       <r>   12.5024    0.0000 </r>
       <r>   12.7788    0.0000 </r>
       <r>   13.0030    0.0000 </r>
       <r>   13.3944    0.0000 </r>
       <r>   13.5393    0.0000 </r>
       <r>   13.9441    0.0000 </r>
       <r>   14.2676    0.0000 </r>
      </set>
      <set comment="kpoint 4">
       <r>  -68.6453    1.0000 </r>
       <r>  -68.6407    1.0000 </r>
       <r>  -68.6335    1.0000 </r>
       <r>  -68.6261    1.0000 </r>
       <r>  -68.6131    1.0000 </r>
       <r>  -68.6095    1.0000 </r>
       <r>  -68.5959    1.0000 </r>
       <r>  -68.5911    1.0000 </r>
       <r>  -68.5778    1.0000 </r>
       <r>  -68.5713    1.0000 </r>
       <r>  -68.5610    1.0000 </r>
       <r>  -68.5543    1.0000 </r>
       <r>  -12.6045    1.0000 </r>
       <r>  -11.1304    1.0000 </r>
       <r>  -10.9849    1.0000 </r>
       <r>  -10.6771    1.0000 </r>
       <r>  -10.3673    1.0000 </r>
       <r>  -10.2769    1.0000 </r>
       <r>   -5.9443    1.0000 </r>
       <r>   -4.7684    1.0000 </r>
       <r>   -2.6495    1.0000 </r>
       <r>   -2.2565    1.0000 </r>
       <r>   -2.0870    1.0000 </r>
       <r>   -1.6871    1.0000 </r>
       <r>   -1.3485    1.0000 </r>
       <r>   -0.9953    1.0000 </r>
       <r>   -0.7672    1.0000 </r>
       <r>   -0.6211    1.0000 </r>
       <r>   -0.5463    1.0000 </r>
       <r>   -0.4377    1.0000 </r>
       <r>   -0.3571    1.0000 </r>
       <r>   -0.2411    1.0000 </r>
       <r>   -0.1942    1.0000 </r>
       <r>   -0.1667    1.0000 </r>
       <r>   -0.0451    1.0000 </r>
       <r>    0.0417    1.0000 </r>
       <r>    1.2817    1.0000 </r>
       <r>    1.3391    1.0000 </r>
       <r>    1.3578    1.0000 </r>
       <r>    1.3936    1.0000 </r>
       <r>    1.4293    1.0000 </r>
       <r>    1.4743    1.0000 </r>
       <r>    1.5018    1.0000 </r>
       <r>    1.5317    1.0000 </r>
       <r>    1.7264    1.0000 </r>
       <r>    1.8607    1.0000 </r>
       <r>    2.0569    1.0000 </r>
       <r>    2.0934    1.0000 </r>
       <r>    2.2316    1.0000 </r>
       <r>    2.4155    1.0000 </r>
       <r>    2.5582    1.0000 </r>
       <r>    2.8254    1.0000 </r>
       <r>    2.9463    1.0000 </r>
       <r>    3.2425    1.0000 </r>
       <r>    3.6620    1.0000 </r>
       <r>    4.0389    1.0152 </r>
       <r>    6.1695   -0.0000 </r>
       <r>    6.9207   -0.0000 </r>
       <r>    8.1465    0.0000 </r>
       <r>    8.2692    0.0000 </r>
       <r>    8.5921    0.0000 </r>
       <r>    9.0144    0.0000 </r>
       <r>    9.2414    0.0000 </r>
       <r>    9.5309    0.0000 </r>
       <r>    9.8659    0.0000 </r>
       <r>   10.3705    0.0000 </r>
       <r>   10.6311    0.0000 </r>
       <r>   10.8106    0.0000 </r>
       <r>   10.9382    0.0000 </r>
       <r>   11.1895    0.0000 </r>
       <r>   11.6576    0.0000 </r>
       <r>   11.7715    0.0000 </r>
       <r>   12.1195    0.0000 </r>
       <r>   12.4410    0.0000 </r>
       <r>   12.6141    0.0000 </r>
       <r>   13.0087    0.0000 </r>
       <r>   13.5190    0.0000 </r>
       <r>   13.9005    0.0000 </r>
       <r>   14.2744    0.0000 </r>
       <r>   14.8370    0.0000 </r>
      </set>
      <set comment="kpoint 5">
       <r>  -68.6453    1.0000 </r>
       <r>  -68.6407    1.0000 </r>
       <r>  -68.6334    1.0000 </r>
       <r>  -68.6260    1.0000 </r>
       <r>  -68.6133    1.0000 </r>
       <r>  -68.6096    1.0000 </r>
       <r>  -68.5958    1.0000 </r>
       <r>  -68.5910    1.0000 </r>
       <r>  -68.5779    1.0000 </r>
       <r>  -68.5714    1.0000 </r>
       <r>  -68.5610    1.0000 </r>
       <r>  -68.5543    1.0000 </r>
       <r>  -12.4506    1.0000 </r>
       <r>  -11.1893    1.0000 </r>
       <r>  -10.9500    1.0000 </r>
       <r>  -10.8769    1.0000 </r>
       <r>  -10.3900    1.0000 </r>
       <r>  -10.3514    1.0000 </r>
       <r>   -5.8868    1.0000 </r>
       <r>   -4.5163    1.0000 </r>
       <r>   -2.4224    1.0000 </r>
       <r>   -2.2497    1.0000 </r>
       <r>   -1.7910    1.0000 </r>
       <r>   -1.6841    1.0000 </r>
       <r>   -1.3514    1.0000 </r>
       <r>   -1.2982    1.0000 </r>
       <r>   -1.0799    1.0000 </r>
       <r>   -0.6807    1.0000 </r>
       <r>   -0.5242    1.0000 </r>
       <r>   -0.2944    1.0000 </r>
       <r>   -0.2803    1.0000 </r>
       <r>   -0.2223    1.0000 </r>
       <r>   -0.1860    1.0000 </r>
       <r>   -0.1256    1.0000 </r>
       <r>   -0.0902    1.0000 </r>
       <r>    0.0815    1.0000 </r>
       <r>    1.2959    1.0000 </r>
       <r>    1.3137    1.0000 </r>
       <r>    1.4174    1.0000 </r>
       <r>    1.4285    1.0000 </r>
       <r>    1.4657    1.0000 </r>
       <r>    1.4853    1.0000 </r>
       <r>    1.4971    1.0000 </r>
       <r>    1.5730    1.0000 </r>
       <r>    1.6734    1.0000 </r>
       <r>    1.8810    1.0000 </r>
       <r>    1.9416    1.0000 </r>
       <r>    2.1361    1.0000 </r>
       <r>    2.2786    1.0000 </r>
       <r>    2.3214    1.0000 </r>
       <r>    2.5587    1.0000 </r>
       <r>    2.6524    1.0000 </r>
       <r>    2.9029    1.0000 </r>
       <r>    2.9468    1.0000 </r>
       <r>    3.6990    1.0000 </r>
       <r>    3.8321    1.0000 </r>
       <r>    6.1695   -0.0000 </r>
       <r>    7.0053    0.0000 </r>
       <r>    8.0036    0.0000 </r>
       <r>    8.3282    0.0000 </r>
       <r>    8.4360    0.0000 </r>
       <r>    8.5744    0.0000 </r>
       <r>    9.1490    0.0000 </r>
       <r>    9.2477    0.0000 </r>
       <r>   10.3621    0.0000 </r>
       <r>   10.4937    0.0000 </r>
       <r>   10.9163    0.0000 </r>
       <r>   11.1821    0.0000 </r>
       <r>   11.3278    0.0000 </r>
       <r>   11.5556    0.0000 </r>
       <r>   11.8135    0.0000 </r>
       <r>   11.9614    0.0000 </r>
       <r>   12.3166    0.0000 </r>
       <r>   12.4997    0.0000 </r>
       <r>   12.7135    0.0000 </r>
       <r>   12.9123    0.0000 </r>
       <r>   13.3412    0.0000 </r>
       <r>   13.4461    0.0000 </r>
       <r>   14.2547    0.0000 </r>
       <r>   14.3682    0.0000 </r>
      </set>
      <set comment="kpoint 6">
       <r>  -68.6450    1.0000 </r>
       <r>  -68.6405    1.0000 </r>
       <r>  -68.6335    1.0000 </r>
       <r>  -68.6260    1.0000 </r>
       <r>  -68.6130    1.0000 </r>
       <r>  -68.6094    1.0000 </r>
       <r>  -68.5959    1.0000 </r>
       <r>  -68.5911    1.0000 </r>
       <r>  -68.5777    1.0000 </r>
       <r>  -68.5712    1.0000 </r>
       <r>  -68.5608    1.0000 </r>
       <r>  -68.5542    1.0000 </r>
       <r>  -12.4512    1.0000 </r>
       <r>  -11.3520    1.0000 </r>
       <r>  -10.9454    1.0000 </r>
       <r>  -10.7369    1.0000 </r>
       <r>  -10.3897    1.0000 </r>
       <r>  -10.2709    1.0000 </r>
       <r>   -5.9580    1.0000 </r>
       <r>   -4.6378    1.0000 </r>
       <r>   -2.3945    1.0000 </r>
       <r>   -2.2280    1.0000 </r>
       <r>   -2.0598    1.0000 </r>
       <r>   -1.6412    1.0000 </r>
       <r>   -1.3637    1.0000 </r>
       <r>   -1.2835    1.0000 </r>
       <r>   -1.0212    1.0000 </r>
       <r>   -0.5110    1.0000 </r>
       <r>   -0.4827    1.0000 </r>
       <r>   -0.3279    1.0000 </r>
       <r>   -0.2815    1.0000 </r>
       <r>   -0.2080    1.0000 </r>
       <r>   -0.1469    1.0000 </r>
       <r>   -0.1327    1.0000 </r>
       <r>   -0.0090    1.0000 </r>
       <r>    0.1133    1.0000 </r>
       <r>    1.2486    1.0000 </r>
       <r>    1.3185    1.0000 </r>
       <r>    1.3837    1.0000 </r>
       <r>    1.4395    1.0000 </r>
       <r>    1.4637    1.0000 </r>
       <r>    1.4942    1.0000 </r>
       <r>    1.5007    1.0000 </r>
       <r>    1.5528    1.0000 </r>
       <r>    1.7524    1.0000 </r>
       <r>    1.8294    1.0000 </r>
       <r>    1.9232    1.0000 </r>
       <r>    2.1343    1.0000 </r>
       <r>    2.2214    1.0000 </r>
       <r>    2.3861    1.0000 </r>
       <r>    2.5615    1.0000 </r>
       <r>    2.7918    1.0000 </r>
       <r>    2.9777    1.0000 </r>
       <r>    3.3128    1.0000 </r>
       <r>    3.6023    1.0000 </r>
       <r>    3.7499    1.0000 </r>
       <r>    6.0833   -0.0000 </r>
       <r>    6.9524    0.0000 </r>
       <r>    7.6125    0.0000 </r>
       <r>    8.0680    0.0000 </r>
       <r>    8.4134    0.0000 </r>
       <r>    8.6239    0.0000 </r>
       <r>    8.9842    0.0000 </r>
       <r>    9.1529    0.0000 </r>
       <r>   10.0881    0.0000 </r>
       <r>   10.3327    0.0000 </r>
       <r>   10.7324    0.0000 </r>
       <r>   11.1043    0.0000 </r>
       <r>   11.4542    0.0000 </r>
       <r>   11.5946    0.0000 </r>
       <r>   11.7959    0.0000 </r>
       <r>   12.0840    0.0000 </r>
       <r>   12.4749    0.0000 </r>
       <r>   12.9188    0.0000 </r>
       <r>   13.0328    0.0000 </r>
       <r>   13.8341    0.0000 </r>
       <r>   14.2201    0.0000 </r>
       <r>   14.6562    0.0000 </r>
       <r>   15.4292    0.0000 </r>
       <r>   15.6417    0.0000 </r>
      </set>
      <set comment="kpoint 7">
       <r>  -68.6453    1.0000 </r>
       <r>  -68.6407    1.0000 </r>
       <r>  -68.6335    1.0000 </r>
       <r>  -68.6260    1.0000 </r>
       <r>  -68.6131    1.0000 </r>
       <r>  -68.6094    1.0000 </r>
       <r>  -68.5959    1.0000 </r>
       <r>  -68.5911    1.0000 </r>
       <r>  -68.5777    1.0000 </r>
       <r>  -68.5712    1.0000 </r>
       <r>  -68.5610    1.0000 </r>
       <r>  -68.5543    1.0000 </r>
       <r>  -12.6076    1.0000 </r>
       <r>  -11.2516    1.0000 </r>
       <r>  -10.9972    1.0000 </r>
       <r>  -10.5699    1.0000 </r>
       <r>  -10.3677    1.0000 </r>
       <r>  -10.1794    1.0000 </r>
       <r>   -6.0206    1.0000 </r>
       <r>   -4.8907    1.0000 </r>
       <r>   -2.6490    1.0000 </r>
       <r>   -2.3162    1.0000 </r>
       <r>   -1.9773    1.0000 </r>
       <r>   -1.6468    1.0000 </r>
       <r>   -1.4931    1.0000 </r>
       <r>   -1.1865    1.0000 </r>
       <r>   -0.7869    1.0000 </r>
       <r>   -0.5828    1.0000 </r>
       <r>   -0.4458    1.0000 </r>
       <r>   -0.3305    1.0000 </r>
       <r>   -0.2908    1.0000 </r>
       <r>   -0.2294    1.0000 </r>
       <r>   -0.1711    1.0000 </r>
       <r>   -0.1297    1.0000 </r>
       <r>   -0.0059    1.0000 </r>
       <r>    0.0717    1.0000 </r>
       <r>    1.2621    1.0000 </r>
       <r>    1.3233    1.0000 </r>
       <r>    1.3675    1.0000 </r>
       <r>    1.4257    1.0000 </r>
       <r>    1.4338    1.0000 </r>
       <r>    1.4784    1.0000 </r>
       <r>    1.5061    1.0000 </r>
       <r>    1.5448    1.0000 </r>
       <r>    1.7257    1.0000 </r>
       <r>    1.8138    1.0000 </r>
       <r>    1.9967    1.0000 </r>
       <r>    2.0737    1.0000 </r>
       <r>    2.4160    1.0000 </r>
       <r>    2.4643    1.0000 </r>
       <r>    2.5280    1.0000 </r>
       <r>    2.8734    1.0000 </r>
       <r>    3.1430    1.0000 </r>
       <r>    3.2283    1.0000 </r>
       <r>    3.7852    1.0000 </r>
       <r>    4.0677    1.0280 </r>
       <r>    5.9765   -0.0000 </r>
       <r>    6.6994   -0.0000 </r>
       <r>    7.5417    0.0000 </r>
       <r>    8.2184    0.0000 </r>
       <r>    8.6230    0.0000 </r>
       <r>    8.9244    0.0000 </r>
       <r>    9.3052    0.0000 </r>
       <r>    9.4292    0.0000 </r>
       <r>    9.8034    0.0000 </r>
       <r>   10.2660    0.0000 </r>
       <r>   10.5385    0.0000 </r>
       <r>   10.8284    0.0000 </r>
       <r>   10.9703    0.0000 </r>
       <r>   11.3776    0.0000 </r>
       <r>   11.4699    0.0000 </r>
       <r>   11.7353    0.0000 </r>
       <r>   12.1011    0.0000 </r>
       <r>   12.6636    0.0000 </r>
       <r>   12.9411    0.0000 </r>
       <r>   13.1057    0.0000 </r>
       <r>   13.3511    0.0000 </r>
       <r>   13.5208    0.0000 </r>
       <r>   14.4730    0.0000 </r>
       <r>   14.7536    0.0000 </r>
      </set>
      <set comment="kpoint 8">
       <r>  -68.6451    1.0000 </r>
       <r>  -68.6406    1.0000 </r>
       <r>  -68.6334    1.0000 </r>
       <r>  -68.6260    1.0000 </r>
       <r>  -68.6131    1.0000 </r>
       <r>  -68.6094    1.0000 </r>
       <r>  -68.5959    1.0000 </r>
       <r>  -68.5910    1.0000 </r>
       <r>  -68.5777    1.0000 </r>
       <r>  -68.5713    1.0000 </r>
       <r>  -68.5609    1.0000 </r>
       <r>  -68.5541    1.0000 </r>
       <r>  -12.4467    1.0000 </r>
       <r>  -11.2490    1.0000 </r>
       <r>  -10.9625    1.0000 </r>
       <r>  -10.7620    1.0000 </r>
       <r>  -10.4303    1.0000 </r>
       <r>  -10.3567    1.0000 </r>
       <r>   -5.8819    1.0000 </r>
       <r>   -4.5426    1.0000 </r>
       <r>   -2.4990    1.0000 </r>
       <r>   -2.2510    1.0000 </r>
       <r>   -1.9437    1.0000 </r>
       <r>   -1.4602    1.0000 </r>
       <r>   -1.2222    1.0000 </r>
       <r>   -1.1017    1.0000 </r>
       <r>   -0.8985    1.0000 </r>
       <r>   -0.8622    1.0000 </r>
       <r>   -0.5998    1.0000 </r>
       <r>   -0.5367    1.0000 </r>
       <r>   -0.2719    1.0000 </r>
       <r>   -0.2043    1.0000 </r>
       <r>   -0.2005    1.0000 </r>
       <r>   -0.1443    1.0000 </r>
       <r>   -0.0280    1.0000 </r>
       <r>    0.0817    1.0000 </r>
       <r>    1.2576    1.0000 </r>
       <r>    1.3314    1.0000 </r>
       <r>    1.3483    1.0000 </r>
       <r>    1.3984    1.0000 </r>
       <r>    1.4738    1.0000 </r>
       <r>    1.4825    1.0000 </r>
       <r>    1.5026    1.0000 </r>
       <r>    1.5545    1.0000 </r>
       <r>    1.7550    1.0000 </r>
       <r>    1.7946    1.0000 </r>
       <r>    1.9709    1.0000 </r>
       <r>    2.1472    1.0000 </r>
       <r>    2.3170    1.0000 </r>
       <r>    2.3593    1.0000 </r>
       <r>    2.5552    1.0000 </r>
       <r>    2.6720    1.0000 </r>
       <r>    2.9362    1.0000 </r>
       <r>    3.0762    1.0000 </r>
       <r>    3.2543    1.0000 </r>
       <r>    3.8623    1.0000 </r>
       <r>    6.3822   -0.0000 </r>
       <r>    7.1119    0.0000 </r>
       <r>    7.9827    0.0000 </r>
       <r>    8.2215    0.0000 </r>
       <r>    8.5158    0.0000 </r>
       <r>    8.8238    0.0000 </r>
       <r>    9.3278    0.0000 </r>
       <r>    9.8841    0.0000 </r>
       <r>   10.0080    0.0000 </r>
       <r>   10.5173    0.0000 </r>
       <r>   10.6901    0.0000 </r>
       <r>   10.7900    0.0000 </r>
       <r>   11.1392    0.0000 </r>
       <r>   11.4077    0.0000 </r>
       <r>   11.6041    0.0000 </r>
       <r>   11.7764    0.0000 </r>
       <r>   11.9353    0.0000 </r>
       <r>   12.5094    0.0000 </r>
       <r>   12.8220    0.0000 </r>
       <r>   13.0316    0.0000 </r>
       <r>   13.5501    0.0000 </r>
       <r>   13.6880    0.0000 </r>
       <r>   14.5515    0.0000 </r>
       <r>   15.2495    0.0000 </r>
      </set>
      <set comment="kpoint 9">
       <r>  -68.6450    1.0000 </r>
       <r>  -68.6405    1.0000 </r>
       <r>  -68.6334    1.0000 </r>
       <r>  -68.6260    1.0000 </r>
       <r>  -68.6131    1.0000 </r>
       <r>  -68.6094    1.0000 </r>
       <r>  -68.5959    1.0000 </r>
       <r>  -68.5911    1.0000 </r>
       <r>  -68.5777    1.0000 </r>
       <r>  -68.5712    1.0000 </r>
       <r>  -68.5609    1.0000 </r>
       <r>  -68.5541    1.0000 </r>
       <r>  -12.4510    1.0000 </r>
       <r>  -11.3530    1.0000 </r>
       <r>  -10.9447    1.0000 </r>
       <r>  -10.7362    1.0000 </r>
       <r>  -10.3904    1.0000 </r>
       <r>  -10.2709    1.0000 </r>
       <r>   -5.9581    1.0000 </r>
       <r>   -4.6376    1.0000 </r>
       <r>   -2.3959    1.0000 </r>
       <r>   -2.2297    1.0000 </r>
       <r>   -2.0603    1.0000 </r>
       <r>   -1.6367    1.0000 </r>
       <r>   -1.3599    1.0000 </r>
       <r>   -1.2830    1.0000 </r>
       <r>   -1.0215    1.0000 </r>
       <r>   -0.5108    1.0000 </r>
       <r>   -0.4845    1.0000 </r>
       <r>   -0.3253    1.0000 </r>
       <r>   -0.2787    1.0000 </r>
       <r>   -0.2132    1.0000 </r>
       <r>   -0.1491    1.0000 </r>
       <r>   -0.1344    1.0000 </r>
       <r>   -0.0080    1.0000 </r>
       <r>    0.1129    1.0000 </r>
       <r>    1.2501    1.0000 </r>
       <r>    1.3168    1.0000 </r>
       <r>    1.3861    1.0000 </r>
       <r>    1.4396    1.0000 </r>
       <r>    1.4644    1.0000 </r>
       <r>    1.4941    1.0000 </r>
       <r>    1.4995    1.0000 </r>
       <r>    1.5508    1.0000 </r>
       <r>    1.7493    1.0000 </r>
       <r>    1.8318    1.0000 </r>
       <r>    1.9231    1.0000 </r>
       <r>    2.1349    1.0000 </r>
       <r>    2.2200    1.0000 </r>
       <r>    2.3851    1.0000 </r>
       <r>    2.5615    1.0000 </r>
       <r>    2.7892    1.0000 </r>
       <r>    2.9792    1.0000 </r>
       <r>    3.3124    1.0000 </r>
       <r>    3.6045    1.0000 </r>
       <r>    3.7501    1.0000 </r>
       <r>    6.0845   -0.0000 </r>
       <r>    6.9546    0.0000 </r>
       <r>    7.6147    0.0000 </r>
       <r>    8.0688    0.0000 </r>
       <r>    8.4147    0.0000 </r>
       <r>    8.6188    0.0000 </r>
       <r>    8.9841    0.0000 </r>
       <r>    9.1530    0.0000 </r>
       <r>   10.0852    0.0000 </r>
       <r>   10.3303    0.0000 </r>
       <r>   10.7323    0.0000 </r>
       <r>   11.1027    0.0000 </r>
       <r>   11.4576    0.0000 </r>
       <r>   11.5743    0.0000 </r>
       <r>   11.7849    0.0000 </r>
       <r>   12.0292    0.0000 </r>
       <r>   12.5251    0.0000 </r>
       <r>   12.6794    0.0000 </r>
       <r>   12.9215    0.0000 </r>
       <r>   13.2059    0.0000 </r>
       <r>   14.2278    0.0000 </r>
       <r>   14.7714    0.0000 </r>
       <r>   15.2449    0.0000 </r>
       <r>   15.9009    0.0000 </r>
      </set>
      <set comment="kpoint 10">
       <r>  -68.6449    1.0000 </r>
       <r>  -68.6403    1.0000 </r>
       <r>  -68.6333    1.0000 </r>
       <r>  -68.6258    1.0000 </r>
       <r>  -68.6129    1.0000 </r>
       <r>  -68.6093    1.0000 </r>
       <r>  -68.5957    1.0000 </r>
       <r>  -68.5909    1.0000 </r>
       <r>  -68.5776    1.0000 </r>
       <r>  -68.5711    1.0000 </r>
       <r>  -68.5606    1.0000 </r>
       <r>  -68.5539    1.0000 </r>
       <r>  -12.4434    1.0000 </r>
       <r>  -11.4992    1.0000 </r>
       <r>  -10.9208    1.0000 </r>
       <r>  -10.6164    1.0000 </r>
       <r>  -10.3983    1.0000 </r>
       <r>  -10.1986    1.0000 </r>
       <r>   -6.0362    1.0000 </r>
       <r>   -4.8065    1.0000 </r>
       <r>   -2.3140    1.0000 </r>
       <r>   -2.2660    1.0000 </r>
       <r>   -2.0951    1.0000 </r>
       <r>   -1.7049    1.0000 </r>
       <r>   -1.2492    1.0000 </r>
       <r>   -1.1112    1.0000 </r>
       <r>   -0.8405    1.0000 </r>
       <r>   -0.7829    1.0000 </r>
       <r>   -0.7256    1.0000 </r>
       <r>   -0.2396    1.0000 </r>
       <r>   -0.1955    1.0000 </r>
       <r>   -0.1797    1.0000 </r>
       <r>   -0.1458    1.0000 </r>
       <r>   -0.0377    1.0000 </r>
       <r>    0.0006    1.0000 </r>
       <r>    0.1843    1.0000 </r>
       <r>    1.2688    1.0000 </r>
       <r>    1.3200    1.0000 </r>
       <r>    1.3785    1.0000 </r>
       <r>    1.4169    1.0000 </r>
       <r>    1.4366    1.0000 </r>
       <r>    1.4945    1.0000 </r>
       <r>    1.5101    1.0000 </r>
       <r>    1.5508    1.0000 </r>
       <r>    1.7885    1.0000 </r>
       <r>    1.8486    1.0000 </r>
       <r>    1.9976    1.0000 </r>
       <r>    2.1528    1.0000 </r>
       <r>    2.2536    1.0000 </r>
       <r>    2.3366    1.0000 </r>
       <r>    2.5616    1.0000 </r>
       <r>    2.7630    1.0000 </r>
       <r>    2.7736    1.0000 </r>
       <r>    3.3700    1.0000 </r>
       <r>    3.7660    1.0000 </r>
       <r>    4.0061    1.0056 </r>
       <r>    5.8505   -0.0000 </r>
       <r>    6.7726   -0.0000 </r>
       <r>    7.0941    0.0000 </r>
       <r>    8.4119    0.0000 </r>
       <r>    8.5632    0.0000 </r>
       <r>    8.7660    0.0000 </r>
       <r>    9.1443    0.0000 </r>
       <r>    9.2477    0.0000 </r>
       <r>    9.9569    0.0000 </r>
       <r>   10.2767    0.0000 </r>
       <r>   10.7226    0.0000 </r>
       <r>   10.8276    0.0000 </r>
       <r>   10.8802    0.0000 </r>
       <r>   11.2690    0.0000 </r>
       <r>   11.7539    0.0000 </r>
       <r>   11.9204    0.0000 </r>
       <r>   11.9726    0.0000 </r>
       <r>   12.3643    0.0000 </r>
       <r>   12.5416    0.0000 </r>
       <r>   13.4548    0.0000 </r>
       <r>   14.2901    0.0000 </r>
       <r>   14.6698    0.0000 </r>
       <r>   16.7422    0.0000 </r>
       <r>   16.7613    0.0000 </r>
      </set>
      <set comment="kpoint 11">
       <r>  -68.6453    1.0000 </r>
       <r>  -68.6407    1.0000 </r>
       <r>  -68.6335    1.0000 </r>
       <r>  -68.6261    1.0000 </r>
       <r>  -68.6131    1.0000 </r>
       <r>  -68.6095    1.0000 </r>
       <r>  -68.5959    1.0000 </r>
       <r>  -68.5911    1.0000 </r>
       <r>  -68.5778    1.0000 </r>
       <r>  -68.5713    1.0000 </r>
       <r>  -68.5610    1.0000 </r>
       <r>  -68.5543    1.0000 </r>
       <r>  -12.6254    1.0000 </r>
       <r>  -11.4307    1.0000 </r>
       <r>  -10.7784    1.0000 </r>
       <r>  -10.6107    1.0000 </r>
       <r>  -10.2497    1.0000 </r>
       <r>  -10.2365    1.0000 </r>
       <r>   -5.8413    1.0000 </r>
       <r>   -5.0447    1.0000 </r>
       <r>   -2.6035    1.0000 </r>
       <r>   -2.3748    1.0000 </r>
       <r>   -1.9618    1.0000 </r>
       <r>   -1.7774    1.0000 </r>
       <r>   -1.4463    1.0000 </r>
       <r>   -1.1222    1.0000 </r>
       <r>   -1.0611    1.0000 </r>
       <r>   -0.7676    1.0000 </r>
       <r>   -0.4701    1.0000 </r>
       <r>   -0.2901    1.0000 </r>
       <r>   -0.2367    1.0000 </r>
       <r>   -0.2322    1.0000 </r>
       <r>   -0.1894    1.0000 </r>
       <r>   -0.1457    1.0000 </r>
       <r>   -0.0164    1.0000 </r>
       <r>    0.0272    1.0000 </r>
       <r>    1.3355    1.0000 </r>
       <r>    1.3838    1.0000 </r>
       <r>    1.4184    1.0000 </r>
       <r>    1.4418    1.0000 </r>
       <r>    1.4664    1.0000 </r>
       <r>    1.4704    1.0000 </r>
       <r>    1.5165    1.0000 </r>
       <r>    1.5472    1.0000 </r>
       <r>    1.6333    1.0000 </r>
       <r>    1.7609    1.0000 </r>
       <r>    1.7876    1.0000 </r>
       <r>    1.9519    1.0000 </r>
       <r>    2.0889    1.0000 </r>
       <r>    2.6612    1.0000 </r>
       <r>    2.7204    1.0000 </r>
       <r>    3.1940    1.0000 </r>
       <r>    3.2531    1.0000 </r>
       <r>    3.5195    1.0000 </r>
       <r>    3.8936    1.0000 </r>
       <r>    3.9752    1.0017 </r>
       <r>    6.0485   -0.0000 </r>
       <r>    6.4280   -0.0000 </r>
       <r>    7.8186    0.0000 </r>
       <r>    7.9104    0.0000 </r>
       <r>    8.3692    0.0000 </r>
       <r>    8.8268    0.0000 </r>
       <r>    9.7761    0.0000 </r>
       <r>    9.7982    0.0000 </r>
       <r>   10.0634    0.0000 </r>
       <r>   10.5824    0.0000 </r>
       <r>   10.6435    0.0000 </r>
       <r>   10.8126    0.0000 </r>
       <r>   10.8497    0.0000 </r>
       <r>   11.4907    0.0000 </r>
       <r>   11.5545    0.0000 </r>
       <r>   12.0253    0.0000 </r>
       <r>   12.5785    0.0000 </r>
       <r>   12.7779    0.0000 </r>
       <r>   12.9111    0.0000 </r>
       <r>   13.2057    0.0000 </r>
       <r>   13.5341    0.0000 </r>
       <r>   13.8225    0.0000 </r>
       <r>   14.1964    0.0000 </r>
       <r>   14.7012    0.0000 </r>
      </set>
      <set comment="kpoint 12">
       <r>  -68.6452    1.0000 </r>
       <r>  -68.6407    1.0000 </r>
       <r>  -68.6335    1.0000 </r>
       <r>  -68.6261    1.0000 </r>
       <r>  -68.6132    1.0000 </r>
       <r>  -68.6096    1.0000 </r>
       <r>  -68.5959    1.0000 </r>
       <r>  -68.5911    1.0000 </r>
       <r>  -68.5778    1.0000 </r>
       <r>  -68.5713    1.0000 </r>
       <r>  -68.5610    1.0000 </r>
       <r>  -68.5542    1.0000 </r>
       <r>  -12.4678    1.0000 </r>
       <r>  -11.4698    1.0000 </r>
       <r>  -10.8672    1.0000 </r>
       <r>  -10.6890    1.0000 </r>
       <r>  -10.3732    1.0000 </r>
       <r>  -10.2452    1.0000 </r>
       <r>   -5.7760    1.0000 </r>
       <r>   -4.8021    1.0000 </r>
       <r>   -2.4475    1.0000 </r>
       <r>   -2.2344    1.0000 </r>
       <r>   -1.8523    1.0000 </r>
       <r>   -1.7172    1.0000 </r>
       <r>   -1.4356    1.0000 </r>
       <r>   -1.1853    1.0000 </r>
       <r>   -0.8884    1.0000 </r>
       <r>   -0.7439    1.0000 </r>
       <r>   -0.6020    1.0000 </r>
       <r>   -0.5208    1.0000 </r>
       <r>   -0.3086    1.0000 </r>
       <r>   -0.2403    1.0000 </r>
       <r>   -0.1713    1.0000 </r>
       <r>   -0.1210    1.0000 </r>
       <r>   -0.0522    1.0000 </r>
       <r>    0.0625    1.0000 </r>
       <r>    1.3036    1.0000 </r>
       <r>    1.3393    1.0000 </r>
       <r>    1.3722    1.0000 </r>
       <r>    1.4325    1.0000 </r>
       <r>    1.4488    1.0000 </r>
       <r>    1.4809    1.0000 </r>
       <r>    1.5243    1.0000 </r>
       <r>    1.5497    1.0000 </r>
       <r>    1.6459    1.0000 </r>
       <r>    1.8744    1.0000 </r>
       <r>    1.9788    1.0000 </r>
       <r>    2.0491    1.0000 </r>
       <r>    2.1962    1.0000 </r>
       <r>    2.4765    1.0000 </r>
       <r>    2.5944    1.0000 </r>
       <r>    2.8388    1.0000 </r>
       <r>    2.9631    1.0000 </r>
       <r>    3.1337    1.0000 </r>
       <r>    3.5679    1.0000 </r>
       <r>    3.7244    1.0000 </r>
       <r>    6.4390   -0.0000 </r>
       <r>    6.9726    0.0000 </r>
       <r>    8.1689    0.0000 </r>
       <r>    8.2494    0.0000 </r>
       <r>    8.8344    0.0000 </r>
       <r>    9.1307    0.0000 </r>
       <r>    9.4656    0.0000 </r>
       <r>    9.8008    0.0000 </r>
       <r>   10.0825    0.0000 </r>
       <r>   10.2922    0.0000 </r>
       <r>   10.7375    0.0000 </r>
       <r>   11.0791    0.0000 </r>
       <r>   11.2857    0.0000 </r>
       <r>   11.4248    0.0000 </r>
       <r>   11.6321    0.0000 </r>
       <r>   11.7237    0.0000 </r>
       <r>   12.0863    0.0000 </r>
       <r>   12.2660    0.0000 </r>
       <r>   12.5449    0.0000 </r>
       <r>   12.6581    0.0000 </r>
       <r>   12.9543    0.0000 </r>
       <r>   13.0612    0.0000 </r>
       <r>   13.6384    0.0000 </r>
       <r>   14.6911    0.0000 </r>
      </set>
      <set comment="kpoint 13">
       <r>  -68.6451    1.0000 </r>
       <r>  -68.6405    1.0000 </r>
       <r>  -68.6334    1.0000 </r>
       <r>  -68.6260    1.0000 </r>
       <r>  -68.6130    1.0000 </r>
       <r>  -68.6094    1.0000 </r>
       <r>  -68.5958    1.0000 </r>
       <r>  -68.5910    1.0000 </r>
       <r>  -68.5777    1.0000 </r>
       <r>  -68.5712    1.0000 </r>
       <r>  -68.5609    1.0000 </r>
       <r>  -68.5542    1.0000 </r>
       <r>  -12.3662    1.0000 </r>
       <r>  -11.4171    1.0000 </r>
       <r>  -10.9536    1.0000 </r>
       <r>  -10.6857    1.0000 </r>
       <r>  -10.4783    1.0000 </r>
       <r>  -10.3340    1.0000 </r>
       <r>   -5.7608    1.0000 </r>
       <r>   -4.7188    1.0000 </r>
       <r>   -2.5245    1.0000 </r>
       <r>   -2.1870    1.0000 </r>
       <r>   -1.9543    1.0000 </r>
       <r>   -1.5374    1.0000 </r>
       <r>   -1.3036    1.0000 </r>
       <r>   -1.0956    1.0000 </r>
       <r>   -0.8688    1.0000 </r>
       <r>   -0.7591    1.0000 </r>
       <r>   -0.5468    1.0000 </r>
       <r>   -0.4433    1.0000 </r>
       <r>   -0.2890    1.0000 </r>
       <r>   -0.1767    1.0000 </r>
       <r>   -0.1426    1.0000 </r>
       <r>   -0.1001    1.0000 </r>
       <r>   -0.0437    1.0000 </r>
       <r>    0.0223    1.0000 </r>
       <r>    1.2738    1.0000 </r>
       <r>    1.3014    1.0000 </r>
       <r>    1.3545    1.0000 </r>
       <r>    1.4318    1.0000 </r>
       <r>    1.4558    1.0000 </r>
       <r>    1.4820    1.0000 </r>
       <r>    1.5035    1.0000 </r>
       <r>    1.5904    1.0000 </r>
       <r>    1.7216    1.0000 </r>
       <r>    1.9328    1.0000 </r>
       <r>    2.0771    1.0000 </r>
       <r>    2.1479    1.0000 </r>
       <r>    2.2685    1.0000 </r>
       <r>    2.4047    1.0000 </r>
       <r>    2.5700    1.0000 </r>
       <r>    2.5979    1.0000 </r>
       <r>    2.8985    1.0000 </r>
       <r>    3.0104    1.0000 </r>
       <r>    3.3598    1.0000 </r>
       <r>    3.8990    1.0000 </r>
       <r>    6.3607   -0.0000 </r>
       <r>    6.9153   -0.0000 </r>
       <r>    7.5769    0.0000 </r>
       <r>    8.0796    0.0000 </r>
       <r>    8.5468    0.0000 </r>
       <r>    8.7988    0.0000 </r>
       <r>    9.2889    0.0000 </r>
       <r>    9.6243    0.0000 </r>
       <r>    9.9294    0.0000 </r>
       <r>   10.2733    0.0000 </r>
       <r>   10.6594    0.0000 </r>
       <r>   10.9259    0.0000 </r>
       <r>   10.9727    0.0000 </r>
       <r>   11.2789    0.0000 </r>
       <r>   11.5187    0.0000 </r>
       <r>   11.7871    0.0000 </r>
       <r>   12.2514    0.0000 </r>
       <r>   12.5521    0.0000 </r>
       <r>   13.0985    0.0000 </r>
       <r>   13.5302    0.0000 </r>
       <r>   14.3061    0.0000 </r>
       <r>   14.6199    0.0000 </r>
       <r>   15.1274    0.0000 </r>
       <r>   16.2649    0.0000 </r>
      </set>
      <set comment="kpoint 14">
       <r>  -68.6453    1.0000 </r>
       <r>  -68.6407    1.0000 </r>
       <r>  -68.6335    1.0000 </r>
       <r>  -68.6261    1.0000 </r>
       <r>  -68.6131    1.0000 </r>
       <r>  -68.6095    1.0000 </r>
       <r>  -68.5959    1.0000 </r>
       <r>  -68.5911    1.0000 </r>
       <r>  -68.5778    1.0000 </r>
       <r>  -68.5713    1.0000 </r>
       <r>  -68.5610    1.0000 </r>
       <r>  -68.5543    1.0000 </r>
       <r>  -12.5493    1.0000 </r>
       <r>  -11.3444    1.0000 </r>
       <r>  -10.8717    1.0000 </r>
       <r>  -10.6083    1.0000 </r>
       <r>  -10.3985    1.0000 </r>
       <r>  -10.2824    1.0000 </r>
       <r>   -5.8344    1.0000 </r>
       <r>   -4.9713    1.0000 </r>
       <r>   -2.6679    1.0000 </r>
       <r>   -2.4554    1.0000 </r>
       <r>   -2.0382    1.0000 </r>
       <r>   -1.5818    1.0000 </r>
       <r>   -1.1710    1.0000 </r>
       <r>   -0.9839    1.0000 </r>
       <r>   -0.7885    1.0000 </r>
       <r>   -0.6561    1.0000 </r>
       <r>   -0.5163    1.0000 </r>
       <r>   -0.3889    1.0000 </r>
       <r>   -0.2637    1.0000 </r>
       <r>   -0.2515    1.0000 </r>
       <r>   -0.1884    1.0000 </r>
       <r>   -0.1434    1.0000 </r>
       <r>   -0.0447    1.0000 </r>
       <r>    0.0164    1.0000 </r>
       <r>    1.2918    1.0000 </r>
       <r>    1.3146    1.0000 </r>
       <r>    1.3903    1.0000 </r>
       <r>    1.4122    1.0000 </r>
       <r>    1.4366    1.0000 </r>
       <r>    1.4592    1.0000 </r>
       <r>    1.4939    1.0000 </r>
       <r>    1.5658    1.0000 </r>
       <r>    1.6886    1.0000 </r>
       <r>    1.9171    1.0000 </r>
       <r>    1.9877    1.0000 </r>
       <r>    2.1466    1.0000 </r>
       <r>    2.3354    1.0000 </r>
       <r>    2.5651    1.0000 </r>
       <r>    2.6169    1.0000 </r>
       <r>    2.8293    1.0000 </r>
       <r>    2.9744    1.0000 </r>
       <r>    3.2507    1.0000 </r>
       <r>    3.6824    1.0000 </r>
       <r>    3.9418    1.0004 </r>
       <r>    6.1775   -0.0000 </r>
       <r>    6.6506   -0.0000 </r>
       <r>    7.7684    0.0000 </r>
       <r>    7.9774    0.0000 </r>
       <r>    8.2118    0.0000 </r>
       <r>    8.5704    0.0000 </r>
       <r>    9.3820    0.0000 </r>
       <r>    9.5774    0.0000 </r>
       <r>    9.9071    0.0000 </r>
       <r>   10.2475    0.0000 </r>
       <r>   10.5464    0.0000 </r>
       <r>   10.7855    0.0000 </r>
       <r>   10.8375    0.0000 </r>
       <r>   11.0654    0.0000 </r>
       <r>   11.5658    0.0000 </r>
       <r>   12.0169    0.0000 </r>
       <r>   12.5319    0.0000 </r>
       <r>   12.7489    0.0000 </r>
       <r>   12.9534    0.0000 </r>
       <r>   13.3050    0.0000 </r>
       <r>   13.4098    0.0000 </r>
       <r>   13.7411    0.0000 </r>
       <r>   13.8482    0.0000 </r>
       <r>   14.7239    0.0000 </r>
      </set>
      <set comment="kpoint 15">
       <r>  -68.6452    1.0000 </r>
       <r>  -68.6407    1.0000 </r>
       <r>  -68.6335    1.0000 </r>
       <r>  -68.6261    1.0000 </r>
       <r>  -68.6132    1.0000 </r>
       <r>  -68.6096    1.0000 </r>
       <r>  -68.5959    1.0000 </r>
       <r>  -68.5911    1.0000 </r>
       <r>  -68.5778    1.0000 </r>
       <r>  -68.5713    1.0000 </r>
       <r>  -68.5609    1.0000 </r>
       <r>  -68.5543    1.0000 </r>
       <r>  -12.4673    1.0000 </r>
       <r>  -11.4721    1.0000 </r>
       <r>  -10.8638    1.0000 </r>
       <r>  -10.6898    1.0000 </r>
       <r>  -10.3733    1.0000 </r>
       <r>  -10.2458    1.0000 </r>
       <r>   -5.7774    1.0000 </r>
       <r>   -4.8007    1.0000 </r>
       <r>   -2.4488    1.0000 </r>
       <r>   -2.2362    1.0000 </r>
       <r>   -1.8503    1.0000 </r>
       <r>   -1.7118    1.0000 </r>
       <r>   -1.4348    1.0000 </r>
       <r>   -1.1871    1.0000 </r>
       <r>   -0.8891    1.0000 </r>
       <r>   -0.7439    1.0000 </r>
       <r>   -0.6050    1.0000 </r>
       <r>   -0.5151    1.0000 </r>
       <r>   -0.3100    1.0000 </r>
       <r>   -0.2439    1.0000 </r>
       <r>   -0.1733    1.0000 </r>
       <r>   -0.1200    1.0000 </r>
       <r>   -0.0518    1.0000 </r>
       <r>    0.0629    1.0000 </r>
       <r>    1.3048    1.0000 </r>
       <r>    1.3379    1.0000 </r>
       <r>    1.3717    1.0000 </r>
       <r>    1.4358    1.0000 </r>
       <r>    1.4483    1.0000 </r>
       <r>    1.4822    1.0000 </r>
       <r>    1.5225    1.0000 </r>
       <r>    1.5500    1.0000 </r>
       <r>    1.6448    1.0000 </r>
       <r>    1.8722    1.0000 </r>
       <r>    1.9775    1.0000 </r>
       <r>    2.0485    1.0000 </r>
       <r>    2.1974    1.0000 </r>
       <r>    2.4768    1.0000 </r>
       <r>    2.5957    1.0000 </r>
       <r>    2.8393    1.0000 </r>
       <r>    2.9626    1.0000 </r>
       <r>    3.1304    1.0000 </r>
       <r>    3.5675    1.0000 </r>
       <r>    3.7253    1.0000 </r>
       <r>    6.4435   -0.0000 </r>
       <r>    6.9710    0.0000 </r>
       <r>    8.1718    0.0000 </r>
       <r>    8.2473    0.0000 </r>
       <r>    8.8394    0.0000 </r>
       <r>    9.1312    0.0000 </r>
       <r>    9.4603    0.0000 </r>
       <r>    9.7956    0.0000 </r>
       <r>   10.0807    0.0000 </r>
       <r>   10.3012    0.0000 </r>
       <r>   10.7391    0.0000 </r>
       <r>   11.0793    0.0000 </r>
       <r>   11.2857    0.0000 </r>
       <r>   11.4229    0.0000 </r>
       <r>   11.6311    0.0000 </r>
       <r>   11.7239    0.0000 </r>
       <r>   12.0866    0.0000 </r>
       <r>   12.2664    0.0000 </r>
       <r>   12.5393    0.0000 </r>
       <r>   12.6586    0.0000 </r>
       <r>   12.9546    0.0000 </r>
       <r>   13.0617    0.0000 </r>
       <r>   13.6524    0.0000 </r>
       <r>   14.6958    0.0000 </r>
      </set>
      <set comment="kpoint 16">
       <r>  -68.6451    1.0000 </r>
       <r>  -68.6406    1.0000 </r>
       <r>  -68.6333    1.0000 </r>
       <r>  -68.6259    1.0000 </r>
       <r>  -68.6130    1.0000 </r>
       <r>  -68.6094    1.0000 </r>
       <r>  -68.5958    1.0000 </r>
       <r>  -68.5909    1.0000 </r>
       <r>  -68.5777    1.0000 </r>
       <r>  -68.5712    1.0000 </r>
       <r>  -68.5609    1.0000 </r>
       <r>  -68.5542    1.0000 </r>
       <r>  -12.3372    1.0000 </r>
       <r>  -11.4777    1.0000 </r>
       <r>  -10.8627    1.0000 </r>
       <r>  -10.8598    1.0000 </r>
       <r>  -10.4062    1.0000 </r>
       <r>  -10.2876    1.0000 </r>
       <r>   -5.7570    1.0000 </r>
       <r>   -4.6879    1.0000 </r>
       <r>   -2.2448    1.0000 </r>
       <r>   -2.1420    1.0000 </r>
       <r>   -1.9306    1.0000 </r>
       <r>   -1.8513    1.0000 </r>
       <r>   -1.4513    1.0000 </r>
       <r>   -1.3944    1.0000 </r>
       <r>   -1.0401    1.0000 </r>
       <r>   -0.5188    1.0000 </r>
       <r>   -0.4582    1.0000 </r>
       <r>   -0.3447    1.0000 </r>
       <r>   -0.2480    1.0000 </r>
       <r>   -0.2156    1.0000 </r>
       <r>   -0.1601    1.0000 </r>
       <r>   -0.1109    1.0000 </r>
       <r>   -0.0883    1.0000 </r>
       <r>    0.0808    1.0000 </r>
       <r>    1.2650    1.0000 </r>
       <r>    1.3499    1.0000 </r>
       <r>    1.3997    1.0000 </r>
       <r>    1.4375    1.0000 </r>
       <r>    1.4556    1.0000 </r>
       <r>    1.5130    1.0000 </r>
       <r>    1.5373    1.0000 </r>
       <r>    1.5456    1.0000 </r>
       <r>    1.7546    1.0000 </r>
       <r>    1.8195    1.0000 </r>
       <r>    2.0420    1.0000 </r>
       <r>    2.1344    1.0000 </r>
       <r>    2.2861    1.0000 </r>
       <r>    2.3101    1.0000 </r>
       <r>    2.5212    1.0000 </r>
       <r>    2.7706    1.0000 </r>
       <r>    2.8996    1.0000 </r>
       <r>    3.2612    1.0000 </r>
       <r>    3.4968    1.0000 </r>
       <r>    3.8014    1.0000 </r>
       <r>    6.1843   -0.0000 </r>
       <r>    6.8552   -0.0000 </r>
       <r>    7.8302    0.0000 </r>
       <r>    8.0475    0.0000 </r>
       <r>    8.1910    0.0000 </r>
       <r>    8.7254    0.0000 </r>
       <r>    9.1554    0.0000 </r>
       <r>    9.3078    0.0000 </r>
       <r>   10.2163    0.0000 </r>
       <r>   10.4376    0.0000 </r>
       <r>   10.5919    0.0000 </r>
       <r>   11.0036    0.0000 </r>
       <r>   11.2402    0.0000 </r>
       <r>   11.4872    0.0000 </r>
       <r>   11.8123    0.0000 </r>
       <r>   12.1695    0.0000 </r>
       <r>   12.2050    0.0000 </r>
       <r>   12.5747    0.0000 </r>
       <r>   12.6940    0.0000 </r>
       <r>   13.1121    0.0000 </r>
       <r>   13.4179    0.0000 </r>
       <r>   13.8812    0.0000 </r>
       <r>   14.0022    0.0000 </r>
       <r>   14.5262    0.0000 </r>
      </set>
      <set comment="kpoint 17">
       <r>  -68.6450    1.0000 </r>
       <r>  -68.6405    1.0000 </r>
       <r>  -68.6335    1.0000 </r>
       <r>  -68.6260    1.0000 </r>
       <r>  -68.6130    1.0000 </r>
       <r>  -68.6094    1.0000 </r>
       <r>  -68.5958    1.0000 </r>
       <r>  -68.5910    1.0000 </r>
       <r>  -68.5777    1.0000 </r>
       <r>  -68.5713    1.0000 </r>
       <r>  -68.5608    1.0000 </r>
       <r>  -68.5541    1.0000 </r>
       <r>  -12.3830    1.0000 </r>
       <r>  -11.4769    1.0000 </r>
       <r>  -10.9398    1.0000 </r>
       <r>  -10.6527    1.0000 </r>
       <r>  -10.4198    1.0000 </r>
       <r>  -10.3039    1.0000 </r>
       <r>   -5.8098    1.0000 </r>
       <r>   -4.8326    1.0000 </r>
       <r>   -2.5287    1.0000 </r>
       <r>   -2.2468    1.0000 </r>
       <r>   -1.8731    1.0000 </r>
       <r>   -1.6484    1.0000 </r>
       <r>   -1.5018    1.0000 </r>
       <r>   -1.3130    1.0000 </r>
       <r>   -0.9002    1.0000 </r>
       <r>   -0.5293    1.0000 </r>
       <r>   -0.3772    1.0000 </r>
       <r>   -0.3488    1.0000 </r>
       <r>   -0.2206    1.0000 </r>
       <r>   -0.1766    1.0000 </r>
       <r>   -0.1531    1.0000 </r>
       <r>   -0.0740    1.0000 </r>
       <r>   -0.0260    1.0000 </r>
       <r>    0.0803    1.0000 </r>
       <r>    1.1935    1.0000 </r>
       <r>    1.3662    1.0000 </r>
       <r>    1.3992    1.0000 </r>
       <r>    1.4452    1.0000 </r>
       <r>    1.4661    1.0000 </r>
       <r>    1.5103    1.0000 </r>
       <r>    1.5210    1.0000 </r>
       <r>    1.5862    1.0000 </r>
       <r>    1.7422    1.0000 </r>
       <r>    1.8192    1.0000 </r>
       <r>    2.0391    1.0000 </r>
       <r>    2.2360    1.0000 </r>
       <r>    2.2695    1.0000 </r>
       <r>    2.3634    1.0000 </r>
       <r>    2.4882    1.0000 </r>
       <r>    2.6725    1.0000 </r>
       <r>    3.0507    1.0000 </r>
       <r>    3.4127    1.0000 </r>
       <r>    3.7273    1.0000 </r>
       <r>    3.8638    1.0000 </r>
       <r>    5.9309   -0.0000 </r>
       <r>    6.6251   -0.0000 </r>
       <r>    7.3588    0.0000 </r>
       <r>    7.9456    0.0000 </r>
       <r>    8.0665    0.0000 </r>
       <r>    8.7231    0.0000 </r>
       <r>    8.9122    0.0000 </r>
       <r>    9.1369    0.0000 </r>
       <r>    9.8446    0.0000 </r>
       <r>   10.3294    0.0000 </r>
       <r>   10.5507    0.0000 </r>
       <r>   10.9247    0.0000 </r>
       <r>   11.2251    0.0000 </r>
       <r>   11.4140    0.0000 </r>
       <r>   11.7477    0.0000 </r>
       <r>   11.9996    0.0000 </r>
       <r>   12.4940    0.0000 </r>
       <r>   12.8258    0.0000 </r>
       <r>   13.2044    0.0000 </r>
       <r>   14.1835    0.0000 </r>
       <r>   14.7170    0.0000 </r>
       <r>   15.1625    0.0000 </r>
       <r>   15.9144    0.0000 </r>
       <r>   16.5646    0.0000 </r>
      </set>
      <set comment="kpoint 18">
       <r>  -68.6452    1.0000 </r>
       <r>  -68.6407    1.0000 </r>
       <r>  -68.6335    1.0000 </r>
       <r>  -68.6261    1.0000 </r>
       <r>  -68.6131    1.0000 </r>
       <r>  -68.6095    1.0000 </r>
       <r>  -68.5960    1.0000 </r>
       <r>  -68.5911    1.0000 </r>
       <r>  -68.5778    1.0000 </r>
       <r>  -68.5713    1.0000 </r>
       <r>  -68.5609    1.0000 </r>
       <r>  -68.5542    1.0000 </r>
       <r>  -12.5080    1.0000 </r>
       <r>  -11.4323    1.0000 </r>
       <r>  -10.9470    1.0000 </r>
       <r>  -10.5817    1.0000 </r>
       <r>  -10.3759    1.0000 </r>
       <r>  -10.2069    1.0000 </r>
       <r>   -5.8391    1.0000 </r>
       <r>   -4.9370    1.0000 </r>
       <r>   -2.5743    1.0000 </r>
       <r>   -2.3692    1.0000 </r>
       <r>   -1.9213    1.0000 </r>
       <r>   -1.5956    1.0000 </r>
       <r>   -1.4126    1.0000 </r>
       <r>   -1.1241    1.0000 </r>
       <r>   -0.8128    1.0000 </r>
       <r>   -0.6749    1.0000 </r>
       <r>   -0.5342    1.0000 </r>
       <r>   -0.4654    1.0000 </r>
       <r>   -0.2457    1.0000 </r>
       <r>   -0.1954    1.0000 </r>
       <r>   -0.1672    1.0000 </r>
       <r>   -0.1162    1.0000 </r>
       <r>   -0.0327    1.0000 </r>
       <r>    0.0596    1.0000 </r>
       <r>    1.2832    1.0000 </r>
       <r>    1.3273    1.0000 </r>
       <r>    1.3482    1.0000 </r>
       <r>    1.4360    1.0000 </r>
       <r>    1.4547    1.0000 </r>
       <r>    1.4708    1.0000 </r>
       <r>    1.4959    1.0000 </r>
       <r>    1.5581    1.0000 </r>
       <r>    1.7280    1.0000 </r>
       <r>    1.8445    1.0000 </r>
       <r>    1.9711    1.0000 </r>
       <r>    2.0988    1.0000 </r>
       <r>    2.3370    1.0000 </r>
       <r>    2.4513    1.0000 </r>
       <r>    2.5403    1.0000 </r>
       <r>    2.8508    1.0000 </r>
       <r>    3.0529    1.0000 </r>
       <r>    3.2655    1.0000 </r>
       <r>    3.6709    1.0000 </r>
       <r>    3.7823    1.0000 </r>
       <r>    6.2603   -0.0000 </r>
       <r>    6.8112   -0.0000 </r>
       <r>    7.8186    0.0000 </r>
       <r>    8.1317    0.0000 </r>
       <r>    8.3398    0.0000 </r>
       <r>    8.9400    0.0000 </r>
       <r>    9.3395    0.0000 </r>
[...]
       <r>   11.7077    0.0000 </r>
       <r>   11.8931    0.0000 </r>
       <r>   12.2931    0.0000 </r>
       <r>   12.6541    0.0000 </r>
       <r>   13.0048    0.0000 </r>
       <r>   13.2353    0.0000 </r>
       <r>   13.6692    0.0000 </r>
       <r>   14.0742    0.0000 </r>
       <r>   14.3951    0.0000 </r>
       <r>   16.5220    0.0000 </r>
      </set>
      <set comment="kpoint 42">
       <r>  -68.6452    1.0000 </r>
       <r>  -68.6406    1.0000 </r>
       <r>  -68.6333    1.0000 </r>
       <r>  -68.6258    1.0000 </r>
       <r>  -68.6130    1.0000 </r>
       <r>  -68.6095    1.0000 </r>
       <r>  -68.5957    1.0000 </r>
       <r>  -68.5909    1.0000 </r>
       <r>  -68.5777    1.0000 </r>
       <r>  -68.5712    1.0000 </r>
       <r>  -68.5609    1.0000 </r>
       <r>  -68.5542    1.0000 </r>
       <r>  -12.1869    1.0000 </r>
       <r>  -11.7136    1.0000 </r>
       <r>  -10.7169    1.0000 </r>
       <r>  -10.6937    1.0000 </r>
       <r>  -10.5862    1.0000 </r>
       <r>  -10.3914    1.0000 </r>
       <r>   -5.4506    1.0000 </r>
       <r>   -5.0716    1.0000 </r>
       <r>   -2.5098    1.0000 </r>
       <r>   -2.3803    1.0000 </r>
       <r>   -1.9662    1.0000 </r>
       <r>   -1.3673    1.0000 </r>
       <r>   -1.3306    1.0000 </r>
       <r>   -1.0589    1.0000 </r>
       <r>   -0.8295    1.0000 </r>
       <r>   -0.7671    1.0000 </r>
       <r>   -0.4228    1.0000 </r>
       <r>   -0.3384    1.0000 </r>
       <r>   -0.2695    1.0000 </r>
       <r>   -0.2057    1.0000 </r>
       <r>   -0.1392    1.0000 </r>
       <r>   -0.1379    1.0000 </r>
       <r>   -0.0116    1.0000 </r>
       <r>    0.0286    1.0000 </r>
       <r>    1.1765    1.0000 </r>
       <r>    1.3739    1.0000 </r>
       <r>    1.4002    1.0000 </r>
       <r>    1.4549    1.0000 </r>
       <r>    1.4564    1.0000 </r>
       <r>    1.5007    1.0000 </r>
       <r>    1.5195    1.0000 </r>
       <r>    1.5508    1.0000 </r>
       <r>    1.7458    1.0000 </r>
       <r>    1.8223    1.0000 </r>
       <r>    1.9762    1.0000 </r>
       <r>    2.2292    1.0000 </r>
       <r>    2.3950    1.0000 </r>
       <r>    2.6115    1.0000 </r>
       <r>    2.6549    1.0000 </r>
       <r>    2.9163    1.0000 </r>
       <r>    3.0718    1.0000 </r>
       <r>    3.1178    1.0000 </r>
       <r>    3.2875    1.0000 </r>
       <r>    3.5841    1.0000 </r>
       <r>    6.3012   -0.0000 </r>
       <r>    6.3796   -0.0000 </r>
       <r>    7.3665    0.0000 </r>
       <r>    7.5252    0.0000 </r>
       <r>    8.3119    0.0000 </r>
       <r>    8.3407    0.0000 </r>
       <r>    9.1055    0.0000 </r>
       <r>    9.3543    0.0000 </r>
       <r>    9.7181    0.0000 </r>
       <r>    9.9489    0.0000 </r>
       <r>   10.5250    0.0000 </r>
       <r>   10.9879    0.0000 </r>
       <r>   11.4219    0.0000 </r>
       <r>   11.5612    0.0000 </r>
       <r>   12.0208    0.0000 </r>
       <r>   12.2841    0.0000 </r>
       <r>   12.4260    0.0000 </r>
       <r>   12.4759    0.0000 </r>
       <r>   13.0325    0.0000 </r>
       <r>   13.1452    0.0000 </r>
       <r>   14.1361    0.0000 </r>
       <r>   14.4374    0.0000 </r>
       <r>   15.1621    0.0000 </r>
       <r>   15.8618    0.0000 </r>
      </set>
     </set>
    </set>
   </array>
  </eigenvalues>
  <separator name="orbital magnetization" >
   <v name="MAGDIPOLOUT">      0.00000000      0.00000000      0.00000000</v>
  </separator>
  <dos>
   <i name="efermi">      4.21683662 </i>
   <total>
    <array>
     <dimension dim="1">gridpoints</dimension>
     <dimension dim="2">spin</dimension>
     <field>energy</field>
     <field>total</field>
     <field>integrated</field>
     <set>
      <set comment="spin 1">
       <r>   -72.8301     0.0000     0.0000 </r>
       <r>   -72.5238     0.0000     0.0000 </r>
       <r>   -72.2174     0.0000     0.0000 </r>
       <r>   -71.9110     0.0000     0.0000 </r>
       <r>   -71.6046     0.0000     0.0000 </r>
       <r>   -71.2982     0.0000     0.0000 </r>
       <r>   -70.9918     0.0000     0.0000 </r>
       <r>   -70.6855     0.0000     0.0000 </r>
       <r>   -70.3791     0.0000     0.0000 </r>
       <r>   -70.0727     0.0000     0.0000 </r>
       <r>   -69.7663     0.0000     0.0000 </r>
       <r>   -69.4599    -0.0000    -0.0000 </r>
       <r>   -69.1536    -0.0000    -0.0000 </r>
       <r>   -68.8472    -0.1962    -0.0601 </r>
       <r>   -68.5408    69.2306    21.1508 </r>
       <r>   -68.2344     9.2999    24.0001 </r>
       <r>   -67.9280    -0.0005    24.0000 </r>
       <r>   -67.6217     0.0000    24.0000 </r>
       <r>   -67.3153     0.0000    24.0000 </r>
       <r>   -67.0089     0.0000    24.0000 </r>
       <r>   -66.7025     0.0000    24.0000 </r>
       <r>   -66.3961     0.0000    24.0000 </r>
       <r>   -66.0898     0.0000    24.0000 </r>
       <r>   -65.7834     0.0000    24.0000 </r>
       <r>   -65.4770     0.0000    24.0000 </r>
       <r>   -65.1706     0.0000    24.0000 </r>
       <r>   -64.8642     0.0000    24.0000 </r>
       <r>   -64.5578     0.0000    24.0000 </r>
       <r>   -64.2515     0.0000    24.0000 </r>
       <r>   -63.9451     0.0000    24.0000 </r>
       <r>   -63.6387     0.0000    24.0000 </r>
       <r>   -63.3323     0.0000    24.0000 </r>
       <r>   -63.0259     0.0000    24.0000 </r>
       <r>   -62.7196     0.0000    24.0000 </r>
       <r>   -62.4132     0.0000    24.0000 </r>
       <r>   -62.1068     0.0000    24.0000 </r>
       <r>   -61.8004     0.0000    24.0000 </r>
       <r>   -61.4940     0.0000    24.0000 </r>
       <r>   -61.1877     0.0000    24.0000 </r>
       <r>   -60.8813     0.0000    24.0000 </r>
       <r>   -60.5749     0.0000    24.0000 </r>
       <r>   -60.2685     0.0000    24.0000 </r>
       <r>   -59.9621     0.0000    24.0000 </r>
       <r>   -59.6557     0.0000    24.0000 </r>
       <r>   -59.3494     0.0000    24.0000 </r>
       <r>   -59.0430     0.0000    24.0000 </r>
       <r>   -58.7366     0.0000    24.0000 </r>
       <r>   -58.4302     0.0000    24.0000 </r>
       <r>   -58.1238     0.0000    24.0000 </r>
       <r>   -57.8175     0.0000    24.0000 </r>
       <r>   -57.5111     0.0000    24.0000 </r>
       <r>   -57.2047     0.0000    24.0000 </r>
       <r>   -56.8983     0.0000    24.0000 </r>
       <r>   -56.5919     0.0000    24.0000 </r>
       <r>   -56.2856     0.0000    24.0000 </r>
       <r>   -55.9792     0.0000    24.0000 </r>
       <r>   -55.6728     0.0000    24.0000 </r>
       <r>   -55.3664     0.0000    24.0000 </r>
       <r>   -55.0600     0.0000    24.0000 </r>
       <r>   -54.7537     0.0000    24.0000 </r>
       <r>   -54.4473     0.0000    24.0000 </r>
       <r>   -54.1409     0.0000    24.0000 </r>
       <r>   -53.8345     0.0000    24.0000 </r>
       <r>   -53.5281     0.0000    24.0000 </r>
       <r>   -53.2217     0.0000    24.0000 </r>
       <r>   -52.9154     0.0000    24.0000 </r>
       <r>   -52.6090     0.0000    24.0000 </r>
       <r>   -52.3026     0.0000    24.0000 </r>
       <r>   -51.9962     0.0000    24.0000 </r>
       <r>   -51.6898     0.0000    24.0000 </r>
       <r>   -51.3835     0.0000    24.0000 </r>
       <r>   -51.0771     0.0000    24.0000 </r>
       <r>   -50.7707     0.0000    24.0000 </r>
       <r>   -50.4643     0.0000    24.0000 </r>
       <r>   -50.1579     0.0000    24.0000 </r>
       <r>   -49.8516     0.0000    24.0000 </r>
       <r>   -49.5452     0.0000    24.0000 </r>
       <r>   -49.2388     0.0000    24.0000 </r>
       <r>   -48.9324     0.0000    24.0000 </r>
       <r>   -48.6260     0.0000    24.0000 </r>
       <r>   -48.3197     0.0000    24.0000 </r>
       <r>   -48.0133     0.0000    24.0000 </r>
       <r>   -47.7069     0.0000    24.0000 </r>
       <r>   -47.4005     0.0000    24.0000 </r>
       <r>   -47.0941     0.0000    24.0000 </r>
       <r>   -46.7877     0.0000    24.0000 </r>
       <r>   -46.4814     0.0000    24.0000 </r>
       <r>   -46.1750     0.0000    24.0000 </r>
       <r>   -45.8686     0.0000    24.0000 </r>
       <r>   -45.5622     0.0000    24.0000 </r>
       <r>   -45.2558     0.0000    24.0000 </r>
       <r>   -44.9495     0.0000    24.0000 </r>
       <r>   -44.6431     0.0000    24.0000 </r>
       <r>   -44.3367     0.0000    24.0000 </r>
       <r>   -44.0303     0.0000    24.0000 </r>
       <r>   -43.7239     0.0000    24.0000 </r>
       <r>   -43.4176     0.0000    24.0000 </r>
       <r>   -43.1112     0.0000    24.0000 </r>
       <r>   -42.8048     0.0000    24.0000 </r>
       <r>   -42.4984     0.0000    24.0000 </r>
       <r>   -42.1920     0.0000    24.0000 </r>
       <r>   -41.8856     0.0000    24.0000 </r>
       <r>   -41.5793     0.0000    24.0000 </r>
       <r>   -41.2729     0.0000    24.0000 </r>
       <r>   -40.9665     0.0000    24.0000 </r>
       <r>   -40.6601     0.0000    24.0000 </r>
       <r>   -40.3537     0.0000    24.0000 </r>
       <r>   -40.0474     0.0000    24.0000 </r>
       <r>   -39.7410     0.0000    24.0000 </r>
       <r>   -39.4346     0.0000    24.0000 </r>
       <r>   -39.1282     0.0000    24.0000 </r>
       <r>   -38.8218     0.0000    24.0000 </r>
       <r>   -38.5155     0.0000    24.0000 </r>
       <r>   -38.2091     0.0000    24.0000 </r>
       <r>   -37.9027     0.0000    24.0000 </r>
       <r>   -37.5963     0.0000    24.0000 </r>
       <r>   -37.2899     0.0000    24.0000 </r>
       <r>   -36.9836     0.0000    24.0000 </r>
       <r>   -36.6772     0.0000    24.0000 </r>
       <r>   -36.3708     0.0000    24.0000 </r>
       <r>   -36.0644     0.0000    24.0000 </r>
       <r>   -35.7580     0.0000    24.0000 </r>
       <r>   -35.4516     0.0000    24.0000 </r>
       <r>   -35.1453     0.0000    24.0000 </r>
       <r>   -34.8389     0.0000    24.0000 </r>
       <r>   -34.5325     0.0000    24.0000 </r>
       <r>   -34.2261     0.0000    24.0000 </r>
       <r>   -33.9197     0.0000    24.0000 </r>
       <r>   -33.6134     0.0000    24.0000 </r>
       <r>   -33.3070     0.0000    24.0000 </r>
       <r>   -33.0006     0.0000    24.0000 </r>
       <r>   -32.6942     0.0000    24.0000 </r>
       <r>   -32.3878     0.0000    24.0000 </r>
       <r>   -32.0815     0.0000    24.0000 </r>
       <r>   -31.7751     0.0000    24.0000 </r>
       <r>   -31.4687     0.0000    24.0000 </r>
       <r>   -31.1623     0.0000    24.0000 </r>
       <r>   -30.8559     0.0000    24.0000 </r>
       <r>   -30.5496     0.0000    24.0000 </r>
       <r>   -30.2432     0.0000    24.0000 </r>
       <r>   -29.9368     0.0000    24.0000 </r>
       <r>   -29.6304     0.0000    24.0000 </r>
       <r>   -29.3240     0.0000    24.0000 </r>
       <r>   -29.0176     0.0000    24.0000 </r>
       <r>   -28.7113     0.0000    24.0000 </r>
       <r>   -28.4049     0.0000    24.0000 </r>
       <r>   -28.0985     0.0000    24.0000 </r>
       <r>   -27.7921     0.0000    24.0000 </r>
       <r>   -27.4857     0.0000    24.0000 </r>
       <r>   -27.1794     0.0000    24.0000 </r>
       <r>   -26.8730     0.0000    24.0000 </r>
       <r>   -26.5666     0.0000    24.0000 </r>
       <r>   -26.2602     0.0000    24.0000 </r>
       <r>   -25.9538     0.0000    24.0000 </r>
       <r>   -25.6475     0.0000    24.0000 </r>
       <r>   -25.3411     0.0000    24.0000 </r>
       <r>   -25.0347     0.0000    24.0000 </r>
       <r>   -24.7283     0.0000    24.0000 </r>
       <r>   -24.4219     0.0000    24.0000 </r>
       <r>   -24.1155     0.0000    24.0000 </r>
       <r>   -23.8092     0.0000    24.0000 </r>
       <r>   -23.5028     0.0000    24.0000 </r>
       <r>   -23.1964     0.0000    24.0000 </r>
       <r>   -22.8900     0.0000    24.0000 </r>
       <r>   -22.5836     0.0000    24.0000 </r>
       <r>   -22.2773     0.0000    24.0000 </r>
       <r>   -21.9709     0.0000    24.0000 </r>
       <r>   -21.6645     0.0000    24.0000 </r>
       <r>   -21.3581     0.0000    24.0000 </r>
       <r>   -21.0517     0.0000    24.0000 </r>
       <r>   -20.7454     0.0000    24.0000 </r>
       <r>   -20.4390     0.0000    24.0000 </r>
       <r>   -20.1326     0.0000    24.0000 </r>
       <r>   -19.8262     0.0000    24.0000 </r>
       <r>   -19.5198     0.0000    24.0000 </r>
       <r>   -19.2135     0.0000    24.0000 </r>
       <r>   -18.9071     0.0000    24.0000 </r>
       <r>   -18.6007     0.0000    24.0000 </r>
       <r>   -18.2943     0.0000    24.0000 </r>
       <r>   -17.9879     0.0000    24.0000 </r>
       <r>   -17.6815     0.0000    24.0000 </r>
       <r>   -17.3752     0.0000    24.0000 </r>
       <r>   -17.0688     0.0000    24.0000 </r>
       <r>   -16.7624     0.0000    24.0000 </r>
       <r>   -16.4560     0.0000    24.0000 </r>
       <r>   -16.1496     0.0000    24.0000 </r>
       <r>   -15.8433     0.0000    24.0000 </r>
       <r>   -15.5369     0.0000    24.0000 </r>
       <r>   -15.2305     0.0000    24.0000 </r>
       <r>   -14.9241     0.0000    24.0000 </r>
       <r>   -14.6177     0.0000    24.0000 </r>
       <r>   -14.3114     0.0000    24.0000 </r>
       <r>   -14.0050     0.0000    24.0000 </r>
       <r>   -13.6986    -0.0000    24.0000 </r>
       <r>   -13.3922    -0.0000    24.0000 </r>
       <r>   -13.0858    -0.0000    24.0000 </r>
       <r>   -12.7795    -0.0033    23.9990 </r>
       <r>   -12.4731     1.6607    24.5078 </r>
       <r>   -12.1667     3.5523    25.5962 </r>
       <r>   -11.8603     1.8615    26.1665 </r>
       <r>   -11.5539     2.0996    26.8098 </r>
       <r>   -11.2475     3.1890    27.7868 </r>
       <r>   -10.9412     2.6333    28.5936 </r>
       <r>   -10.6348     9.2214    31.4189 </r>
       <r>   -10.3284     9.3694    34.2895 </r>
       <r>   -10.0220     5.6012    36.0056 </r>
       <r>    -9.7156    -0.0183    36.0000 </r>
       <r>    -9.4093    -0.0000    36.0000 </r>
       <r>    -9.1029     0.0000    36.0000 </r>
       <r>    -8.7965     0.0000    36.0000 </r>
       <r>    -8.4901     0.0000    36.0000 </r>
       <r>    -8.1837     0.0000    36.0000 </r>
       <r>    -7.8774     0.0000    36.0000 </r>
       <r>    -7.5710     0.0000    36.0000 </r>
       <r>    -7.2646     0.0000    36.0000 </r>
       <r>    -6.9582    -0.0000    36.0000 </r>
       <r>    -6.6518    -0.0000    36.0000 </r>
       <r>    -6.3454    -0.0000    36.0000 </r>
       <r>    -6.0391     0.0889    36.0272 </r>
       <r>    -5.7327     3.5657    37.1197 </r>
       <r>    -5.4263     2.0304    37.7417 </r>
       <r>    -5.1199     1.7941    38.2914 </r>
       <r>    -4.8135     3.2645    39.2916 </r>
       <r>    -4.5072     2.2351    39.9764 </r>
       <r>    -4.2008     0.0770    40.0000 </r>
       <r>    -3.8944    -0.0000    40.0000 </r>
       <r>    -3.5880    -0.0000    40.0000 </r>
       <r>    -3.2816    -0.0000    40.0000 </r>
       <r>    -2.9753    -0.0005    39.9999 </r>
       <r>    -2.6689     0.3965    40.1213 </r>
       <r>    -2.3625     6.1743    42.0130 </r>
       <r>    -2.0561     6.6930    44.0636 </r>
       <r>    -1.7497     7.3321    46.3101 </r>
       <r>    -1.4434     6.3896    48.2677 </r>
       <r>    -1.1370     8.7572    50.9508 </r>
       <r>    -0.8306     9.0448    53.7219 </r>
       <r>    -0.5242    11.3006    57.1842 </r>
       <r>    -0.2178    17.9284    62.6771 </r>
       <r>     0.0886    29.2428    71.6366 </r>
       <r>     0.3949     1.1869    72.0002 </r>
       <r>     0.7013    -0.0007    72.0000 </r>
       <r>     1.0077    -0.0182    71.9944 </r>
       <r>     1.3141     7.1531    74.1860 </r>
       <r>     1.6205    45.0296    87.9822 </r>
       <r>     1.9268    13.8227    92.2172 </r>
       <r>     2.2332    13.1870    96.2574 </r>
       <r>     2.5396    12.8712   100.2009 </r>
       <r>     2.8460    11.1507   103.6173 </r>
       <r>     3.1524     9.0915   106.4027 </r>
       <r>     3.4587     7.9104   108.8263 </r>
       <r>     3.7651     6.9420   110.9532 </r>
       <r>     4.0715     3.1787   111.9271 </r>
       <r>     4.3779     0.2384   112.0002 </r>
       <r>     4.6843    -0.0005   112.0000 </r>
       <r>     4.9907    -0.0000   112.0000 </r>
       <r>     5.2970    -0.0001   112.0000 </r>
       <r>     5.6034     0.0762   112.0233 </r>
       <r>     5.9098     0.1756   112.0771 </r>
       <r>     6.2162     2.6290   112.8826 </r>
       <r>     6.5226     4.2828   114.1947 </r>
       <r>     6.8289     3.4151   115.2410 </r>
       <r>     7.1353     2.5226   116.0139 </r>
       <r>     7.4417     1.4163   116.4478 </r>
       <r>     7.7481     3.1748   117.4205 </r>
       <r>     8.0545     5.5672   119.1262 </r>
       <r>     8.3608     5.5547   120.8280 </r>
       <r>     8.6672     4.5641   122.2264 </r>
       <r>     8.9736     4.4912   123.6024 </r>
       <r>     9.2800     5.6378   125.3297 </r>
       <r>     9.5864     5.7026   127.0769 </r>
       <r>     9.8927     4.7886   128.5440 </r>
       <r>    10.1991     4.4900   129.9197 </r>
       <r>    10.5055     6.5036   131.9123 </r>
       <r>    10.8119     8.3170   134.4604 </r>
       <r>    11.1183     8.2041   136.9740 </r>
       <r>    11.4247     7.9875   139.4212 </r>
       <r>    11.7310     7.8937   141.8397 </r>
       <r>    12.0374     6.5605   143.8497 </r>
       <r>    12.3438     5.8711   145.6485 </r>
       <r>    12.6502     6.6591   147.6887 </r>
       <r>    12.9566     5.7718   149.4571 </r>
       <r>    13.2629     6.1919   151.3542 </r>
       <r>    13.5693     5.3432   152.9912 </r>
       <r>    13.8757     4.0793   154.2411 </r>
       <r>    14.1821     3.1701   155.2123 </r>
       <r>    14.4885     4.7484   156.6671 </r>
       <r>    14.7948     3.3152   157.6828 </r>
       <r>    15.1012     1.4054   158.1134 </r>
       <r>    15.4076     1.6086   158.6063 </r>
       <r>    15.7140     1.2080   158.9764 </r>
       <r>    16.0204     1.6843   159.4924 </r>
       <r>    16.3267     0.3305   159.5937 </r>
       <r>    16.6331     0.6853   159.8036 </r>
       <r>    16.9395     0.5378   159.9684 </r>
       <r>    17.2459     0.1032   160.0000 </r>
       <r>    17.5523    -0.0000   160.0000 </r>
       <r>    17.8587     0.0000   160.0000 </r>
       <r>    18.1650     0.0000   160.0000 </r>
       <r>    18.4714     0.0000   160.0000 </r>
       <r>    18.7778     0.0000   160.0000 </r>
       <r>    19.0842     0.0000   160.0000 </r>
      </set>
     </set>
    </array>
   </total>
  </dos>
 </calculation>
 <structure name="finalpos" >
  <crystal>
   <varray name="basis" >
    <v>       3.22479600      -5.64383000       0.03157200 </v>
    <v>       3.22479600       5.64383000       0.03157200 </v>
    <v>      -2.10194600       0.00000000       6.07553700 </v>
   </varray>
   <i name="volume">    221.90106089 </i>
   <varray name="rec_basis" >
    <v>       0.15452516      -0.08859232       0.05346088 </v>
    <v>       0.15452516       0.08859232       0.05346088 </v>
    <v>      -0.00160600       0.00000000       0.16403888 </v>
   </varray>
  </crystal>
  <varray name="positions" >
   <v>       0.61844300       0.12117100       0.11953300 </v>
   <v>       0.12117100       0.61844300       0.61953300 </v>
   <v>       0.96295700       0.79032200       0.11881300 </v>
   <v>       0.79032200       0.96295700       0.61881300 </v>
   <v>       0.43973200       0.26728100       0.59904700 </v>
   <v>       0.26728100       0.43973200       0.09904700 </v>
   <v>       0.07949800       0.91167500       0.49736300 </v>
   <v>       0.56986460       0.41236400       0.98018400 </v>
   <v>       0.73711100       0.25006200       0.49504900 </v>
   <v>       0.41236400       0.57140300       0.48018400 </v>
   <v>       0.91167500       0.07949800       0.99736300 </v>
   <v>       0.25006200       0.73711100       0.99504900 </v>
  </varray>
 </structure>
</modeling>
