   12   12    1    1
  0.1849176E+02  0.6500240E-09  0.6500240E-09  0.6428867E-09  0.5000000E-15
  1.000000000000000E-004
  CAR 
 CGS                                     
  112   42   80
 
  0.0000000E+00  0.0000000E+00  0.0000000E+00  0.1250000E-01
   1      -68.647115
   2      -68.638754
   3      -68.637021
   4      -68.632494
   5      -68.614742
   6      -68.603190
   7      -68.597790
   8      -68.587947
   9      -68.581999
  10      -68.576838
  11      -68.566293
  12      -68.559885
  13      -12.722835
  14      -11.132727
  15      -10.918213
  16      -10.603512
  17      -10.252673
  18      -10.236066
  19       -5.983415
  20       -4.984328
  21       -2.763187
  22       -2.210965
  23       -2.069607
  24       -1.923503
  25       -1.576510
  26       -0.983197
  27       -0.950674
  28       -0.683060
  29       -0.396802
  30       -0.277284
  31       -0.259563
  32       -0.235004
  33       -0.185245
  34       -0.157602
  35       -0.043958
  36        0.035670
  37        1.351606
  38        1.363160
  39        1.415121
  40        1.455025
  41        1.471756
  42        1.473147
  43        1.521881
  44        1.531970
  45        1.577385
  46        1.712696
  47        1.891116
  48        1.927089
  49        2.058617
  50        2.652649
  51        2.728306
  52        3.092567
  53        3.218692
  54        4.004399
  55        4.035299
  56        4.170013
  57        5.542108
  58        6.358232
  59        7.628740
  60        7.985491
  61        8.625226
  62        8.794299
  63        9.580219
  64        9.738658
  65        9.818331
  66       10.421020
  67       10.577968
  68       10.691736
  69       10.711858
  70       11.288272
  71       11.707020
  72       12.387832
  73       12.454051
  74       12.721228
  75       13.320078
  76       13.383225
  77       13.831013
  78       13.884173
  79       14.145730
  80       14.180287
 
  0.2500000E+00  0.7372575E-17  0.1387779E-16  0.2500000E-01
   1      -68.647069
   2      -68.638715
   3      -68.636996
   4      -68.632469
   5      -68.614632
   6      -68.603078
   7      -68.597819
   8      -68.587955
   9      -68.581944
  10      -68.576770
  11      -68.566259
  12      -68.559852
  13      -12.597821
  14      -11.131859
  15      -10.982465
  16      -10.677334
  17      -10.366502
  18      -10.279375
  19       -5.932186
  20       -4.773681
  21       -2.646446
  22       -2.254879
  23       -2.086143
  24       -1.688530
  25       -1.348210
  26       -0.999260
  27       -0.768233
  28       -0.621812
  29       -0.553752
  30       -0.438272
  31       -0.355705
  32       -0.239455
  33       -0.193652
  34       -0.166418
  35       -0.050024
  36        0.044264
  37        1.280119
  38        1.334324
  39        1.353887
  40        1.394178
  41        1.429781
  42        1.472704
  43        1.496514
  44        1.531570
  45        1.725348
  46        1.861557
  47        2.055611
  48        2.092348
  49        2.230897
  50        2.413450
  51        2.557328
  52        2.826616
  53        2.947778
  54        3.242095
  55        3.659117
  56        4.039705
  57        6.174880
  58        6.906824
  59        8.135029
  60        8.269497
  61        8.599341
  62        9.014531
  63        9.243143
  64        9.531121
  65        9.868326
  66       10.378451
  67       10.629620
  68       10.814166
  69       10.939065
  70       11.191661
  71       11.652195
  72       11.771298
  73       12.117882
  74       12.438490
  75       12.620802
  76       13.009150
  77       13.502370
  78       13.874883
  79       14.210923
  80       14.712816
 
  0.5000000E+00  0.1474515E-16  0.2775558E-16  0.1250000E-01
   1      -68.646955
   2      -68.638647
   3      -68.636826
   4      -68.632383
   5      -68.614579
   6      -68.603063
   7      -68.597732
   8      -68.587889
   9      -68.581934
  10      -68.576712
  11      -68.566089
  12      -68.559737
  13      -12.438388
  14      -11.253367
  15      -10.957002
  16      -10.765720
  17      -10.426413
  18      -10.360445
  19       -5.870304
  20       -4.548533
  21       -2.494153
  22       -2.245997
  23       -1.944544
  24       -1.466369
  25       -1.227489
  26       -1.100208
  27       -0.901603
  28       -0.869596
  29       -0.600612
  30       -0.534036
  31       -0.267415
  32       -0.206667
  33       -0.200687
  34       -0.140220
  35       -0.031278
  36        0.084583
  37        1.254507
  38        1.325360
  39        1.349771
  40        1.400997
  41        1.470504
  42        1.477397
  43        1.499904
  44        1.554256
  45        1.753785
  46        1.792712
  47        1.964770
  48        2.148778
  49        2.318464
  50        2.360763
  51        2.558606
  52        2.669992
  53        2.938165
  54        3.077875
  55        3.245363
  56        3.863501
  57        6.390439
  58        7.098516
  59        7.981242
  60        8.203844
  61        8.519557
  62        8.820868
  63        9.329268
  64        9.886169
  65       10.010609
  66       10.521838
  67       10.693033
  68       10.790546
  69       11.141383
  70       11.410301
  71       11.600457
  72       11.775910
  73       11.943372
  74       12.512919
  75       12.785327
  76       12.993596
  77       13.397452
  78       13.544628
  79       13.939714
  80       14.275745
 
  0.7372575E-17  0.2500000E+00  0.1387779E-16  0.2500000E-01
   1      -68.647092
   2      -68.638731
   3      -68.636975
   4      -68.632454
   5      -68.614636
   6      -68.603075
   7      -68.597791
   8      -68.587980
   9      -68.581930
  10      -68.576786
  11      -68.566257
  12      -68.559851
  13      -12.597887
  14      -11.131391
  15      -10.982773
  16      -10.676158
  17      -10.369774
  18      -10.277482
  19       -5.931615
  20       -4.773720
  21       -2.648682
  22       -2.253141
  23       -2.089067
  24       -1.689709
  25       -1.344110
  26       -0.999037
  27       -0.766937
  28       -0.618156
  29       -0.549801
  30       -0.441448
  31       -0.359721
  32       -0.242600
  33       -0.190837
  34       -0.170777
  35       -0.042925
  36        0.040087
  37        1.279875
  38        1.337101
  39        1.355298
  40        1.392348
  41        1.428149
  42        1.472323
  43        1.499445
  44        1.530088
  45        1.725279
  46        1.857161
  47        2.056481
  48        2.095015
  49        2.231479
  50        2.412548
  51        2.556774
  52        2.826252
  53        2.946868
  54        3.241716
  55        3.661360
  56        4.037648
  57        6.176845
  58        6.907073
  59        8.136861
  60        8.269461
  61        8.598793
  62        9.014436
  63        9.245890
  64        9.531773
  65        9.868216
  66       10.377529
  67       10.636804
  68       10.808804
  69       10.935696
  70       11.189748
  71       11.654433
  72       11.769366
  73       12.114990
  74       12.445720
  75       12.614405
  76       13.004082
  77       13.509480
  78       13.901499
  79       14.273042
  80       14.843193
 
  0.2500000E+00  0.2500000E+00  0.0000000E+00  0.2500000E-01
   1      -68.647091
   2      -68.638619
   3      -68.636996
   4      -68.632354
   5      -68.614768
   6      -68.603209
   7      -68.597694
   8      -68.587859
   9      -68.582062
  10      -68.576902
  11      -68.566276
  12      -68.559869
  13      -12.442312
  14      -11.195431
  15      -10.943227
  16      -10.877783
  17      -10.390782
  18      -10.352907
  19       -5.874841
  20       -4.521883
  21       -2.419638
  22       -2.248232
  23       -1.793023
  24       -1.681726
  25       -1.355917
  26       -1.298296
  27       -1.081878
  28       -0.681601
  29       -0.522184
  30       -0.293886
  31       -0.280043
  32       -0.225276
  33       -0.185342
  34       -0.126184
  35       -0.093106
  36        0.082954
  37        1.294402
  38        1.311777
  39        1.415285
  40        1.428559
  41        1.464748
  42        1.482845
  43        1.494386
  44        1.569339
  45        1.670926
  46        1.878343
  47        1.939732
  48        2.134483
  49        2.279108
  50        2.321358
  51        2.560929
  52        2.651390
  53        2.901466
  54        2.944985
  55        3.696134
  56        3.832694
  57        6.177871
  58        6.990492
  59        8.003898
  60        8.333538
  61        8.434164
  62        8.572118
  63        9.148154
  64        9.247806
  65       10.360166
  66       10.496895
  67       10.916000
  68       11.185918
  69       11.329294
  70       11.553861
  71       11.819165
  72       11.960048
  73       12.313694
  74       12.501752
  75       12.711309
  76       12.911604
  77       13.339221
  78       13.448629
  79       14.253756
  80       14.373969
 
  0.5000000E+00  0.2500000E+00 -0.2775558E-16  0.2500000E-01
   1      -68.646859
   2      -68.638694
   3      -68.636736
   4      -68.632478
   5      -68.614546
   6      -68.602939
   7      -68.597781
   8      -68.587902
   9      -68.581873
  10      -68.576689
  11      -68.566123
  12      -68.559741
  13      -12.442363
  14      -11.358460
  15      -10.938127
  16      -10.738031
  17      -10.390968
  18      -10.272556
  19       -5.946965
  20       -4.642401
  21       -2.390511
  22       -2.227870
  23       -2.056518
  24       -1.640343
  25       -1.369317
  26       -1.281748
  27       -1.023089
  28       -0.509537
  29       -0.485292
  30       -0.329464
  31       -0.282097
  32       -0.211286
  33       -0.150112
  34       -0.129905
  35       -0.010720
  36        0.114160
  37        1.246968
  38        1.317931
  39        1.381103
  40        1.436912
  41        1.461988
  42        1.493025
  43        1.498009
  44        1.550473
  45        1.750555
  46        1.828825
  47        1.919961
  48        2.134635
  49        2.220304
  50        2.384276
  51        2.562579
  52        2.789786
  53        2.978432
  54        3.309705
  55        3.600552
  56        3.749765
  57        6.092497
  58        6.940107
  59        7.611408
  60        8.068721
  61        8.414715
  62        8.615250
  63        8.984006
  64        9.153719
  65       10.087518
  66       10.332493
  67       10.737338
  68       11.105961
  69       11.457759
  70       11.592891
  71       11.803738
  72       12.083315
  73       12.475421
  74       12.916064
  75       13.039488
  76       13.830764
  77       14.194080
  78       14.660613
  79       15.436987
  80       15.640318
 
 -0.2500000E+00  0.2500000E+00  0.0000000E+00  0.2500000E-01
   1      -68.647082
   2      -68.638696
   3      -68.636988
   4      -68.632434
   5      -68.614567
   6      -68.603007
   7      -68.597790
   8      -68.587953
   9      -68.581886
  10      -68.576726
  11      -68.566259
  12      -68.559853
  13      -12.600612
  14      -11.255644
  15      -10.991358
  16      -10.569699
  17      -10.369969
  18      -10.180629
  19       -6.008961
  20       -4.894898
  21       -2.647201
  22       -2.314530
  23       -1.974595
  24       -1.648343
  25       -1.495969
  26       -1.181445
  27       -0.789754
  28       -0.584402
  29       -0.446788
  30       -0.335638
  31       -0.292014
  32       -0.228950
  33       -0.174058
  34       -0.130208
  35       -0.006294
  36        0.070637
  37        1.259429
  38        1.321182
  39        1.367686
  40        1.422642
  41        1.430235
  42        1.476513
  43        1.503748
  44        1.546037
  45        1.727489
  46        1.813193
  47        1.993563
  48        2.072029
  49        2.416345
  50        2.461827
  51        2.527840
  52        2.874904
  53        3.141076
  54        3.226734
  55        3.783042
  56        4.066755
  57        5.983971
  58        6.689930
  59        7.534189
  60        8.222649
  61        8.621361
  62        8.913371
  63        9.308655
  64        9.433603
  65        9.805823
  66       10.274765
  67       10.545353
  68       10.832830
  69       10.972981
  70       11.375830
  71       11.471718
  72       11.729916
  73       12.100836
  74       12.664098
  75       12.944989
  76       13.095201
  77       13.351559
  78       13.517473
  79       14.476987
  80       14.755013
 
  0.1474515E-16  0.5000000E+00  0.2775558E-16  0.1250000E-01
   1      -68.646919
   2      -68.638641
   3      -68.636858
   4      -68.632379
   5      -68.614622
   6      -68.603022
   7      -68.597727
   8      -68.587899
   9      -68.581877
  10      -68.576774
  11      -68.566146
  12      -68.559683
  13      -12.438550
  14      -11.253326
  15      -10.956696
  16      -10.763200
  17      -10.432479
  18      -10.357318
  19       -5.869156
  20       -4.548758
  21       -2.497422
  22       -2.246361
  23       -1.947457
  24       -1.465237
  25       -1.224064
  26       -1.101892
  27       -0.899947
  28       -0.864899
  29       -0.596950
  30       -0.530028
  31       -0.274115
  32       -0.204998
  33       -0.201621
  34       -0.146895
  35       -0.029195
  36        0.083827
  37        1.255067
  38        1.329841
  39        1.348950
  40        1.397465
  41        1.472042
  42        1.479111
  43        1.501566
  44        1.551450
  45        1.751544
  46        1.788557
  47        1.969378
  48        2.144673
  49        2.322180
  50        2.363881
  51        2.552725
  52        2.670559
  53        2.933894
  54        3.080880
  55        3.249537
  56        3.860103
  57        6.392707
  58        7.098359
  59        7.981892
  60        8.205389
  61        8.531184
  62        8.819969
  63        9.324306
  64        9.888957
  65       10.008703
  66       10.516693
  67       10.691291
  68       10.794246
  69       11.140928
  70       11.401589
  71       11.610731
  72       11.771451
  73       11.945304
  74       12.489999
  75       12.817587
  76       13.040161
  77       13.524262
  78       13.665349
  79       14.553524
  80       15.253284
 
  0.2500000E+00  0.5000000E+00 -0.2775558E-16  0.2500000E-01
   1      -68.646861
   2      -68.638639
   3      -68.636776
   4      -68.632457
   5      -68.614570
   6      -68.602941
   7      -68.597786
   8      -68.587911
   9      -68.581839
  10      -68.576725
  11      -68.566156
  12      -68.559702
  13      -12.442465
  14      -11.358187
  15      -10.937870
  16      -10.737597
  17      -10.393188
  18      -10.271300
  19       -5.946454
  20       -4.642365
  21       -2.393167
  22       -2.226715
  23       -2.061788
  24       -1.638329
  25       -1.360776
  26       -1.283670
  27       -1.023294
  28       -0.511027
  29       -0.482072
  30       -0.329358
  31       -0.279637
  32       -0.215048
  33       -0.150883
  34       -0.133009
  35       -0.008734
  36        0.113551
  37        1.247806
  38        1.315511
  39        1.384909
  40        1.438622
  41        1.464020
  42        1.490876
  43        1.496924
  44        1.548095
  45        1.746655
  46        1.827306
  47        1.924631
  48        2.134742
  49        2.222665
  50        2.384700
  51        2.557982
  52        2.790162
  53        2.977628
  54        3.311121
  55        3.602573
  56        3.747598
  57        6.093820
  58        6.941124
  59        7.611177
  60        8.068200
  61        8.414393
  62        8.618897
  63        8.983213
  64        9.152082
  65       10.081581
  66       10.344637
  67       10.734536
  68       11.109267
  69       11.457117
  70       11.577645
  71       11.778549
  72       12.030164
  73       12.518765
  74       12.685920
  75       12.910916
  76       13.213216
  77       14.228025
  78       14.779133
  79       15.245088
  80       15.903502
 
  0.5000000E+00  0.5000000E+00  0.0000000E+00  0.1250000E-01
   1      -68.646697
   2      -68.638438
   3      -68.636645
   4      -68.632260
   5      -68.614432
   6      -68.602875
   7      -68.597568
   8      -68.587711
   9      -68.581775
  10      -68.576605
  11      -68.565931
  12      -68.559522
  13      -12.434034
  14      -11.505530
  15      -10.913121
  16      -10.617313
  17      -10.401791
  18      -10.199549
  19       -6.025331
  20       -4.810223
  21       -2.309521
  22       -2.266101
  23       -2.092819
  24       -1.706065
  25       -1.251894
  26       -1.111366
  27       -0.841227
  28       -0.780133
  29       -0.727621
  30       -0.241211
  31       -0.197255
  32       -0.175144
  33       -0.151703
  34       -0.041036
  35        0.000684
  36        0.183480
  37        1.265048
  38        1.320010
  39        1.377736
  40        1.412823
  41        1.431801
  42        1.495778
  43        1.506954
  44        1.552444
  45        1.787197
  46        1.849841
  47        1.993882
  48        2.150019
  49        2.250548
  50        2.340153
  51        2.559246
  52        2.759856
  53        2.775115
  54        3.366009
  55        3.765105
  56        4.004278
  57        5.858873
  58        6.767092
  59        7.083462
  60        8.411131
  61        8.559804
  62        8.770774
  63        9.145746
  64        9.245006
  65        9.958779
  66       10.285671
  67       10.734856
  68       10.826441
  69       10.873003
  70       11.273604
  71       11.759963
  72       11.914173
  73       11.972904
  74       12.362499
  75       12.539469
  76       13.456562
  77       14.286773
  78       14.674726
  79       16.744935
  80       16.758593
 
 -0.2168404E-18 -0.2168404E-18  0.2000000E+00  0.2500000E-01
   1      -68.647118
   2      -68.638723
   3      -68.637023
   4      -68.632463
   5      -68.614662
   6      -68.603103
   7      -68.597814
   8      -68.587977
   9      -68.581971
  10      -68.576811
  11      -68.566295
  12      -68.559888
  13      -12.619696
  14      -11.427980
  15      -10.779748
  16      -10.608659
  17      -10.251530
  18      -10.238034
  19       -5.830324
  20       -5.047740
  21       -2.602231
  22       -2.372459
  23       -1.962654
  24       -1.776423
  25       -1.445233
  26       -1.124649
  27       -1.063751
  28       -0.770673
  29       -0.468504
  30       -0.290197
  31       -0.239239
  32       -0.233645
  33       -0.188912
  34       -0.146817
  35       -0.020591
  36        0.026939
  37        1.334584
  38        1.382117
  39        1.418452
  40        1.439942
  41        1.462187
  42        1.467287
  43        1.515120
  44        1.544777
  45        1.634082
  46        1.760391
  47        1.787196
  48        1.947981
  49        2.088166
  50        2.659049
  51        2.719957
  52        3.196198
  53        3.254491
  54        3.519187
  55        3.893062
  56        3.976119
  57        6.049775
  58        6.417250
  59        7.824412
  60        7.907927
  61        8.369577
  62        8.820715
  63        9.777396
  64        9.798254
  65       10.063856
  66       10.583189
  67       10.645260
  68       10.816039
  69       10.854304
  70       11.493855
  71       11.554467
  72       12.023669
  73       12.582456
  74       12.773247
  75       12.911654
  76       13.200464
  77       13.531372
  78       13.820146
  79       14.196498
  80       14.703500
 
  0.2500000E+00  0.1517883E-17  0.2000000E+00  0.2500000E-01
   1      -68.647054
   2      -68.638710
   3      -68.636960
   4      -68.632448
   5      -68.614708
   6      -68.603148
   7      -68.597765
   8      -68.587932
   9      -68.581977
  10      -68.576827
  11      -68.566237
  12      -68.559819
  13      -12.460534
  14      -11.469938
  15      -10.864572
  16      -10.690957
  17      -10.373412
  18      -10.246838
  19       -5.766476
  20       -4.804637
  21       -2.445337
  22       -2.234336
  23       -1.850542
  24       -1.714093
  25       -1.436995
  26       -1.186758
  27       -0.889061
  28       -0.746758
  29       -0.601528
  30       -0.524103
  31       -0.308989
  32       -0.242022
  33       -0.173431
  34       -0.120102
  35       -0.055326
  36        0.064282
  37        1.302092
  38        1.338357
  39        1.370354
  40        1.429048
  41        1.448144
  42        1.479263
  43        1.522608
  44        1.546213
  45        1.643422
  46        1.872567
  47        1.975148
  48        2.048089
  49        2.195776
  50        2.473589
  51        2.596830
  52        2.838320
  53        2.964614
  54        3.133861
  55        3.566809
  56        3.723669
  57        6.446714
  58        6.958585
  59        8.172721
  60        8.247255
  61        8.832426
  62        9.130381
  63        9.462909
  64        9.798275
  65       10.090210
  66       10.300617
  67       10.736647
  68       11.076233
  69       11.288462
  70       11.420902
  71       11.626824
  72       11.729705
  73       12.084512
  74       12.269438
  75       12.540412
  76       12.658632
  77       12.958444
  78       13.058802
  79       13.643230
  80       14.693363
 
  0.5000000E+00  0.9107298E-17  0.2000000E+00  0.2500000E-01
   1      -68.646880
   2      -68.638631
   3      -68.636691
   4      -68.632466
   5      -68.614561
   6      -68.602990
   7      -68.597682
   8      -68.587852
   9      -68.581888
  10      -68.576718
  11      -68.566160
  12      -68.559765
  13      -12.358224
  14      -11.416757
  15      -10.953452
  16      -10.686199
  17      -10.477975
  18      -10.336151
  19       -5.751573
  20       -4.722439
  21       -2.522603
  22       -2.186267
  23       -1.951873
  24       -1.536955
  25       -1.298886
  26       -1.098721
  27       -0.875892
  28       -0.755999
  29       -0.548731
  30       -0.446303
  31       -0.286559
  32       -0.178270
  33       -0.143099
  34       -0.104454
  35       -0.045345
  36        0.026965
  37        1.271833
  38        1.298528
  39        1.354057
  40        1.429478
  41        1.453727
  42        1.480216
  43        1.501884
  44        1.587954
  45        1.719785
  46        1.934091
  47        2.075648
  48        2.146816
  49        2.266657
  50        2.402597
  51        2.568190
  52        2.598051
  53        2.899441
  54        3.008018
  55        3.354633
  56        3.900107
  57        6.370364
  58        6.897953
  59        7.575650
  60        8.084271
  61        8.548342
  62        8.797300
  63        9.278038
  64        9.631923
  65        9.931199
  66       10.279453
  67       10.654834
  68       10.928584
  69       10.964534
  70       11.280717
  71       11.524835
  72       11.788777
  73       12.246101
  74       12.547897
  75       13.093435
  76       13.519130
  77       14.298183
  78       14.549813
  79       15.123059
  80       16.270887
 
 -0.2500000E+00 -0.4098284E-16  0.2000000E+00  0.2500000E-01
   1      -68.647114
   2      -68.638699
   3      -68.637016
   4      -68.632438
   5      -68.614664
   6      -68.603111
   7      -68.597800
   8      -68.587964
   9      -68.581994
  10      -68.576823
  11      -68.566283
  12      -68.559886
  13      -12.543383
  14      -11.339989
  15      -10.874282
  16      -10.607165
  17      -10.399333
  18      -10.284682
  19       -5.823775
  20       -4.975421
  21       -2.665674
  22       -2.453926
  23       -2.039433
  24       -1.577296
  25       -1.174234
  26       -0.982853
  27       -0.792946
  28       -0.653997
  29       -0.515476
  30       -0.390610
  31       -0.268195
  32       -0.254424
  33       -0.188160
  34       -0.146102
  35       -0.047596
  36        0.020033
  37        1.288200
  38        1.312454
  39        1.387698
  40        1.410664
  41        1.436366
  42        1.457224
  43        1.492133
  44        1.566426
  45        1.689013
  46        1.915451
  47        1.988599
  48        2.143722
  49        2.334589
  50        2.564539
  51        2.617410
  52        2.828252
  53        2.974463
  54        3.247275
  55        3.679284
  56        3.943448
  57        6.182390
  58        6.639026
  59        7.764032
  60        7.973871
  61        8.219458
  62        8.565935
  63        9.379079
  64        9.578397
  65        9.909470
  66       10.250836
  67       10.540065
  68       10.789688
  69       10.843481
  70       11.071668
  71       11.562536
  72       12.020801
  73       12.528317
  74       12.751364
  75       12.947225
  76       13.310492
  77       13.412203
  78       13.737887
  79       13.849297
  80       14.728161
 
  0.1517883E-17  0.2500000E+00  0.2000000E+00  0.2500000E-01
   1      -68.647055
   2      -68.638708
   3      -68.636958
   4      -68.632449
   5      -68.614701
   6      -68.603154
   7      -68.597773
   8      -68.587926
   9      -68.581986
  10      -68.576817
  11      -68.566226
  12      -68.559831
  13      -12.460644
  14      -11.469681
  15      -10.865404
  16      -10.688887
  17      -10.374704
  18      -10.247092
  19       -5.765720
  20       -4.804838
  21       -2.447013
  22       -2.234093
  23       -1.853150
  24       -1.713986
  25       -1.432788
  26       -1.189911
  27       -0.889009
  28       -0.737192
  29       -0.605924
  30       -0.522309
  31       -0.313052
  32       -0.245831
  33       -0.171887
  34       -0.120658
  35       -0.049782
  36        0.061062
  37        1.303489
  38        1.336209
  39        1.370376
  40        1.432790
  41        1.446284
  42        1.481785
  43        1.520697
  44        1.547026
  45        1.642230
  46        1.866510
  47        1.980627
  48        2.046779
  49        2.195945
  50        2.474447
  51        2.595783
  52        2.839873
  53        2.961061
  54        3.134666
  55        3.567877
  56        3.723292
  57        6.448220
  58        6.960133
  59        8.175462
  60        8.245571
  61        8.832469
  62        9.129742
  63        9.467638
  64        9.796599
  65       10.083172
  66       10.301662
  67       10.736304
  68       11.078416
  69       11.291763
  70       11.422544
  71       11.632865
  72       11.725515
  73       12.081971
  74       12.260200
  75       12.538559
  76       12.659131
  77       12.950052
  78       13.060888
  79       13.653296
  80       14.695566
 
  0.2500000E+00  0.2500000E+00  0.2000000E+00  0.2500000E-01
   1      -68.646963
   2      -68.638564
   3      -68.636865
   4      -68.632297
   5      -68.614543
   6      -68.602985
   7      -68.597648
   8      -68.587813
   9      -68.581853
  10      -68.576689
  11      -68.566144
  12      -68.559734
  13      -12.328627
  14      -11.478978
  15      -10.863178
  16      -10.858041
  17      -10.406281
  18      -10.289827
  19       -5.747547
  20       -4.691912
  21       -2.242778
  22       -2.139475
  23       -1.928401
  24       -1.853032
  25       -1.453358
  26       -1.394165
  27       -1.042166
  28       -0.517015
  29       -0.461291
  30       -0.348910
  31       -0.245495
  32       -0.218476
  33       -0.157126
  34       -0.111279
  35       -0.091202
  36        0.082032
  37        1.262335
  38        1.349052
  39        1.396174
  40        1.436150
  41        1.453792
  42        1.510550
  43        1.536676
  44        1.545555
  45        1.752677
  46        1.816889
  47        2.039889
  48        2.134591
  49        2.287184
  50        2.310348
  51        2.521114
  52        2.769355
  53        2.896133
  54        3.260887
  55        3.497588
  56        3.797772
  57        6.189344
  58        6.842847
  59        7.829634
  60        8.045491
  61        8.188901
  62        8.727910
  63        9.152576
  64        9.309219
  65       10.220648
  66       10.434994
  67       10.594736
  68       11.008242
  69       11.233686
  70       11.491422
  71       11.809898
  72       12.169854
  73       12.210407
  74       12.576545
  75       12.694981
  76       13.112363
  77       13.419428
  78       13.877729
  79       14.004123
  80       14.522708
 
  0.5000000E+00  0.2500000E+00  0.2000000E+00  0.2500000E-01
   1      -68.646809
   2      -68.638697
   3      -68.636666
   4      -68.632478
   5      -68.614571
   6      -68.602950
   7      -68.597759
   8      -68.587868
   9      -68.581861
  10      -68.576745
  11      -68.566110
  12      -68.559715
  13      -12.375167
  14      -11.477490
  15      -10.937147
  16      -10.652997
  17      -10.421552
  18      -10.305901
  19       -5.800210
  20       -4.836560
  21       -2.527264
  22       -2.241909
  23       -1.872103
  24       -1.644576
  25       -1.506321
  26       -1.312775
  27       -0.901276
  28       -0.532936
  29       -0.377868
  30       -0.349091
  31       -0.221871
  32       -0.176131
  33       -0.157435
  34       -0.076342
  35       -0.024571
  36        0.080561
  37        1.189839
  38        1.364569
  39        1.398397
  40        1.442038
  41        1.463785
  42        1.508904
  43        1.520796
  44        1.586228
  45        1.742463
  46        1.817992
  47        2.035064
  48        2.235863
  49        2.268404
  50        2.362935
  51        2.488574
  52        2.669691
  53        3.052305
  54        3.408827
  55        3.726132
  56        3.862248
  57        5.936285
  58        6.615055
  59        7.352763
  60        7.944002
  61        8.068767
  62        8.727132
  63        8.904949
  64        9.137558
  65        9.843640
  66       10.326432
  67       10.560962
  68       10.929711
  69       11.215925
  70       11.420798
  71       11.745612
  72       12.004689
  73       12.498406
  74       12.834050
  75       13.208604
  76       14.178296
  77       14.716688
  78       15.094339
  79       15.917005
  80       16.568974
 
 -0.2500000E+00  0.2500000E+00  0.2000000E+00  0.2500000E-01
   1      -68.647018
   2      -68.638752
   3      -68.636958
   4      -68.632496
   5      -68.614640