 vasp.5.3.3 18Dez12 (build Nov 13 2015 09:58:40) complex                        
  
 executed on             LinuxIFC date 2017.10.18  13:22:27
 running on   48 total cores
 distrk:  each k-point on   16 cores,    3 groups
 distr:  one band on NCORES_PER_BAND=   1 cores,   16 groups


--------------------------------------------------------------------------------------------------------


 INCAR:
 POTCAR:    PAW_PBE Cu_pv 06Sep2000               
 POTCAR:    PAW_PBE Ge 05Jan2001                  
 POTCAR:    PAW_PBE S 17Jan2003                   

 ----------------------------------------------------------------------------- 
|                                                                             |
|           W    W    AA    RRRRR   N    N  II  N    N   GGGG   !!!           |
|           W    W   A  A   R    R  NN   N  II  NN   N  G    G  !!!           |
|           W    W  A    A  R    R  N N  N  II  N N  N  G       !!!           |
|           W WW W  AAAAAA  RRRRR   N  N N  II  N  N N  G  GGG   !            |
|           WW  WW  A    A  R   R   N   NN  II  N   NN  G    G                |
|           W    W  A    A  R    R  N    N  II  N    N   GGGG   !!!           |
|                                                                             |
|      For optimal performance we recommend that you set                      |
|        NPAR = 4 - approx SQRT( number of cores)                             |
|      (number of cores/NPAR must be integer)                                 |
|      This setting will greatly improve the performance of VASP for DFT.     |
|      The default NPAR=number of cores might be grossly inefficient          |
|      on modern multi-core architectures or massively parallel machines.     |
|      Do your own testing.                                                   |
|      Unfortunately you need to use the default for hybrid, GW and RPA       |
|      calculations.                                                          |
|                                                                             |
 ----------------------------------------------------------------------------- 


 ----------------------------------------------------------------------------- 
|                                                                             |
|           W    W    AA    RRRRR   N    N  II  N    N   GGGG   !!!           |
|           W    W   A  A   R    R  NN   N  II  NN   N  G    G  !!!           |
|           W    W  A    A  R    R  N N  N  II  N N  N  G       !!!           |
|           W WW W  AAAAAA  RRRRR   N  N N  II  N  N N  G  GGG   !            |
|           WW  WW  A    A  R   R   N   NN  II  N   NN  G    G                |
|           W    W  A    A  R    R  N    N  II  N    N   GGGG   !!!           |
|                                                                             |
|      You have enabled k-point parallelism (KPAR>1).                         |
|      This developmental code was originally  written by Paul Kent at ORNL,  |
|      and carefully double checked in Vienna.                                |
|      GW as well as linear response parallelism added by Martijn Marsman     |
|      and Georg Kresse.                                                      |
|      Carefully verify results versus KPAR=1.                                |
|      Report problems to Paul Kent and Vienna.                               |
|                                                                             |
 ----------------------------------------------------------------------------- 

 POTCAR:    PAW_PBE Cu_pv 06Sep2000               
   VRHFIN =Cu: d10 p1                                                           
   LEXCH  = PE                                                                  
   EATOM  =  4120.1201 eV,  302.8203 Ry                                         
                                                                                
   TITEL  = PAW_PBE Cu_pv 06Sep2000                                             
   LULTRA =        F    use ultrasoft PP ?                                      
   IUNSCR =        1    unscreen: 0-lin 1-nonlin 2-no                           
   RPACOR =    1.500    partial core radius                                     
   POMASS =   63.546; ZVAL   =   17.000    mass and valenz                      
   RCORE  =    2.000    outmost cutoff radius                                   
   RWIGS  =    2.000; RWIGS  =    1.058    wigner-seitz radius (au A)           
   ENMAX  =  368.648; ENMIN  =  276.486 eV                                      
   RCLOC  =    1.304    cutoff for local pot                                    
   LCOR   =        T    correct aug charges                                     
   LPAW   =        T    paw PP                                                  
   EAUG   =  758.233                                                            
   DEXC   =    0.000                                                            
   RMAX   =    2.046    core radius for proj-oper                               
   RAUG   =    1.300    factor for augmentation sphere                          
   RDEP   =    2.025    radius for radial grids                                 
   RDEPT  =    1.558    core radius for aug-charge                              
                                                                                
   Atomic configuration                                                         
    8 entries                                                                   
     n  l   j            E        occ.                                          
     1  0  0.50     -8850.2467   2.0000                                         
     2  0  0.50     -1062.3498   2.0000                                         
     2  1  1.50      -916.8226   6.0000                                         
     3  0  0.50      -114.6929   2.0000                                         
     3  1  1.50       -72.1325   6.0000                                         
     3  2  2.50        -5.0394  10.0000                                         
     4  0  0.50        -4.6097   1.0000                                         
     4  3  2.50        -1.3606   0.0000                                         
   Description                                                                  
     l       E           TYP  RCUT    TYP  RCUT                                 
     1    -72.1324777     23  1.700                                             
     1     -1.3605826     23  1.700                                             
     2     -5.0393776     23  2.000                                             
     2     -6.3999602     23  2.000                                             
     0     -4.6097062     23  1.800                                             
     0     14.1620818     23  1.800                                             
  local pseudopotential read in
  partial core-charges read in
  partial kinetic energy density read in
  atomic valenz-charges read in
  non local Contribution for L=           1  read in
    real space projection operators read in
  non local Contribution for L=           1  read in
    real space projection operators read in
  non local Contribution for L=           2  read in
    real space projection operators read in
  non local Contribution for L=           2  read in
    real space projection operators read in
  non local Contribution for L=           0  read in
    real space projection operators read in
  non local Contribution for L=           0  read in
    real space projection operators read in
    PAW grid and wavefunctions read in
 
   number of l-projection  operators is LMAX  =           6
   number of lm-projection operators is LMMAX =          18
 
 POTCAR:    PAW_PBE Ge 05Jan2001                  
   VRHFIN =Ge: s2p2                                                             
   LEXCH  = PE                                                                  
   EATOM  =   104.9960 eV,    7.7170 Ry                                         
                                                                                
   TITEL  = PAW_PBE Ge 05Jan2001                                                
   LULTRA =        F    use ultrasoft PP ?                                      
   IUNSCR =        1    unscreen: 0-lin 1-nonlin 2-no                           
   RPACOR =    2.170    partial core radius                                     
   POMASS =   72.610; ZVAL   =    4.000    mass and valenz                      
   RCORE  =    2.300    outmost cutoff radius                                   
   RWIGS  =    2.300; RWIGS  =    1.217    wigner-seitz radius (au A)           
   ENMAX  =  173.807; ENMIN  =  130.355 eV                                      
   ICORE  =        3    local potential                                         
   LCOR   =        T    correct aug charges                                     
   LPAW   =        T    paw PP                                                  
   EAUG   =  385.843                                                            
   DEXC   =    0.000                                                            
   RMAX   =    2.342    core radius for proj-oper                               
   RAUG   =    1.300    factor for augmentation sphere                          
   RDEP   =    2.318    radius for radial grids                                 
   RDEPT  =    2.103    core radius for aug-charge                              
                                                                                
   Atomic configuration                                                         
   10 entries                                                                   
     n  l   j            E        occ.                                          
     1  0  0.50    -10959.8463   2.0000                                         
     2  0  0.50     -1371.6056   2.0000                                         
     2  1  1.50     -1198.4791   6.0000                                         
     3  0  0.50      -168.4733   2.0000                                         
     3  1  1.50      -115.6019   6.0000                                         
     3  2  2.50       -29.3106  10.0000                                         
     4  0  0.50       -11.7309   2.0000                                         
     4  1  0.50        -3.8952   2.0000                                         
     4  2  1.50        -4.0817   0.0000                                         
     4  3  2.50        -4.0817   0.0000                                         
   Description                                                                  
     l       E           TYP  RCUT    TYP  RCUT                                 
     0    -11.7309493     23  2.300                                             
     0     -7.4578696     23  2.300                                             
     1     -3.8952261     23  2.300                                             
     1      6.1178114     23  2.300                                             
     2     -4.0817478     23  2.300                                             
     3     -1.3605826      7  2.300                                             
  local pseudopotential read in
  partial core-charges read in
  partial kinetic energy density read in
  atomic valenz-charges read in
  non local Contribution for L=           0  read in
    real space projection operators read in
  non local Contribution for L=           0  read in
    real space projection operators read in
  non local Contribution for L=           1  read in
    real space projection operators read in
  non local Contribution for L=           1  read in
    real space projection operators read in
  non local Contribution for L=           2  read in
    real space projection operators read in
    PAW grid and wavefunctions read in
 
   number of l-projection  operators is LMAX  =           5
   number of lm-projection operators is LMMAX =          13
 
 POTCAR:    PAW_PBE S 17Jan2003                   
   VRHFIN =S : s2p4                                                             
   LEXCH  = PE                                                                  
   EATOM  =   276.8230 eV,   20.3459 Ry                                         
                                                                                
   TITEL  = PAW_PBE S 17Jan2003                                                 
   LULTRA =        F    use ultrasoft PP ?                                      
   IUNSCR =        1    unscreen: 0-lin 1-nonlin 2-no                           
   RPACOR =    1.500    partial core radius                                     
   POMASS =   32.066; ZVAL   =    6.000    mass and valenz                      
   RCORE  =    1.900    outmost cutoff radius                                   
   RWIGS  =    2.200; RWIGS  =    1.164    wigner-seitz radius (au A)           
   ENMAX  =  280.000; ENMIN  =  194.016 eV                                      
   ICORE  =        2    local potential                                         
   LCOR   =        T    correct aug charges                                     
   LPAW   =        T    paw PP                                                  
   EAUG   =  335.092                                                            
   DEXC   =     .000                                                            
   RMAX   =    2.867    core radius for proj-oper                               
   RAUG   =    1.300    factor for augmentation sphere                          
   RDEP   =    1.954    radius for radial grids                                 
   QCUT   =   -4.360; QGAM   =    8.721    optimization parameters              
                                                                                
   Description                                                                  
     l     E      TYP  RCUT    TYP  RCUT                                        
     0   .000     23  1.900                                                     
     0   .000     23  1.900                                                     
     1   .000     23  1.900                                                     
     1   .000     23  1.900                                                     
     2   .000     23  1.900                                                     
  local pseudopotential read in
  partial core-charges read in
  atomic valenz-charges read in
  non local Contribution for L=           0  read in
    real space projection operators read in
  non local Contribution for L=           0  read in
    real space projection operators read in
  non local Contribution for L=           1  read in
    real space projection operators read in
  non local Contribution for L=           1  read in
    real space projection operators read in
    PAW grid and wavefunctions read in
 
   number of l-projection  operators is LMAX  =           4
   number of lm-projection operators is LMMAX =           8
 
  PAW_PBE Cu_pv 06Sep2000               :
 energy of atom  1       EATOM=-4120.1201
 kinetic energy error for atom=    0.0996 (will be added to EATOM!!)
  PAW_PBE Ge 05Jan2001                  :
 energy of atom  2       EATOM= -104.9960
 kinetic energy error for atom=    0.0003 (will be added to EATOM!!)
  PAW_PBE S 17Jan2003                   :
 energy of atom  3       EATOM= -276.8230
 kinetic energy error for atom=    0.0046 (will be added to EATOM!!)
 
 
 POSCAR: Cu Ge S                                 
  positions in direct lattice
  No initial velocities read in
 exchange correlation table for  LEXCH =        8
   RHO(1)=    0.500       N(1)  =     2000
   RHO(2)=  100.500       N(2)  =     4000
 


--------------------------------------------------------------------------------------------------------


 ion  position               nearest neighbor table
   1  0.618  0.121  0.120-  11 2.29   9 2.30  12 2.30   8 2.35
   2  0.121  0.618  0.620-  12 2.29   7 2.29   9 2.30  10 2.35
   3  0.963  0.790  0.119-  11 2.30  12 2.30   7 2.31   8 2.36
   4  0.790  0.963  0.619-   9 2.29   7 2.30  11 2.31  10 2.36
   5  0.440  0.267  0.599-   9 2.19   7 2.19  10 2.31   8 2.33
   6  0.267  0.440  0.099-  11 2.19  12 2.19   8 2.31  10 2.33
   7  0.079  0.912  0.497-   5 2.19   2 2.29   4 2.30   3 2.31
   8  0.571  0.412  0.980-   6 2.31   5 2.33   1 2.35   3 2.36
   9  0.737  0.250  0.497-   5 2.19   4 2.29   1 2.30   2 2.30
  10  0.412  0.571  0.480-   5 2.31   6 2.33   2 2.35   4 2.36
  11  0.912  0.079  0.997-   6 2.19   1 2.29   3 2.30   4 2.31
  12  0.250  0.737  0.995-   6 2.19   2 2.29   3 2.30   1 2.30
 
  Warning from LATTYP: Got some problem with cell dimensions!
  Tried to take original basis but could not verify dimensions!
  LATTYP: Found a base centered monoclinic cell.
 ALAT       =     6.4499010947
 B/A-ratio  =     1.7500516418
 C/A-ratio  =     1.9305142024
 COS(beta)  =    -0.4326083233
  
  Lattice vectors:
  
 A1 = (   3.2247960000,   5.6438300000,   0.0315720000)
 A2 = (   3.2247960000,  -5.6438300000,   0.0315720000)
 A3 = ( -10.7972380000,   0.0000000000,  -6.2018250000)


Analysis of symmetry for initial positions (statically):
=====================================================================
 Subroutine PRICEL returns:
 Original cell was already a primitive cell.
 

 Routine SETGRP: Setting up the symmetry group for a 
 base centered monoclinic supercell.


 Subroutine GETGRP returns: Found  1 space group operations
 (whereof  1 operations were pure point group operations)
 out of a pool of  4 trial point group operations.


The static configuration has the point symmetry C_1 .


Analysis of symmetry for dynamics (positions and initial velocities):
=====================================================================
 Subroutine PRICEL returns:
 Original cell was already a primitive cell.
 

 Routine SETGRP: Setting up the symmetry group for a 
 base centered monoclinic supercell.


 Subroutine GETGRP returns: Found  1 space group operations
 (whereof  1 operations were pure point group operations)
 out of a pool of  4 trial point group operations.


The dynamic configuration has the point symmetry C_1 .


 irot  :   1
 --------------------------------------------------------------------
 isymop:   1   0   0
           0   1   0
           0   0   1

 gtrans:     0.0000000     0.0000000     0.0000000

 ptrans:     0.0000000     0.0000000     0.0000000
 rotmap:
 (   1->   1)  (   2->   2)  (   3->   3)  (   4->   4)  (   5->   5) 
 (   6->   6)  (   7->   7)  (   8->   8)  (   9->   9)  (  10->  10) 
 (  11->  11)  (  12->  12) 
 
 
 KPOINTS: pymatgen 4.7.6+ generated KPOINTS with g

Automatic generation of k-mesh.
Space group operators:
 irot       det(A)        alpha          n_x          n_y          n_z        tau_x        tau_y        tau_z
    1     1.000000     0.000000     1.000000     0.000000     0.000000     0.000000     0.000000     0.000000
 
 Subroutine IBZKPT returns following result:
 ===========================================
 
 Found     42 irreducible k-points:
 
 Following reciprocal coordinates:
            Coordinates               Weight
  0.000000  0.000000  0.000000      1.000000
  0.250000  0.000000  0.000000      2.000000
  0.500000  0.000000  0.000000      1.000000
  0.000000  0.250000  0.000000      2.000000
  0.250000  0.250000  0.000000      2.000000
  0.500000  0.250000 -0.000000      2.000000
 -0.250000  0.250000  0.000000      2.000000
  0.000000  0.500000  0.000000      1.000000
  0.250000  0.500000 -0.000000      2.000000
  0.500000  0.500000  0.000000      1.000000
 -0.000000 -0.000000  0.200000      2.000000
  0.250000  0.000000  0.200000      2.000000
  0.500000  0.000000  0.200000      2.000000
 -0.250000 -0.000000  0.200000      2.000000
  0.000000  0.250000  0.200000      2.000000
  0.250000  0.250000  0.200000      2.000000
  0.500000  0.250000  0.200000      2.000000
 -0.250000  0.250000  0.200000      2.000000
  0.000000  0.500000  0.200000      2.000000
  0.250000  0.500000  0.200000      2.000000
  0.500000  0.500000  0.200000      2.000000
 -0.250000  0.500000  0.200000      2.000000
 -0.000000 -0.250000  0.200000      2.000000
  0.250000 -0.250000  0.200000      2.000000
  0.500000 -0.250000  0.200000      2.000000
 -0.250000 -0.250000  0.200000      2.000000
 -0.000000 -0.000000  0.400000      2.000000
  0.250000  0.000000  0.400000      2.000000
  0.500000  0.000000  0.400000      2.000000
 -0.250000  0.000000  0.400000      2.000000
  0.000000  0.250000  0.400000      2.000000
  0.250000  0.250000  0.400000      2.000000
  0.500000  0.250000  0.400000      2.000000
 -0.250000  0.250000  0.400000      2.000000
  0.000000  0.500000  0.400000      2.000000
  0.250000  0.500000  0.400000      2.000000
  0.500000  0.500000  0.400000      2.000000
 -0.250000  0.500000  0.400000      2.000000
  0.000000 -0.250000  0.400000      2.000000
  0.250000 -0.250000  0.400000      2.000000
  0.500000 -0.250000  0.400000      2.000000
 -0.250000 -0.250000  0.400000      2.000000
 
 Following cartesian coordinates:
            Coordinates               Weight
  0.000000  0.000000  0.000000      1.000000
  0.038631 -0.022148  0.013365      2.000000
  0.077263 -0.044296  0.026730      1.000000
  0.038631  0.022148  0.013365      2.000000
  0.077263  0.000000  0.026730      2.000000
  0.115894 -0.022148  0.040096      2.000000
  0.000000  0.044296  0.000000      2.000000
  0.077263  0.044296  0.026730      1.000000
  0.115894  0.022148  0.040096      2.000000
  0.154525  0.000000  0.053461      1.000000
 -0.000321  0.000000  0.032808      2.000000
  0.038310 -0.022148  0.046173      2.000000
  0.076941 -0.044296  0.059538      2.000000
 -0.038952  0.022148  0.019443      2.000000
  0.038310  0.022148  0.046173      2.000000
  0.076941  0.000000  0.059538      2.000000
  0.115573 -0.022148  0.072903      2.000000
 -0.000321  0.044296  0.032808      2.000000
  0.076941  0.044296  0.059538      2.000000
  0.115573  0.022148  0.072903      2.000000
  0.154204  0.000000  0.086269      2.000000
  0.038310  0.066444  0.046173      2.000000
 -0.038952 -0.022148  0.019443      2.000000
 -0.000321 -0.044296  0.032808      2.000000
  0.038310 -0.066444  0.046173      2.000000
 -0.077584  0.000000  0.006077      2.000000
 -0.000642  0.000000  0.065616      2.000000
  0.037989 -0.022148  0.078981      2.000000
  0.076620 -0.044296  0.092346      2.000000
 -0.039274  0.022148  0.052250      2.000000
  0.037989  0.022148  0.078981      2.000000
  0.076620  0.000000  0.092346      2.000000
  0.115251 -0.022148  0.105711      2.000000
 -0.000642  0.044296  0.065616      2.000000
  0.076620  0.044296  0.092346      2.000000
  0.115251  0.022148  0.105711      2.000000
  0.153883  0.000000  0.119076      2.000000
  0.037989  0.066444  0.078981      2.000000
 -0.039274 -0.022148  0.052250      2.000000
 -0.000642 -0.044296  0.065616      2.000000
  0.037989 -0.066444  0.078981      2.000000
 -0.077905  0.000000  0.038885      2.000000
 
 
 Subroutine IBZKPT_HF returns following result:
 ==============================================
 
 Found     80 k-points in 1st BZ
 the following     80 k-points will be used (e.g. in the exchange kernel)
 Following reciprocal coordinates:   # in IRBZ
  0.000000  0.000000  0.000000       1 t-inv F
  0.250000  0.000000  0.000000       2 t-inv F
  0.500000  0.000000  0.000000       3 t-inv F
  0.000000  0.250000  0.000000       4 t-inv F
  0.250000  0.250000  0.000000       5 t-inv F
  0.500000  0.250000 -0.000000       6 t-inv F
 -0.250000  0.250000  0.000000       7 t-inv F
  0.000000  0.500000  0.000000       8 t-inv F
  0.250000  0.500000 -0.000000       9 t-inv F
  0.500000  0.500000  0.000000      10 t-inv F
 -0.000000 -0.000000  0.200000      11 t-inv F
  0.250000  0.000000  0.200000      12 t-inv F
  0.500000  0.000000  0.200000      13 t-inv F
 -0.250000 -0.000000  0.200000      14 t-inv F
  0.000000  0.250000  0.200000      15 t-inv F
  0.250000  0.250000  0.200000      16 t-inv F
  0.500000  0.250000  0.200000      17 t-inv F
 -0.250000  0.250000  0.200000      18 t-inv F
  0.000000  0.500000  0.200000      19 t-inv F
  0.250000  0.500000  0.200000      20 t-inv F
  0.500000  0.500000  0.200000      21 t-inv F
 -0.250000  0.500000  0.200000      22 t-inv F
 -0.000000 -0.250000  0.200000      23 t-inv F
  0.250000 -0.250000  0.200000      24 t-inv F
  0.500000 -0.250000  0.200000      25 t-inv F
 -0.250000 -0.250000  0.200000      26 t-inv F
 -0.000000 -0.000000  0.400000      27 t-inv F
  0.250000  0.000000  0.400000      28 t-inv F
  0.500000  0.000000  0.400000      29 t-inv F
 -0.250000  0.000000  0.400000      30 t-inv F
  0.000000  0.250000  0.400000      31 t-inv F
  0.250000  0.250000  0.400000      32 t-inv F
  0.500000  0.250000  0.400000      33 t-inv F
 -0.250000  0.250000  0.400000      34 t-inv F
  0.000000  0.500000  0.400000      35 t-inv F
  0.250000  0.500000  0.400000      36 t-inv F
  0.500000  0.500000  0.400000      37 t-inv F
 -0.250000  0.500000  0.400000      38 t-inv F
  0.000000 -0.250000  0.400000      39 t-inv F
  0.250000 -0.250000  0.400000      40 t-inv F
  0.500000 -0.250000  0.400000      41 t-inv F
 -0.250000 -0.250000  0.400000      42 t-inv F
 -0.250000 -0.000000 -0.000000       2 t-inv T
 -0.000000 -0.250000 -0.000000       4 t-inv T
 -0.250000 -0.250000  0.000000       5 t-inv T
 -0.500000 -0.250000  0.000000       6 t-inv T
  0.250000 -0.250000  0.000000       7 t-inv T
 -0.250000 -0.500000  0.000000       9 t-inv T
  0.000000  0.000000 -0.200000      11 t-inv T
 -0.250000 -0.000000 -0.200000      12 t-inv T
 -0.500000 -0.000000 -0.200000      13 t-inv T
  0.250000  0.000000 -0.200000      14 t-inv T
 -0.000000 -0.250000 -0.200000      15 t-inv T
 -0.250000 -0.250000 -0.200000      16 t-inv T
 -0.500000 -0.250000 -0.200000      17 t-inv T
  0.250000 -0.250000 -0.200000      18 t-inv T
 -0.000000 -0.500000 -0.200000      19 t-inv T
 -0.250000 -0.500000 -0.200000      20 t-inv T
 -0.500000 -0.500000 -0.200000      21 t-inv T
  0.250000 -0.500000 -0.200000      22 t-inv T
  0.000000  0.250000 -0.200000      23 t-inv T
 -0.250000  0.250000 -0.200000      24 t-inv T
 -0.500000  0.250000 -0.200000      25 t-inv T
  0.250000  0.250000 -0.200000      26 t-inv T
  0.000000  0.000000 -0.400000      27 t-inv T
 -0.250000 -0.000000 -0.400000      28 t-inv T
 -0.500000 -0.000000 -0.400000      29 t-inv T
  0.250000 -0.000000 -0.400000      30 t-inv T
 -0.000000 -0.250000 -0.400000      31 t-inv T
 -0.250000 -0.250000 -0.400000      32 t-inv T
 -0.500000 -0.250000 -0.400000      33 t-inv T
  0.250000 -0.250000 -0.400000      34 t-inv T
 -0.000000 -0.500000 -0.400000      35 t-inv T
 -0.250000 -0.500000 -0.400000      36 t-inv T
 -0.500000 -0.500000 -0.400000      37 t-inv T
  0.250000 -0.500000 -0.400000      38 t-inv T
 -0.000000  0.250000 -0.400000      39 t-inv T
 -0.250000  0.250000 -0.400000      40 t-inv T
 -0.500000  0.250000 -0.400000      41 t-inv T
  0.250000  0.250000 -0.400000      42 t-inv T


--------------------------------------------------------------------------------------------------------




 Dimension of arrays:
   k-points           NKPTS =     42   k-points in BZ     NKDIM =     80   number of bands    NBANDS=     80
   number of dos      NEDOS =    301   number of ions     NIONS =     12
   non local maximal  LDIM  =      6   non local SUM 2l+1 LMDIM =     18
   total plane-waves  NPLWV =  32768
   max r-space proj   IRMAX =      1   max aug-charges    IRDMAX=   8224
   dimension x,y,z NGX =    32 NGY =   32 NGZ =   32
   dimension x,y,z NGXF=    64 NGYF=   64 NGZF=   64
   support grid    NGXF=    64 NGYF=   64 NGZF=   64
   ions per type =               4   2   6
 NGX,Y,Z   is equivalent  to a cutoff of   8.18,  8.18,  8.27 a.u.
 NGXF,Y,Z  is equivalent  to a cutoff of  16.37, 16.37, 16.55 a.u.


 I would recommend the setting:
   dimension x,y,z NGX =    32 NGY =   32 NGZ =   31
 SYSTEM =  CGS                                     
 POSCAR =  Cu Ge S                                 

 Startparameter for this run:
   NWRITE =      2    write-flag & timer
   PREC   = normal    normal or accurate (medium, high low for compatibility)
   ISTART =      1    job   : 0-new  1-cont  2-samecut
   ICHARG =      0    charge: 1-file 2-atom 10-const
   ISPIN  =      1    spin polarized calculation?
   LNONCOLLINEAR =      F non collinear calculations
   LSORBIT =      F    spin-orbit coupling
   INIWAV =      1    electr: 0-lowe 1-rand  2-diag
   LASPH  =      F    aspherical Exc in radial PAW
   METAGGA=      F    non-selfconsistent MetaGGA calc.

 Electronic Relaxation 1
   ENCUT  =  400.0 eV  29.40 Ry    5.42 a.u.  10.60 10.60 10.48*2*pi/ulx,y,z
   ENINI  =  400.0     initial cutoff
   ENAUG  =  758.2 eV  augmentation charge cutoff
   NELM   =     60;   NELMIN=  2; NELMDL=  0     # of ELM steps 
   EDIFF  = 0.1E-04   stopping-criterion for ELM
   LREAL  =      F    real-space projection
   NLSPLINE    = F    spline interpolate recip. space projectors
   LCOMPAT=      F    compatible to vasp.4.4
   GGA_COMPAT  = T    GGA compatible to vasp.4.4-vasp.4.6
   LMAXPAW     = -100 max onsite density
   LMAXMIX     =    2 max onsite mixed and CHGCAR
   VOSKOWN=      0    Vosko Wilk Nusair interpolation
   ROPT   =    0.00000   0.00000   0.00000
 Ionic relaxation
   EDIFFG = 0.1E-03   stopping-criterion for IOM
   NSW    =      0    number of steps for IOM
   NBLOCK =      1;   KBLOCK =      1    inner block; outer block 
   IBRION =     -1    ionic relax: 0-MD 1-quasi-New 2-CG
   NFREE  =      0    steps in history (QN), initial steepest desc. (CG)
   ISIF   =      0    stress and relaxation
   IWAVPR =     10    prediction:  0-non 1-charg 2-wave 3-comb
   ISYM   =      3    0-nonsym 1-usesym 2-fastsym
   LCORR  =      T    Harris-Foulkes like correction to forces

   POTIM  = 0.5000    time-step for ionic-motion
   TEIN   =    0.0    initial temperature
   TEBEG  =    0.0;   TEEND  =   0.0 temperature during run
   SMASS  =  -3.00    Nose mass-parameter (am)
   estimated Nose-frequenzy (Omega)   =  0.10E-29 period in steps =****** mass=  -0.966E-27a.u.
   SCALEE = 1.0000    scale energy and forces
   NPACO  =    256;   APACO  = 16.0  distance and # of slots for P.C.
   PSTRESS=    0.0 pullay stress

  Mass of Ions in am
   POMASS =  63.55 72.61 32.07
  Ionic Valenz
   ZVAL   =  17.00  4.00  6.00
  Atomic Wigner-Seitz radii
   RWIGS  =  -1.00 -1.00 -1.00
  virtual crystal weights 
   VCA    =   1.00  1.00  1.00
   NELECT =     112.0000    total number of electrons
   NUPDOWN=      -1.0000    fix difference up-down

 DOS related values:
   EMIN   =  10.00;   EMAX   =-10.00  energy-range for DOS
   EFERMI =   0.00
   ISMEAR =     1;   SIGMA  =   0.10  broadening in eV -4-tet -1-fermi 0-gaus

 Electronic relaxation 2 (details)
   IALGO  =     53    algorithm
   LDIAG  =      T    sub-space diagonalisation (order eigenvalues)
   LSUBROT=      T    optimize rotation matrix (better conditioning)
   TURBO    =      0    0=normal 1=particle mesh
   IRESTART =      0    0=no restart 2=restart with 2 vectors
   NREBOOT  =      0    no. of reboots
   NMIN     =      0    reboot dimension
   EREF     =   0.00    reference energy to select bands
   IMIX   =      4    mixing-type and parameters
     AMIX     =   0.40;   BMIX     =  1.00
     AMIX_MAG =   1.60;   BMIX_MAG =  1.00
     AMIN     =   0.10
     WC   =   100.;   INIMIX=   1;  MIXPRE=   1;  MAXMIX= -45

 Intra band minimization:
   WEIMIN = 0.0000     energy-eigenvalue tresh-hold
   EBREAK =  0.31E-07  absolut break condition
   DEPER  =   0.30     relativ break condition  

   TIME   =   0.40     timestep for ELM

  volume/ion in A,a.u.               =      18.49       124.79
  Fermi-wavevector in a.u.,A,eV,Ry     =   1.303450  2.463163 23.116052  1.698982
  Thomas-Fermi vector in A             =   2.434451
 
 Write flags
   LWAVE  =      T    write WAVECAR
   LCHARG =      T    write CHGCAR
   LVTOT  =      F    write LOCPOT, total local potential
   LVHAR  =      F    write LOCPOT, Hartree potential only
   LELF   =      F    write electronic localiz. function (ELF)
   LORBIT =      0    0 simple, 1 ext, 2 COOP (PROOUT)


 Dipole corrections
   LMONO  =      F    monopole corrections only (constant potential shift)
   LDIPOL =      F    correct potential (dipole corrections)
   IDIPOL =      0    1-x, 2-y, 3-z, 4-all directions 
   EPSILON=  1.0000000 bulk dielectric constant

 Exchange correlation treatment:
   GGA     =    PE    GGA type
   LEXCH   =     8    internal setting for exchange type
   VOSKOWN=      0    Vosko Wilk Nusair interpolation
   EXXOEP  =     0    0=HF, 1=EXX-LHF (local Hartree Fock) 2=EXX OEP
   LHFCALC =     T    Hartree Fock is set to
   LSYMGRAD=     F    symmetrize gradient (conserves proper symmetry)
   PRECFOCK=fast      Normal, Fast or Accurate (Low or Medium for compatibility)
   LRHFCALC=     F    long range Hartree Fock
   LRSCOR  =     F    long range correlation only (use DFT for short range part)
   LTHOMAS =     F    Thomas Fermi screening in HF
   LMODELHF=     F    short range full HF, long range fraction AEXX
   ENCUT4O =  -1.0   cutoff for four orbital integrals eV
   LMAXFOCK=     4    L truncation for augmentation on plane wave grid
   LMAXFOCKAE=  -1    L truncation for all-electron charge restoration on plane wave grid
   NMAXFOCKAE=   1    number of basis functions for all-electron charge restoration
   LFOCKAEDFT=     F  apply the AE augmentation even for DFT
   NKREDX  =     1    reduce k-point grid by
   NKREDY  =     1    reduce k-point grid by
   NKREDZ  =     1    reduce k-point grid by
   SHIFTRED=     F    shift reduced grid of Gamma
   HFKIDENT=     F    idential grid for each k-point
   ODDONLY =     F    use only odd q-grid points
   EVENONLY=     F    use only even q-grid points
   HFALPHA =   -1.0000 decay constant for conv. correction
   MCALPHA =    0.0000 extent of test-charge in conv. correction in multipole expansion
   AEXX    =    0.2500 exact exchange contribution
   HFSCREEN=    0.2000 screening length (either q_TF or 0.3 A-1)
   HFSCREENC=   0.2000 screening length for correlation (either q_TF or 0.3 A-1)
   HFRCUT  =    0.0000 spherical cutoff for potential kernel
   ALDAX   =    0.7500 LDA exchange part
   AGGAX   =    0.7500 GGA exchange part
   ALDAC   =    1.0000 LDA correlation
   AGGAC   =    1.0000 GGA correlation
   NBANDSGWLOW=     1    first orbital included in HF term
 Linear response parameters
   LEPSILON=     F    determine dielectric tensor
   LRPA    =     F    only Hartree local field effects (RPA)
   LNABLA  =     F    use nabla operator in PAW spheres
   LVEL    =     F    velocity operator in full k-point grid
   LINTERFAST=   F  fast interpolation
   KINTER  =     0    interpolate to denser k-point grid
   CSHIFT  =0.1000    complex shift for real part using Kramers Kronig
   OMEGAMAX=  -1.0    maximum frequency
   DEG_THRESHOLD= 0.2000000E-02 threshold for treating states as degnerate
   RTIME   =    0.100 relaxation time in fs

 Orbital magnetization related:
   ORBITALMAG=     F  switch on orbital magnetization
   LCHIMAG   =     F  perturbation theory with respect to B field
   DQ        =  0.001000  dq finite difference perturbation B field



--------------------------------------------------------------------------------------------------------


 Static calculation
 charge density and potential will be updated during run
 non-spin polarized calculation
 Conjugate gradient for all bands, subspace preconditioning
 perform sub-space diagonalisation
    before iterative eigenvector-optimisation
 modified Broyden-mixing scheme, WC =      100.0
 initial mixing is a Kerker type mixing with AMIX =  0.4000 and BMIX =      1.0000
 Hartree-type preconditioning will be used
 using additional bands           24
 reciprocal scheme for non local part
 use partial core corrections
 no Harris-corrections to forces 
 use gradient corrections 
 use of overlap-Matrix (Vanderbilt PP)
 Methfessel and Paxton  Order N= 1 SIGMA  =   0.10


--------------------------------------------------------------------------------------------------------


  energy-cutoff  :      400.00
  volume of cell :      221.90
      direct lattice vectors                 reciprocal lattice vectors
     3.224796000 -5.643830000  0.031572000     0.154525165 -0.088592321  0.053460880
     3.224796000  5.643830000  0.031572000     0.154525165  0.088592321  0.053460880
    -2.101946000  0.000000000  6.075537000    -0.001606004  0.000000000  0.164038877

  length of vectors
     6.500240234  6.500240234  6.428866683     0.185969598  0.185969598  0.164046738


 
 old parameters found on file WAVECAR:
  energy-cutoff  :      400.00
  volume of cell :      222.35
      direct lattice vectors                 reciprocal lattice vectors
     3.227235519 -5.642745207  0.030241751     0.154430495 -0.088609353  0.053450002
     3.227235519  5.642745207  0.030241751     0.154430495  0.088609353  0.053450002
    -2.106135241  0.000000000  6.085154262    -0.001534965  0.000000000  0.163803104

  length of vectors

 
 k-points in units of 2pi/SCALE and weight: pymatgen 4.7.6+ generated KPOINTS with g
   0.00000000  0.00000000  0.00000000       0.013
   0.03863129 -0.02214808  0.01336522       0.025
   0.07726258 -0.04429616  0.02673044       0.013
   0.03863129  0.02214808  0.01336522       0.025
   0.07726258  0.00000000  0.02673044       0.025
   0.11589387 -0.02214808  0.04009566       0.025
   0.00000000  0.04429616  0.00000000       0.025
   0.07726258  0.04429616  0.02673044       0.013
   0.11589387  0.02214808  0.04009566       0.025
   0.15452516  0.00000000  0.05346088       0.013
  -0.00032120  0.00000000  0.03280778       0.025
   0.03831009 -0.02214808  0.04617300       0.025
   0.07694138 -0.04429616  0.05953822       0.025
  -0.03895249  0.02214808  0.01944256       0.025
   0.03831009  0.02214808  0.04617300       0.025
   0.07694138  0.00000000  0.05953822       0.025
   0.11557267 -0.02214808  0.07290344       0.025
  -0.00032120  0.04429616  0.03280778       0.025
   0.07694138  0.04429616  0.05953822       0.025
   0.11557267  0.02214808  0.07290344       0.025
   0.15420396  0.00000000  0.08626865       0.025
   0.03831009  0.06644424  0.04617300       0.025
  -0.03895249 -0.02214808  0.01944256       0.025
  -0.00032120 -0.04429616  0.03280778       0.025
   0.03831009 -0.06644424  0.04617300       0.025
  -0.07758378  0.00000000  0.00607734       0.025
  -0.00064240  0.00000000  0.06561555       0.025
   0.03798889 -0.02214808  0.07898077       0.025
   0.07662018 -0.04429616  0.09234599       0.025
  -0.03927369  0.02214808  0.05225033       0.025
   0.03798889  0.02214808  0.07898077       0.025
   0.07662018  0.00000000  0.09234599       0.025
   0.11525147 -0.02214808  0.10571121       0.025
  -0.00064240  0.04429616  0.06561555       0.025
   0.07662018  0.04429616  0.09234599       0.025
   0.11525147  0.02214808  0.10571121       0.025
   0.15388276  0.00000000  0.11907643       0.025
   0.03798889  0.06644424  0.07898077       0.025
  -0.03927369 -0.02214808  0.05225033       0.025
  -0.00064240 -0.04429616  0.06561555       0.025
   0.03798889 -0.06644424  0.07898077       0.025
  -0.07790498  0.00000000  0.03888511       0.025
 
 k-points in reciprocal lattice and weights: pymatgen 4.7.6+ generated KPOINTS with g
   0.00000000  0.00000000  0.00000000       0.013
   0.25000000  0.00000000  0.00000000       0.025
   0.50000000  0.00000000  0.00000000       0.013
   0.00000000  0.25000000  0.00000000       0.025
   0.25000000  0.25000000  0.00000000       0.025
   0.50000000  0.25000000 -0.00000000       0.025
  -0.25000000  0.25000000  0.00000000       0.025
   0.00000000  0.50000000  0.00000000       0.013
   0.25000000  0.50000000 -0.00000000       0.025
   0.50000000  0.50000000  0.00000000       0.013
  -0.00000000 -0.00000000  0.20000000       0.025
   0.25000000  0.00000000  0.20000000       0.025
   0.50000000  0.00000000  0.20000000       0.025
  -0.25000000 -0.00000000  0.20000000       0.025
   0.00000000  0.25000000  0.20000000       0.025
   0.25000000  0.25000000  0.20000000       0.025
   0.50000000  0.25000000  0.20000000       0.025
  -0.25000000  0.25000000  0.20000000       0.025
   0.00000000  0.50000000  0.20000000       0.025
   0.25000000  0.50000000  0.20000000       0.025
   0.50000000  0.50000000  0.20000000       0.025
  -0.25000000  0.50000000  0.20000000       0.025
  -0.00000000 -0.25000000  0.20000000       0.025
   0.25000000 -0.25000000  0.20000000       0.025
   0.50000000 -0.25000000  0.20000000       0.025
  -0.25000000 -0.25000000  0.20000000       0.025
  -0.00000000 -0.00000000  0.40000000       0.025
   0.25000000  0.00000000  0.40000000       0.025
   0.50000000  0.00000000  0.40000000       0.025
  -0.25000000  0.00000000  0.40000000       0.025
   0.00000000  0.25000000  0.40000000       0.025
   0.25000000  0.25000000  0.40000000       0.025
   0.50000000  0.25000000  0.40000000       0.025
  -0.25000000  0.25000000  0.40000000       0.025
   0.00000000  0.50000000  0.40000000       0.025
   0.25000000  0.50000000  0.40000000       0.025
   0.50000000  0.50000000  0.40000000       0.025
  -0.25000000  0.50000000  0.40000000       0.025
   0.00000000 -0.25000000  0.40000000       0.025
   0.25000000 -0.25000000  0.40000000       0.025
   0.50000000 -0.25000000  0.40000000       0.025
  -0.25000000 -0.25000000  0.40000000       0.025
 
 position of ions in fractional coordinates (direct lattice) 
   0.61844300  0.12117100  0.11953300
   0.12117100  0.61844300  0.61953300
   0.96295700  0.79032200  0.11881300
   0.79032200  0.96295700  0.61881300
   0.43973200  0.26728100  0.59904700
   0.26728100  0.43973200  0.09904700
   0.07949800  0.91167500  0.49736300
   0.57140300  0.41236400  0.98018400
   0.73711100  0.25006200  0.49660448
   0.41236400  0.57140300  0.48018400
   0.91167500  0.07949800  0.99736300
   0.25006200  0.73711100  0.99504900
 
 position of ions in cartesian coordinates  (Angst):
   2.13385236 -2.80651863  0.74957826
   1.08287936  2.80651863  3.78734676
   5.40422860 -0.97432259  0.77720730
   4.35325560  0.97432259  3.81497580
   1.02080825 -0.97328413  3.66185403
   2.07178125  0.97328413  0.62408553
   2.15090056  4.69666552  3.05304062
   1.11215405 -0.89758908  5.98620365
   2.13959573 -2.74882176  3.04830594
   2.16312705  0.89758908  2.94843515
   1.09992756 -4.69666552  6.09080912
   1.09189228  2.74882176  6.07662404
 


--------------------------------------------------------------------------------------------------------


 k-point  1 :   0.0000 0.0000 0.0000  plane waves:    4051
 k-point  2 :   0.2500 0.0000 0.0000  plane waves:    4032
 k-point  3 :   0.5000 0.0000 0.0000  plane waves:    4030
 k-point  4 :   0.0000 0.2500 0.0000  plane waves:    4032
 k-point  5 :   0.2500 0.2500 0.0000  plane waves:    4038
 k-point  6 :   0.5000 0.2500-0.0000  plane waves:    4037
 k-point  7 :  -0.2500 0.2500 0.0000  plane waves:    4042
 k-point  8 :   0.0000 0.5000 0.0000  plane waves:    4030
 k-point  9 :   0.2500 0.5000-0.0000  plane waves:    4037
 k-point 10 :   0.5000 0.5000 0.0000  plane waves:    4026
 k-point 11 :  -0.0000-0.0000 0.2000  plane waves:    4046
 k-point 12 :   0.2500 0.0000 0.2000  plane waves:    4034
 k-point 13 :   0.5000 0.0000 0.2000  plane waves:    4025
 k-point 14 :  -0.2500-0.0000 0.2000  plane waves:    4044
 k-point 15 :   0.0000 0.2500 0.2000  plane waves:    4034
 k-point 16 :   0.2500 0.2500 0.2000  plane waves:    4017
 k-point 17 :   0.5000 0.2500 0.2000  plane waves:    4039
 k-point 18 :  -0.2500 0.2500 0.2000  plane waves:    4042
 k-point 19 :   0.0000 0.5000 0.2000  plane waves:    4025
 k-point 20 :   0.2500 0.5000 0.2000  plane waves:    4039
 k-point 21 :   0.5000 0.5000 0.2000  plane waves:    4030
 k-point 22 :  -0.2500 0.5000 0.2000  plane waves:    4030
 k-point 23 :  -0.0000-0.2500 0.2000  plane waves:    4044
 k-point 24 :   0.2500-0.2500 0.2000  plane waves:    4042
 k-point 25 :   0.5000-0.2500 0.2000  plane waves:    4030
 k-point 26 :  -0.2500-0.2500 0.2000  plane waves:    4020
 k-point 27 :  -0.0000-0.0000 0.4000  plane waves:    4027
 k-point 28 :   0.2500 0.0000 0.4000  plane waves:    4034
 k-point 29 :   0.5000 0.0000 0.4000  plane waves:    4013
 k-point 30 :  -0.2500 0.0000 0.4000  plane waves:    4042
 k-point 31 :   0.0000 0.2500 0.4000  plane waves:    4034
 k-point 32 :   0.2500 0.2500 0.4000  plane waves:    4009
 k-point 33 :   0.5000 0.2500 0.4000  plane waves:    4026
 k-point 34 :  -0.2500 0.2500 0.4000  plane waves:    4027
 k-point 35 :   0.0000 0.5000 0.4000  plane waves:    4013
 k-point 36 :   0.2500 0.5000 0.4000  plane waves:    4026
 k-point 37 :   0.5000 0.5000 0.4000  plane waves:    4037
 k-point 38 :  -0.2500 0.5000 0.4000  plane waves:    4022
 k-point 39 :   0.0000-0.2500 0.4000  plane waves:    4042
 k-point 40 :   0.2500-0.2500 0.4000  plane waves:    4027
 k-point 41 :   0.5000-0.2500 0.4000  plane waves:    4022
 k-point 42 :  -0.2500-0.2500 0.4000  plane waves:    4015

 maximum and minimum number of plane-waves per node :      4051     4009

 maximum number of plane-waves:      4051
 maximum index in each direction: 
   IXMAX=   10   IYMAX=   10   IZMAX=   10
   IXMIN=  -11   IYMIN=  -11   IZMIN=  -10

 WARNING: aliasing errors must be expected set NGX to  44 to avoid them
 WARNING: aliasing errors must be expected set NGY to  44 to avoid them
 WARNING: aliasing errors must be expected set NGZ to  42 to avoid them
 aliasing errors are usually negligible using standard VASP settings
 and one can safely disregard these warnings

 serial   3D FFT for wavefunctions
 parallel 3D FFT for charge:
    minimum data exchange during FFTs selected (reduces bandwidth)


 FFT grid for exact exchange (Hartree Fock) 
  NGX = 24; NGY = 24; NGZ = 24

 
 Radii for the augmentation spheres in the non-local exchange
 for species   1 augmentation radius   1.120 (default was   0.830)
       energy cutoff for augmentation   1600.0
 for species   2 augmentation radius   1.570 (default was   1.163)
       energy cutoff for augmentation   1600.0
 for species   3 augmentation radius   1.034 (default was   0.970)
       energy cutoff for augmentation   1600.0

 total amount of memory used by VASP on root node   151696. kBytes
========================================================================

   base      :      30000. kBytes
   nonl-proj :      74517. kBytes
   fftplans  :        702. kBytes
   grid      :       2400. kBytes
   one-center:        186. kBytes
   HF        :        194. kBytes
   nonlr-proj:       1121. kBytes
   wavefun   :      42576. kBytes
 
 Broyden mixing: mesh for mixing (old mesh)
   NGX = 21   NGY = 21   NGZ = 21
  (NGX  = 64   NGY  = 64   NGZ  = 64)
  gives a total of   9261 points

 charge density for first step will be calculated from the start-wavefunctions


--------------------------------------------------------------------------------------------------------


 Maximum index for augmentation-charges          485 (set IRDMAX)


--------------------------------------------------------------------------------------------------------


 initial charge from wavefunction
 First call to EWALD:  gamma=   0.293
 Maximum number of real-space cells 3x 3x 3
 Maximum number of reciprocal cells 3x 3x 3

 FEWALD executed in parallel
    FEWALD:  cpu time    0.00: real time    0.00


----------------------------------------- Iteration    1(   1)  ---------------------------------------


    POTLOK:  cpu time    0.12: real time    0.12
    SETDIJ:  cpu time    1.98: real time    1.98
 
    SUBROT:  cpu time    0.71: real time    0.71
    SUBROT:  cpu time    0.35: real time    0.35
    SUBROT:  cpu time    0.34: real time    0.34
    SUBROT:  cpu time    0.34: real time    0.34
    --------------------------------------------
    SUBRT+:  cpu time    1.75: real time    1.76

 Broyden mixing:
  rms(total) = 0.11351E-01    rms(broyden)= 0.11343E-01
  rms(prec ) = 0.20736E-01
  weight for this iteration     100.00

 eigenvalues of (default mixing * dielectric matrix)
  average eigenvalue GAMMA=   1.5782
  2.4463  1.4688  0.8195
 
    TRIAL :  cpu time  248.30: real time  248.73
    CORREC:  cpu time    0.00: real time    0.00
    CHARGE:  cpu time    0.05: real time    0.05
    --------------------------------------------
      LOOP:  cpu time  250.45: real time  250.90

 eigenvalue-minimisations  :     0
 total energy-change (2. order) : 0.7553513E+02  (-0.2131642E+03)
 number of electron     112.0001476 magnetization 
 augmentation part       38.9110891 magnetization 

 Free energy of the ion-electron system (eV)
  ---------------------------------------------------
  alpha Z        PSCENC =       339.31929130
  Ewald energy   TEWEN  =     -9065.31165918
  -1/2 Hartree   DENC   =     -8067.43755773
  -exchange  EXHF       =       327.45055253
  -V(xc)+E(xc)   XCENC  =       369.90460070
  PAW double counting   =     16899.65880756   -17392.47458809
  entropy T*S    EENTRO =        -0.00145427
  eigenvalues    EBANDS =     -1656.55799691
  atomic energy  EATOM  =     18320.98302006
  ---------------------------------------------------
  free energy    TOTEN  =        75.53513354 eV

  energy without entropy =       75.53658781  energy(sigma->0) =       75.53561829


--------------------------------------------------------------------------------------------------------




----------------------------------------- Iteration    1(   2)  ---------------------------------------


    POTLOK:  cpu time    0.05: real time    0.05
    SETDIJ:  cpu time    1.97: real time    1.97
 
    SUBROT:  cpu time    0.71: real time    0.71
    SUBROT:  cpu time    0.37: real time    0.37
    SUBROT:  cpu time    0.37: real time    0.37
    SUBROT:  cpu time    0.37: real time    0.37
    --------------------------------------------
    SUBRT+:  cpu time    1.81: real time    1.82

 Broyden mixing:
  rms(total) = 0.27505E-01    rms(broyden)= 0.27495E-01
  rms(prec ) = 0.50506E-01
  weight for this iteration     100.00

 eigenvalues of (default mixing * dielectric matrix)
  average eigenvalue GAMMA=   1.5569
  2.5461  1.2650  0.8597
 
    TRIAL :  cpu time  258.58: real time  258.40
    CORREC:  cpu time    0.00: real time    0.00
    CHARGE:  cpu time    0.06: real time    0.06
    --------------------------------------------
      LOOP:  cpu time  260.66: real time  260.50

 eigenvalue-minimisations  :     0
 total energy-change (2. order) :-0.8391366E+02  (-0.1468899E+03)
 number of electron     112.0001381 magnetization 
 augmentation part       35.4546080 magnetization 

 Free energy of the ion-electron system (eV)
  ---------------------------------------------------
  alpha Z        PSCENC =       339.31929130
  Ewald energy   TEWEN  =     -9065.31165918
  -1/2 Hartree   DENC   =     -8369.61725538
  -exchange  EXHF       =       338.96084446
  -V(xc)+E(xc)   XCENC  =       377.32026853
  PAW double counting   =     17400.53299226   -17939.64709561
  entropy T*S    EENTRO =        -0.00077639
  eigenvalues    EBANDS =     -1410.91747942
  atomic energy  EATOM  =     18320.98302006
  ---------------------------------------------------
  free energy    TOTEN  =        -8.37852725 eV

  energy without entropy =       -8.37775086  energy(sigma->0) =       -8.37826845


--------------------------------------------------------------------------------------------------------




----------------------------------------- Iteration    1(   3)  ---------------------------------------


    POTLOK:  cpu time    0.05: real time    0.05
    SETDIJ:  cpu time    1.99: real time    1.99
 
    SUBROT:  cpu time    1.06: real time    1.06
    SUBROT:  cpu time    0.34: real time    0.34
    SUBROT:  cpu time    0.35: real time    0.35
    SUBROT:  cpu time    0.33: real time    0.33
    --------------------------------------------
    SUBRT+:  cpu time    2.08: real time    2.10

 Broyden mixing:
  rms(total) = 0.28107E-01    rms(broyden)= 0.28096E-01
  rms(prec ) = 0.52381E-01
  weight for this iteration     100.00

 eigenvalues of (default mixing * dielectric matrix)
  average eigenvalue GAMMA=   1.7735
  1.0116  2.4994  1.8097
 
    TRIAL :  cpu time  253.08: real time  253.13
    CORREC:  cpu time    0.00: real time    0.00
    CHARGE:  cpu time    0.11: real time    0.11
    --------------------------------------------
      LOOP:  cpu time  255.23: real time  255.30

 eigenvalue-minimisations  :     0
 total energy-change (2. order) :-0.6775574E+01  (-0.2039073E+03)
 number of electron     112.0001506 magnetization 
 augmentation part       39.6851228 magnetization 

 Free energy of the ion-electron system (eV)
  ---------------------------------------------------
  alpha Z        PSCENC =       339.31929130
  Ewald energy   TEWEN  =     -9065.31165918
  -1/2 Hartree   DENC   =     -7477.07828651
  -exchange  EXHF       =       324.99596477
  -V(xc)+E(xc)   XCENC  =       357.39766792
  PAW double counting   =     15149.78915837   -15579.23751214
  entropy T*S    EENTRO =         0.00013663
  eigenvalues    EBANDS =     -2386.01096959
  atomic energy  EATOM  =     18320.98302006
  ---------------------------------------------------
  free energy    TOTEN  =       -15.15410140 eV

  energy without entropy =      -15.15423803  energy(sigma->0) =      -15.15414694


--------------------------------------------------------------------------------------------------------




----------------------------------------- Iteration    1(   4)  ---------------------------------------


    POTLOK:  cpu time    0.05: real time    0.05
    SETDIJ:  cpu time    1.97: real time    1.97
 
    SUBROT:  cpu time    1.67: real time    1.68
    SUBROT:  cpu time    0.69: real time    0.69
    SUBROT:  cpu time    0.36: real time    0.36
    SUBROT:  cpu time    0.37: real time    0.37
    SUBROT:  cpu time    0.38: real time    0.38
    --------------------------------------------
    SUBRT+:  cpu time    3.47: real time    3.47

 Broyden mixing:
  rms(total) = 0.11143E+00    rms(broyden)= 0.11124E+00
  rms(prec ) = 0.19668E+00
  weight for this iteration     100.00

 eigenvalues of (default mixing * dielectric matrix)
  average eigenvalue GAMMA=   1.2567
  2.5998  1.3699  0.6684  0.3885
 
    TRIAL :  cpu time  258.01: real time  257.90
    CORREC:  cpu time    0.00: real time    0.00
    CHARGE:  cpu time    0.07: real time    0.07
    --------------------------------------------
      LOOP:  cpu time  260.11: real time  260.01

 eigenvalue-minimisations  :     0
 total energy-change (2. order) :-0.7477614E+01  (-0.1074195E+03)
 number of electron     112.0001426 magnetization 
 augmentation part       37.2456429 magnetization 

 Free energy of the ion-electron system (eV)
  ---------------------------------------------------
  alpha Z        PSCENC =       339.31929130
  Ewald energy   TEWEN  =     -9065.31165918
  -1/2 Hartree   DENC   =     -8542.71194784
  -exchange  EXHF       =       343.00514755
  -V(xc)+E(xc)   XCENC  =       381.66127330
  PAW double counting   =     17632.54502650   -18213.25040660
  entropy T*S    EENTRO =         0.00032530
  eigenvalues    EBANDS =     -1218.87159667
  atomic energy  EATOM  =     18320.98302006
  ---------------------------------------------------
  free energy    TOTEN  =       -22.63171494 eV

  energy without entropy =      -22.63204024  energy(sigma->0) =      -22.63182337


--------------------------------------------------------------------------------------------------------




----------------------------------------- Iteration    1(   5)  ---------------------------------------


    POTLOK:  cpu time    0.06: real time    0.06
    SETDIJ:  cpu time    2.07: real time    2.07
 
    SUBROT:  cpu time    0.74: real time    0.74
    SUBROT:  cpu time    0.36: real time    0.36
    SUBROT:  cpu time    0.37: real time    0.37
    SUBROT:  cpu time    0.37: real time    0.37
    --------------------------------------------
    SUBRT+:  cpu time    1.84: real time    1.87

 Broyden mixing:
  rms(total) = 0.43486E-01    rms(broyden)= 0.43477E-01
  rms(prec ) = 0.89112E-01
  weight for this iteration     100.00

 eigenvalues of (default mixing * dielectric matrix)
  average eigenvalue GAMMA=   1.6854
  2.4618  0.9358  1.6587
 
    TRIAL :  cpu time  257.79: real time  257.68
    CORREC:  cpu time    0.00: real time    0.00
    CHARGE:  cpu time    0.10: real time    0.10
    --------------------------------------------
      LOOP:  cpu time  260.02: real time  259.92

 eigenvalue-minimisations  :     0
 total energy-change (2. order) :-0.3818654E+02  (-0.1505760E+02)
 number of electron     112.0001426 magnetization 
 augmentation part       37.2480542 magnetization 

 Free energy of the ion-electron system (eV)
  ---------------------------------------------------
  alpha Z        PSCENC =       339.31929130
  Ewald energy   TEWEN  =     -9065.31165918
  -1/2 Hartree   DENC   =     -8008.25312562
  -exchange  EXHF       =       336.40052485
  -V(xc)+E(xc)   XCENC  =       368.40974818
  PAW double counting   =     15870.66993304   -16340.09620771
  entropy T*S    EENTRO =         0.00062709
  eigenvalues    EBANDS =     -1882.94010929
  atomic energy  EATOM  =     18320.98302006
  ---------------------------------------------------
  free energy    TOTEN  =       -60.81825908 eV

  energy without entropy =      -60.81888617  energy(sigma->0) =      -60.81846811


--------------------------------------------------------------------------------------------------------




----------------------------------------- Iteration    1(   6)  ---------------------------------------


    POTLOK:  cpu time    0.06: real time    0.06
    SETDIJ:  cpu time    2.09: real time    2.08
 
    SUBROT:  cpu time    1.70: real time    1.70
    SUBROT:  cpu time    0.74: real time    0.74
    SUBROT:  cpu time    0.77: real time    0.77
    SUBROT:  cpu time    0.79: real time    0.79
    --------------------------------------------
    SUBRT+:  cpu time    4.00: real time    4.00

 Broyden mixing:
  rms(total) = 0.27330E-02    rms(broyden)= 0.27324E-02
  rms(prec ) = 0.45423E-02
  weight for this iteration     100.00

 eigenvalues of (default mixing * dielectric matrix)
  average eigenvalue GAMMA=   1.8148
  1.0151  1.9038  2.5254
 
    TRIAL :  cpu time  264.79: real time  264.59
    CORREC:  cpu time    0.00: real time    0.00
    CHARGE:  cpu time    0.10: real time    0.10
    --------------------------------------------
      LOOP:  cpu time  267.04: real time  266.85

 eigenvalue-minimisations  :     0
 total energy-change (2. order) :-0.5124516E+01  (-0.8152193E+01)
 number of electron     112.0001456 magnetization 
 augmentation part       38.2275389 magnetization 

 Free energy of the ion-electron system (eV)
  ---------------------------------------------------
  alpha Z        PSCENC =       339.31929130
  Ewald energy   TEWEN  =     -9065.31165918
  -1/2 Hartree   DENC   =     -8001.54608111
  -exchange  EXHF       =       337.16550833
  -V(xc)+E(xc)   XCENC  =       368.79674618
  PAW double counting   =     15772.29763848   -16241.29838013
  entropy T*S    EENTRO =         0.00067931
  eigenvalues    EBANDS =     -1896.34948661
  atomic energy  EATOM  =     18320.98302006
  ---------------------------------------------------
  free energy    TOTEN  =       -65.94277557 eV

  energy without entropy =      -65.94345489  energy(sigma->0) =      -65.94300201


--------------------------------------------------------------------------------------------------------




----------------------------------------- Iteration    1(   7)  ---------------------------------------


    POTLOK:  cpu time    0.05: real time    0.05
    SETDIJ:  cpu time    2.09: real time    2.09
 
    SUBROT:  cpu time    1.59: real time    1.59
    SUBROT:  cpu time    0.35: real time    0.36
    SUBROT:  cpu time    0.35: real time    0.35
    SUBROT:  cpu time    0.35: real time    0.35
    --------------------------------------------
    SUBRT+:  cpu time    2.65: real time    2.67

 Broyden mixing:
  rms(total) = 0.13152E-01    rms(broyden)= 0.13148E-01
  rms(prec ) = 0.23280E-01
  weight for this iteration     100.00

 eigenvalues of (default mixing * dielectric matrix)
  average eigenvalue GAMMA=   1.6255
  2.5027  0.8952  1.4787
 
    TRIAL :  cpu time  259.65: real time  259.47
    CORREC:  cpu time    0.00: real time    0.00
    CHARGE:  cpu time    0.06: real time    0.06
    --------------------------------------------
      LOOP:  cpu time  261.85: real time  261.68

 eigenvalue-minimisations  :     0
 total energy-change (2. order) :-0.1536207E+01  (-0.4125055E+01)
 number of electron     112.0001439 magnetization 
 augmentation part       37.7066228 magnetization 

 Free energy of the ion-electron system (eV)
  ---------------------------------------------------
  alpha Z        PSCENC =       339.31929130
  Ewald energy   TEWEN  =     -9065.31165918
  -1/2 Hartree   DENC   =     -8242.85608589
  -exchange  EXHF       =       341.62839904
  -V(xc)+E(xc)   XCENC  =       374.55919230
  PAW double counting   =     16206.98767449   -16710.25647284
  entropy T*S    EENTRO =         0.00044543
  eigenvalues    EBANDS =     -1632.53302108
  atomic energy  EATOM  =     18320.98302006
  ---------------------------------------------------
  free energy    TOTEN  =       -67.47898250 eV

  energy without entropy =      -67.47942793  energy(sigma->0) =      -67.47913098


--------------------------------------------------------------------------------------------------------




----------------------------------------- Iteration    1(   8)  ---------------------------------------


    POTLOK:  cpu time    0.06: real time    0.06
    SETDIJ:  cpu time    2.08: real time    2.07
 
    SUBROT:  cpu time    1.54: real time    1.54
    SUBROT:  cpu time    0.36: real time    0.36
    SUBROT:  cpu time    0.38: real time    0.38
    SUBROT:  cpu time    0.38: real time    0.37
    --------------------------------------------
    SUBRT+:  cpu time    2.65: real time    2.67

 Broyden mixing:
  rms(total) = 0.83068E-02    rms(broyden)= 0.83044E-02
  rms(prec ) = 0.13944E-01
  weight for this iteration     100.00

 eigenvalues of (default mixing * dielectric matrix)
  average eigenvalue GAMMA=   1.6779
  2.4561  0.9478  1.6298
 
    TRIAL :  cpu time  264.38: real time  264.27
    CORREC:  cpu time    0.00: real time    0.00
    CHARGE:  cpu time    0.07: real time    0.07
    --------------------------------------------
      LOOP:  cpu time  266.59: real time  266.47

 eigenvalue-minimisations  :     0
 total energy-change (2. order) :-0.1606925E+01  (-0.7698721E+00)
 number of electron     112.0001439 magnetization 
 augmentation part       37.7254285 magnetization 

 Free energy of the ion-electron system (eV)
  ---------------------------------------------------
  alpha Z        PSCENC =       339.31929130
  Ewald energy   TEWEN  =     -9065.31165918
  -1/2 Hartree   DENC   =     -8116.36773855
  -exchange  EXHF       =       339.53261431
  -V(xc)+E(xc)   XCENC  =       371.38838823
  PAW double counting   =     15916.39070152   -16397.72897808
  entropy T*S    EENTRO =         0.00074454
  eigenvalues    EBANDS =     -1777.29199241
  atomic energy  EATOM  =     18320.98302006
  ---------------------------------------------------
  free energy    TOTEN  =       -69.08590738 eV

  energy without entropy =      -69.08665191  energy(sigma->0) =      -69.08615556


--------------------------------------------------------------------------------------------------------




----------------------------------------- Iteration    1(   9)  ---------------------------------------


    POTLOK:  cpu time    0.06: real time    0.06
    SETDIJ:  cpu time    2.09: real time    2.09
 
    SUBROT:  cpu time    1.52: real time    1.52
    SUBROT:  cpu time    0.76: real time    0.76
    SUBROT:  cpu time    0.73: real time    0.73
    SUBROT:  cpu time    0.82: real time    0.82
    --------------------------------------------
    SUBRT+:  cpu time    3.84: real time    3.84

 Broyden mixing:
  rms(total) = 0.51953E-03    rms(broyden)= 0.51893E-03
  rms(prec ) = 0.81953E-03
  weight for this iteration     100.00

 eigenvalues of (default mixing * dielectric matrix)
  average eigenvalue GAMMA=   1.7016
  2.5257  1.0024  1.5769
 
    TRIAL :  cpu time  259.34: real time  259.28
    CORREC:  cpu time    0.00: real time    0.00
    CHARGE:  cpu time    0.08: real time    0.08
    --------------------------------------------
      LOOP:  cpu time  261.58: real time  261.53

 eigenvalue-minimisations  :     0
 total energy-change (2. order) :-0.3094683E+00  (-0.3853535E+00)
 number of electron     112.0001445 magnetization 
 augmentation part       37.9059759 magnetization 

 Free energy of the ion-electron system (eV)
  ---------------------------------------------------
  alpha Z        PSCENC =       339.31929130
  Ewald energy   TEWEN  =     -9065.31165918
  -1/2 Hartree   DENC   =     -8123.90626294
  -exchange  EXHF       =       339.60391564
  -V(xc)+E(xc)   XCENC  =       371.44975600
  PAW double counting   =     15912.54087748   -16393.78722894
  entropy T*S    EENTRO =         0.00088155
  eigenvalues    EBANDS =     -1770.28782966
  atomic energy  EATOM  =     18320.98302006
  ---------------------------------------------------
  free energy    TOTEN  =       -69.39537570 eV

  energy without entropy =      -69.39625725  energy(sigma->0) =      -69.39566955


--------------------------------------------------------------------------------------------------------




----------------------------------------- Iteration    1(  10)  ---------------------------------------


    POTLOK:  cpu time    0.06: real time    0.06
    SETDIJ:  cpu time    2.08: real time    2.08
 
    SUBROT:  cpu time    1.73: real time    1.72
    SUBROT:  cpu time    0.78: real time    0.78
    SUBROT:  cpu time    0.75: real time    0.75
    SUBROT:  cpu time    0.77: real time    0.79
    --------------------------------------------
    SUBRT+:  cpu time    4.04: real time    4.07

 Broyden mixing:
  rms(total) = 0.22820E-02    rms(broyden)= 0.22816E-02
  rms(prec ) = 0.38460E-02
  weight for this iteration     100.00

 eigenvalues of (default mixing * dielectric matrix)
  average eigenvalue GAMMA=   1.6887
  2.4749  0.9897  1.6016
 
    TRIAL :  cpu time  260.46: real time  260.46
    CORREC:  cpu time    0.00: real time    0.00
    CHARGE:  cpu time    0.09: real time    0.09
    --------------------------------------------
      LOOP:  cpu time  262.69: real time  262.70

 eigenvalue-minimisations  :     0
 total energy-change (2. order) :-0.1035611E+00  (-0.1519637E+00)
 number of electron     112.0001443 magnetization 
 augmentation part       37.8190695 magnetization 

 Free energy of the ion-electron system (eV)
  ---------------------------------------------------
  alpha Z        PSCENC =       339.31929130
  Ewald energy   TEWEN  =     -9065.31165918
  -1/2 Hartree   DENC   =     -8171.08646911
  -exchange  EXHF       =       340.40309568
  -V(xc)+E(xc)   XCENC  =       372.54214433
  PAW double counting   =     15994.00479829   -16481.96413598
  entropy T*S    EENTRO =         0.00073125
  eigenvalues    EBANDS =     -1718.38990369
  atomic energy  EATOM  =     18320.98302006
  ---------------------------------------------------
  free energy    TOTEN  =       -69.49893675 eV

  energy without entropy =      -69.49966800  energy(sigma->0) =      -69.49918050


--------------------------------------------------------------------------------------------------------




----------------------------------------- Iteration    1(  11)  ---------------------------------------


    POTLOK:  cpu time    0.06: real time    0.06
    SETDIJ:  cpu time    2.10: real time    2.10
 
    SUBROT:  cpu time    1.48: real time    1.47
    SUBROT:  cpu time    0.74: real time    0.74
    SUBROT:  cpu time    0.82: real time    0.82
    SUBROT:  cpu time    0.75: real time    0.75
    --------------------------------------------
    SUBRT+:  cpu time    3.79: real time    3.81

 Broyden mixing:
  rms(total) = 0.77660E-03    rms(broyden)= 0.77635E-03
  rms(prec ) = 0.15555E-02
  weight for this iteration     100.00

 eigenvalues of (default mixing * dielectric matrix)
  average eigenvalue GAMMA=   1.6767
  2.4938  0.9850  1.5513
 
    TRIAL :  cpu time  259.92: real time  259.82
    CORREC:  cpu time    0.00: real time    0.00
    CHARGE:  cpu time    0.10: real time    0.10
    --------------------------------------------
      LOOP:  cpu time  262.19: real time  262.08

 eigenvalue-minimisations  :     0
 total energy-change (2. order) :-0.6945989E-01  (-0.3690141E-01)
 number of electron     112.0001442 magnetization 
 augmentation part       37.7863435 magnetization 

 Free energy of the ion-electron system (eV)
  ---------------------------------------------------
  alpha Z        PSCENC =       339.31929130
  Ewald energy   TEWEN  =     -9065.31165918
  -1/2 Hartree   DENC   =     -8149.77579800
  -exchange  EXHF       =       340.07520021
  -V(xc)+E(xc)   XCENC  =       372.07008273
  PAW double counting   =     15942.16607669   -16427.09721626
  entropy T*S    EENTRO =         0.00061532
  eigenvalues    EBANDS =     -1741.99812545
  atomic energy  EATOM  =     18320.98302006
  ---------------------------------------------------
  free energy    TOTEN  =       -69.56839664 eV

  energy without entropy =      -69.56901196  energy(sigma->0) =      -69.56860175


--------------------------------------------------------------------------------------------------------




----------------------------------------- Iteration    1(  12)  ---------------------------------------


    POTLOK:  cpu time    0.05: real time    0.06
    SETDIJ:  cpu time    1.99: real time    1.99
 
    SUBROT:  cpu time    1.53: real time    1.53
    SUBROT:  cpu time    0.81: real time    0.81
    SUBROT:  cpu time    0.75: real time    0.75
    SUBROT:  cpu time    0.71: real time    0.71
    --------------------------------------------
    SUBRT+:  cpu time    3.81: real time    3.82

 Broyden mixing:
  rms(total) = 0.20665E-03    rms(broyden)= 0.20656E-03
  rms(prec ) = 0.45242E-03
  weight for this iteration     100.00

 eigenvalues of (default mixing * dielectric matrix)
  average eigenvalue GAMMA=   1.6523
  2.5056  0.9998  1.4516
 
    TRIAL :  cpu time  259.81: real time  259.97
    CORREC:  cpu time    0.00: real time    0.00
    CHARGE:  cpu time    0.09: real time    0.09
    --------------------------------------------
      LOOP:  cpu time  261.95: real time  262.12

 eigenvalue-minimisations  :     0
 total energy-change (2. order) :-0.1236955E-01  (-0.2278690E-01)
 number of electron     112.0001443 magnetization 
 augmentation part       37.8265223 magnetization 

 Free energy of the ion-electron system (eV)
  ---------------------------------------------------
  alpha Z        PSCENC =       339.31929130
  Ewald energy   TEWEN  =     -9065.31165918
  -1/2 Hartree   DENC   =     -8141.41957125
  -exchange  EXHF       =       339.95951339
  -V(xc)+E(xc)   XCENC  =       371.89570304
  PAW double counting   =     15920.43862740   -16404.28777419
  entropy T*S    EENTRO =         0.00056240
  eigenvalues    EBANDS =     -1751.15853207
  atomic energy  EATOM  =     18320.98302006
  ---------------------------------------------------
  free energy    TOTEN  =       -69.58076619 eV

  energy without entropy =      -69.58132859  energy(sigma->0) =      -69.58095366


--------------------------------------------------------------------------------------------------------




----------------------------------------- Iteration    1(  13)  ---------------------------------------


    POTLOK:  cpu time    0.05: real time    0.05
    SETDIJ:  cpu time    2.05: real time    2.05
 
    SUBROT:  cpu time    1.53: real time    1.53
    SUBROT:  cpu time    0.84: real time    0.84
    SUBROT:  cpu time    0.83: real time    0.83
    SUBROT:  cpu time    0.84: real time    0.84
    --------------------------------------------
    SUBRT+:  cpu time    4.04: real time    4.04

 Broyden mixing:
  rms(total) = 0.55405E-03    rms(broyden)= 0.55393E-03
  rms(prec ) = 0.94132E-03
  weight for this iteration     100.00

 eigenvalues of (default mixing * dielectric matrix)
  average eigenvalue GAMMA=   1.6971
  2.4798  0.9968  1.6149
 
    TRIAL :  cpu time  261.38: real time  261.38
    CORREC:  cpu time    0.00: real time    0.00
    CHARGE:  cpu time    0.11: real time    0.11
    --------------------------------------------
      LOOP:  cpu time  263.59: real time  263.59

 eigenvalue-minimisations  :     0
 total energy-change (2. order) :-0.9632403E-02  (-0.5115270E-02)
 number of electron     112.0001443 magnetization 
 augmentation part       37.8304172 magnetization 

 Free energy of the ion-electron system (eV)
  ---------------------------------------------------
  alpha Z        PSCENC =       339.31929130
  Ewald energy   TEWEN  =     -9065.31165918
  -1/2 Hartree   DENC   =     -8151.28278991
  -exchange  EXHF       =       340.13161763
  -V(xc)+E(xc)   XCENC  =       372.12908736
  PAW double counting   =     15936.63696908   -16421.97385909
  entropy T*S    EENTRO =         0.00055063
  eigenvalues    EBANDS =     -1740.22263824
  atomic energy  EATOM  =     18320.98302006
  ---------------------------------------------------
  free energy    TOTEN  =       -69.59039859 eV

  energy without entropy =      -69.59094922  energy(sigma->0) =      -69.59058214


--------------------------------------------------------------------------------------------------------




----------------------------------------- Iteration    1(  14)  ---------------------------------------


    POTLOK:  cpu time    0.05: real time    0.05
    SETDIJ:  cpu time    2.10: real time    2.10
 
    SUBROT:  cpu time    1.68: real time    1.68
    SUBROT:  cpu time    0.80: real time    0.80
    SUBROT:  cpu time    0.83: real time    0.83
    SUBROT:  cpu time    0.83: real time    0.83
    --------------------------------------------
    SUBRT+:  cpu time    4.15: real time    4.16

 Broyden mixing:
  rms(total) = 0.68313E-04    rms(broyden)= 0.68299E-04
  rms(prec ) = 0.13975E-03
  weight for this iteration     100.00

 eigenvalues of (default mixing * dielectric matrix)
  average eigenvalue GAMMA=   1.6735
  2.5154  0.9911  1.5141
 
    TRIAL :  cpu time  257.55: real time  257.37
    CORREC:  cpu time    0.00: real time    0.00
    CHARGE:  cpu time    0.11: real time    0.11
    --------------------------------------------
      LOOP:  cpu time  259.82: real time  259.64

 eigenvalue-minimisations  :     0
 total energy-change (2. order) :-0.2452242E-02  (-0.3769527E-02)
 number of electron     112.0001442 magnetization 
 augmentation part       37.8129240 magnetization 

 Free energy of the ion-electron system (eV)
  ---------------------------------------------------
  alpha Z        PSCENC =       339.31929130
  Ewald energy   TEWEN  =     -9065.31165918
  -1/2 Hartree   DENC   =     -8151.81881731
  -exchange  EXHF       =       340.12988240
  -V(xc)+E(xc)   XCENC  =       372.13857884
  PAW double counting   =     15934.61556555   -16420.11468800
  entropy T*S    EENTRO =         0.00056919
  eigenvalues    EBANDS =     -1739.53457512
  atomic energy  EATOM  =     18320.98302006
  ---------------------------------------------------
  free energy    TOTEN  =       -69.59285084 eV

  energy without entropy =      -69.59342002  energy(sigma->0) =      -69.59304056


--------------------------------------------------------------------------------------------------------




----------------------------------------- Iteration    1(  15)  ---------------------------------------


    POTLOK:  cpu time    0.05: real time    0.05
    SETDIJ:  cpu time    2.09: real time    2.09
 
    SUBROT:  cpu time    1.93: real time    1.93
    SUBROT:  cpu time    0.80: real time    0.80
    SUBROT:  cpu time    0.77: real time    0.77
    SUBROT:  cpu time    0.73: real time    0.73
    --------------------------------------------
    SUBRT+:  cpu time    4.23: real time    4.24

 Broyden mixing:
  rms(total) = 0.19395E-03    rms(broyden)= 0.19389E-03
  rms(prec ) = 0.33122E-03
  weight for this iteration     100.00

 eigenvalues of (default mixing * dielectric matrix)
  average eigenvalue GAMMA=   1.6887
  2.4716  0.9898  1.6048
 
    TRIAL :  cpu time  261.16: real time  261.03
    CORREC:  cpu time    0.00: real time    0.00
    CHARGE:  cpu time    0.10: real time    0.10
    --------------------------------------------
      LOOP:  cpu time  263.41: real time  263.30

 eigenvalue-minimisations  :     0
 total energy-change (2. order) :-0.1501344E-02  (-0.1034625E-02)
 number of electron     112.0001442 magnetization 
 augmentation part       37.8172437 magnetization 

 Free energy of the ion-electron system (eV)
  ---------------------------------------------------
  alpha Z        PSCENC =       339.31929130
  Ewald energy   TEWEN  =     -9065.31165918
  -1/2 Hartree   DENC   =     -8147.12381764
  -exchange  EXHF       =       340.04102755
  -V(xc)+E(xc)   XCENC  =       372.02764623
  PAW double counting   =     15922.60182280   -16407.49089810
  entropy T*S    EENTRO =         0.00058228
  eigenvalues    EBANDS =     -1744.64135439
  atomic energy  EATOM  =     18320.98302006
  ---------------------------------------------------
  free energy    TOTEN  =       -69.59435218 eV

  energy without entropy =      -69.59493446  energy(sigma->0) =      -69.59454627


--------------------------------------------------------------------------------------------------------




----------------------------------------- Iteration    1(  16)  ---------------------------------------


    POTLOK:  cpu time    0.05: real time    0.05
    SETDIJ:  cpu time    2.09: real time    2.09
 
    SUBROT:  cpu time    1.63: real time    1.63
    SUBROT:  cpu time    0.75: real time    0.75
    SUBROT:  cpu time    0.76: real time    0.76
    SUBROT:  cpu time    0.78: real time    0.78
    --------------------------------------------
    SUBRT+:  cpu time    3.92: real time    3.93

 Broyden mixing:
  rms(total) = 0.83167E-04    rms(broyden)= 0.83149E-04
  rms(prec ) = 0.13925E-03
  weight for this iteration     100.00

 eigenvalues of (default mixing * dielectric matrix)
  average eigenvalue GAMMA=   1.6897
  2.4859  0.9902  1.5931
 
    TRIAL :  cpu time  260.66: real time  260.67
    CORREC:  cpu time    0.00: real time    0.00
    CHARGE:  cpu time    0.08: real time    0.09
    --------------------------------------------
      LOOP:  cpu time  262.89: real time  262.90

 eigenvalue-minimisations  :     0
 total energy-change (2. order) :-0.5685960E-03  (-0.4082236E-03)
 number of electron     112.0001443 magnetization 
 augmentation part       37.8220442 magnetization 

 Free energy of the ion-electron system (eV)
  ---------------------------------------------------
  alpha Z        PSCENC =       339.31929130
  Ewald energy   TEWEN  =     -9065.31165918
  -1/2 Hartree   DENC   =     -8148.24262722
  -exchange  EXHF       =       340.05959867
  -V(xc)+E(xc)   XCENC  =       372.05479405
  PAW double counting   =     15923.46756177   -16408.54441269
  entropy T*S    EENTRO =         0.00058297
  eigenvalues    EBANDS =     -1743.38106982
  atomic energy  EATOM  =     18320.98302006
  ---------------------------------------------------
  free energy    TOTEN  =       -69.59492078 eV

[...]
     22      -2.2898      2.00000
     23      -1.9532      2.00000
     24      -1.6200      2.00000
     25      -1.2159      2.00000
     26      -1.0062      2.00000
     27      -0.9758      2.00000
     28      -0.7104      2.00000
     29      -0.5511      2.00000
     30      -0.3902      2.00000
     31      -0.2884      2.00000
     32      -0.2017      2.00000
     33      -0.1801      2.00000
     34      -0.1324      2.00000
     35      -0.0168      2.00000
     36       0.0189      2.00000
     37       1.2958      2.00000
     38       1.3087      2.00000
     39       1.3699      2.00000
     40       1.4114      2.00000
     41       1.4530      2.00000
     42       1.4692      2.00000
     43       1.5053      2.00000
     44       1.5518      2.00000
     45       1.7653      2.00000
     46       1.8943      2.00000
     47       1.9842      2.00000
     48       2.1517      2.00000
     49       2.3707      2.00000
     50       2.5751      2.00000
     51       2.7027      2.00000
     52       2.9093      2.00000
     53       3.0130      2.00000
     54       3.2188      2.00000
     55       3.3996      2.00000
     56       3.6554      2.00000
     57       6.3786     -0.00000
     58       6.5277     -0.00000
     59       7.7177      0.00000
     60       7.9022      0.00000
     61       8.3012      0.00000
     62       8.5722      0.00000
     63       9.3269      0.00000
     64       9.8453      0.00000
     65      10.0243      0.00000
     66      10.3556      0.00000
     67      10.5811      0.00000
     68      10.7877      0.00000
     69      10.9751      0.00000
     70      11.2525      0.00000
     71      11.3050      0.00000
     72      11.7027      0.00000
     73      12.2536      0.00000
     74      12.4622      0.00000
     75      13.0956      0.00000
     76      13.4866      0.00000
     77      13.8183      0.00000
     78      14.6912      0.00000
     79      15.0012      0.00000
     80      15.7214      0.00000

 k-point  40 :       0.2500   -0.2500    0.4000
  band No.  band energies     occupation 
      1     -68.6469      2.00000
      2     -68.6387      2.00000
      3     -68.6368      2.00000
      4     -68.6324      2.00000
      5     -68.6146      2.00000
      6     -68.6030      2.00000
      7     -68.5977      2.00000
      8     -68.5879      2.00000
      9     -68.5818      2.00000
     10     -68.5767      2.00000
     11     -68.5661      2.00000
     12     -68.5597      2.00000
     13     -12.2219      2.00000
     14     -11.8215      2.00000
     15     -10.8236      2.00000
     16     -10.6711      2.00000
     17     -10.3513      2.00000
     18     -10.2775      2.00000
     19      -5.4466      2.00000
     20      -5.1162      2.00000
     21      -2.4292      2.00000
     22      -2.1558      2.00000
     23      -2.0171      2.00000
     24      -1.5252      2.00000
     25      -1.3573      2.00000
     26      -1.1677      2.00000
     27      -0.9339      2.00000
     28      -0.8129      2.00000
     29      -0.5834      2.00000
     30      -0.5341      2.00000
     31      -0.2787      2.00000
     32      -0.2365      2.00000
     33      -0.1372      2.00000
     34      -0.0910      2.00000
     35      -0.0205      2.00000
     36       0.0344      2.00000
     37       1.3131      2.00000
     38       1.3463      2.00000
     39       1.3639      2.00000
     40       1.3998      2.00000
     41       1.4526      2.00000
     42       1.4816      2.00000
     43       1.4981      2.00000
     44       1.5646      2.00000
     45       1.8014      2.00000
     46       1.8469      2.00000
     47       1.9618      2.00000
     48       2.1085      2.00000
     49       2.2963      2.00000
     50       2.5311      2.00000
     51       2.6406      2.00000
     52       2.7694      2.00000
     53       2.9258      2.00000
     54       3.1608      2.00000
     55       3.3041      2.00000
     56       3.5741      2.00000
     57       6.5662     -0.00000
     58       6.7237     -0.00000
     59       7.9653      0.00000
     60       8.0007      0.00000
     61       8.7293      0.00000
     62       9.0914      0.00000
     63       9.4626      0.00000
     64       9.8267      0.00000
     65      10.2989      0.00000
     66      10.3664      0.00000
     67      10.7763      0.00000
     68      10.8522      0.00000
     69      11.1147      0.00000
     70      11.2714      0.00000
     71      11.3718      0.00000
     72      11.6168      0.00000
     73      12.0438      0.00000
     74      12.2932      0.00000
     75      12.6546      0.00000
     76      13.1218      0.00000
     77      13.2811      0.00000
     78      14.2427      0.00000
     79      15.6310      0.00000
     80      15.8296      0.00000

 k-point  41 :       0.5000   -0.2500    0.4000
  band No.  band energies     occupation 
      1     -68.6468      2.00000
      2     -68.6385      2.00000
      3     -68.6367      2.00000
      4     -68.6323      2.00000
      5     -68.6145      2.00000
      6     -68.6030      2.00000
      7     -68.5976      2.00000
      8     -68.5877      2.00000
      9     -68.5819      2.00000
     10     -68.5767      2.00000
     11     -68.5660      2.00000
     12     -68.5597      2.00000
     13     -12.0819      2.00000
     14     -11.7782      2.00000
     15     -10.8463      2.00000
     16     -10.7622      2.00000
     17     -10.5327      2.00000
     18     -10.3171      2.00000
     19      -5.4188      2.00000
     20      -4.9401      2.00000
     21      -2.4017      2.00000
     22      -2.1311      2.00000
     23      -1.8639      2.00000
     24      -1.7231      2.00000
     25      -1.4437      2.00000
     26      -1.1270      2.00000
     27      -0.8825      2.00000
     28      -0.6466      2.00000
     29      -0.6010      2.00000
     30      -0.4499      2.00000
     31      -0.2630      2.00000
     32      -0.1816      2.00000
     33      -0.1188      2.00000
     34      -0.0563      2.00000
     35      -0.0182      2.00000
     36       0.0265      2.00000
     37       1.2629      2.00000
     38       1.3185      2.00000
     39       1.4119      2.00000
     40       1.4362      2.00000
     41       1.4837      2.00000
     42       1.4944      2.00000
     43       1.5147      2.00000
     44       1.5741      2.00000
     45       1.7601      2.00000
     46       1.8423      2.00000
     47       2.1163      2.00000
     48       2.1861      2.00000
     49       2.3672      2.00000
     50       2.4594      2.00000
     51       2.4945      2.00000
     52       2.6945      2.00000
     53       2.8249      2.00000
     54       3.0861      2.00000
     55       3.2900      2.00000
     56       3.5229      2.00000
     57       6.5021     -0.00000
     58       6.5851     -0.00000
     59       7.4518      0.00000
     60       7.7254      0.00000
     61       8.5880      0.00000
     62       8.7455      0.00000
     63       9.3021      0.00000
     64       9.5318      0.00000
     65       9.9492      0.00000
     66      10.1887      0.00000
     67      10.6761      0.00000
     68      11.1150      0.00000
     69      11.2515      0.00000
     70      11.5645      0.00000
     71      11.7086      0.00000
     72      11.8943      0.00000
     73      12.2994      0.00000
     74      12.6601      0.00000
     75      13.0108      0.00000
     76      13.2364      0.00000
     77      13.6825      0.00000
     78      14.0846      0.00000
     79      14.4030      0.00000
     80      16.5486      0.00000

 k-point  42 :      -0.2500   -0.2500    0.4000
  band No.  band energies     occupation 
      1     -68.6470      2.00000
      2     -68.6385      2.00000
      3     -68.6369      2.00000
      4     -68.6323      2.00000
      5     -68.6145      2.00000
      6     -68.6030      2.00000
      7     -68.5976      2.00000
      8     -68.5877      2.00000
      9     -68.5819      2.00000
     10     -68.5767      2.00000
     11     -68.5662      2.00000
     12     -68.5598      2.00000
     13     -12.1813      2.00000
     14     -11.7079      2.00000
     15     -10.7175      2.00000
     16     -10.6948      2.00000
     17     -10.5859      2.00000
     18     -10.3946      2.00000
     19      -5.4449      2.00000
     20      -5.0724      2.00000
     21      -2.5090      2.00000
     22      -2.3816      2.00000
     23      -1.9660      2.00000
     24      -1.3654      2.00000
     25      -1.3308      2.00000
     26      -1.0551      2.00000
     27      -0.8317      2.00000
     28      -0.7678      2.00000
     29      -0.4227      2.00000
     30      -0.3379      2.00000
     31      -0.2721      2.00000
     32      -0.2091      2.00000
     33      -0.1433      2.00000
     34      -0.1375      2.00000
     35      -0.0103      2.00000
     36       0.0318      2.00000
     37       1.1733      2.00000
     38       1.3721      2.00000
     39       1.3977      2.00000
     40       1.4532      2.00000
     41       1.4560      2.00000
     42       1.4983      2.00000
     43       1.5184      2.00000
     44       1.5533      2.00000
     45       1.7432      2.00000
     46       1.8209      2.00000
     47       1.9795      2.00000
     48       2.2265      2.00000
     49       2.3972      2.00000
     50       2.6102      2.00000
     51       2.6534      2.00000
     52       2.9151      2.00000
     53       3.0693      2.00000
     54       3.1171      2.00000
     55       3.2852      2.00000
     56       3.5793      2.00000
     57       6.2927     -0.00000
     58       6.3841     -0.00000
     59       7.3560      0.00000
     60       7.5291      0.00000
     61       8.3107      0.00000
     62       8.3328      0.00000
     63       9.1066      0.00000
     64       9.3582      0.00000
     65       9.7164      0.00000
     66       9.9498      0.00000
     67      10.5268      0.00000
     68      10.9879      0.00000
     69      11.4240      0.00000
     70      11.5656      0.00000
     71      12.0154      0.00000
     72      12.2797      0.00000
     73      12.4309      0.00000
     74      12.4769      0.00000
     75      13.0380      0.00000
     76      13.1496      0.00000
     77      14.1360      0.00000
     78      14.4409      0.00000
     79      15.1652      0.00000
     80      15.8736      0.00000


--------------------------------------------------------------------------------------------------------


 soft charge-density along one line, spin component           1
         0         1         2         3         4         5         6         7         8         9
 total charge-density along one line
 
 pseudopotential strength for first ion, spin component:           1
-65.417   0.002   0.005   7.360   0.000  -0.002   0.001   0.006
  0.002 -65.386  -0.005   0.000   7.350   0.001  -0.001  -0.024
  0.005  -0.005 -65.378  -0.002   0.001   7.347  -0.037  -0.001
  7.360   0.000  -0.002   6.111   0.000   0.000   0.002  -0.003
  0.000   7.350   0.001   0.000   6.114  -0.000   0.000   0.007
 -0.002   0.001   7.347   0.000  -0.000   6.114   0.009   0.000
  0.001  -0.001  -0.037   0.002   0.000   0.009  -2.974  -0.003
  0.006  -0.024  -0.001  -0.003   0.007   0.000  -0.003  -2.978
  0.022   0.041   0.009  -0.005  -0.008  -0.003  -0.003   0.008
 -0.001  -0.017   0.006   0.000   0.005  -0.003   0.004   0.007
  0.026   0.000  -0.034  -0.007  -0.000   0.007  -0.000   0.007
  0.001  -0.001  -0.036   0.002   0.000   0.008  -3.621  -0.003
  0.006  -0.024  -0.001  -0.003   0.007   0.000  -0.003  -3.624
  0.022   0.041   0.009  -0.005  -0.008  -0.002  -0.003   0.008
 -0.001  -0.017   0.006   0.000   0.004  -0.003   0.004   0.007
  0.025   0.000  -0.034  -0.007  -0.000   0.006  -0.000   0.007
  0.007  -0.004   0.004  -0.001   0.001  -0.001  -0.001   0.000
  0.015  -0.009   0.009  -0.002   0.001  -0.002  -0.003   0.001
 total augmentation occupancy for first ion, spin component:           1
  2.000  -0.000   0.000  -0.003  -0.000   0.000   0.007  -0.005   0.001  -0.001  -0.005  -0.007   0.005  -0.001   0.001   0.004
 -0.000   2.000  -0.000  -0.000  -0.003   0.000  -0.001   0.005   0.005   0.001   0.000   0.001  -0.005  -0.005  -0.001  -0.000
  0.000  -0.000   2.000   0.000   0.000  -0.003  -0.000  -0.000  -0.001  -0.004  -0.004   0.001   0.000   0.001   0.005   0.005
 -0.003  -0.000   0.000   0.095   0.006  -0.005  -0.334   0.233  -0.073   0.012   0.017   0.280  -0.198   0.058  -0.007  -0.011
 -0.000  -0.003   0.000   0.006   0.101   0.001   0.020  -0.046  -0.436   0.016   0.011  -0.013   0.036   0.369  -0.011  -0.009
  0.000   0.000  -0.003  -0.005   0.001   0.099   0.098  -0.002  -0.013   0.237   0.354  -0.077   0.001   0.011  -0.203  -0.297
  0.007  -0.001  -0.000  -0.334   0.020   0.098   4.002  -0.793   0.097   0.217   0.147  -1.733   0.744  -0.089  -0.182  -0.141
 -0.005   0.005  -0.000   0.233  -0.046  -0.002  -0.793   3.507   0.286   0.153   0.296   0.743  -1.264  -0.211  -0.111  -0.206
  0.001   0.005  -0.001  -0.073  -0.436  -0.013   0.097   0.286   4.657  -0.042  -0.116  -0.089  -0.211  -2.363   0.036   0.086
 -0.001   0.001  -0.004   0.012   0.016   0.237   0.217   0.153  -0.042   3.629   0.797  -0.182  -0.111   0.036  -1.346  -0.759
 -0.005   0.000  -0.004   0.017   0.011   0.354   0.147   0.296  -0.116   0.797   3.990  -0.142  -0.205   0.086  -0.759  -1.738
 -0.007   0.001   0.001   0.280  -0.013  -0.077  -1.733   0.743  -0.089  -0.182  -0.142   1.441  -0.696   0.082   0.154   0.136
  0.005  -0.005   0.000  -0.198   0.036   0.001   0.744  -1.264  -0.211  -0.111  -0.205  -0.696   0.999   0.150   0.076   0.132
 -0.001  -0.005   0.001   0.058   0.369   0.011  -0.089  -0.211  -2.363   0.036   0.086   0.082   0.150   2.044  -0.031  -0.062
  0.001  -0.001   0.005  -0.007  -0.011  -0.203  -0.182  -0.111   0.036  -1.346  -0.759   0.154   0.076  -0.031   1.051   0.720
  0.004  -0.000   0.005  -0.011  -0.009  -0.297  -0.141  -0.206   0.086  -0.759  -1.738   0.136   0.132  -0.062   0.720   1.460
 -0.025   0.015  -0.013  -0.020   0.008  -0.006   0.079  -0.098  -0.003  -0.004   0.025  -0.063   0.086   0.018   0.004   0.006
  0.012  -0.007   0.006   0.001  -0.000  -0.000  -0.008   0.003  -0.006   0.004  -0.019   0.004  -0.005  -0.000  -0.001   0.003


------------------------ aborting loop because EDIFF is reached ----------------------------------------


    FORLOC:  cpu time    0.01: real time    0.01
    FORHF :  cpu time  570.04: real time  569.58
    FORNL :  cpu time    0.39: real time    0.39
    FORCOR:  cpu time    2.13: real time    2.13

 VOLUME and BASIS-vectors are now :
 -----------------------------------------------------------------------------
  energy-cutoff  :      400.00
  volume of cell :      221.90
      direct lattice vectors                 reciprocal lattice vectors
     3.224796000 -5.643830000  0.031572000     0.154525165 -0.088592321  0.053460880
     3.224796000  5.643830000  0.031572000     0.154525165  0.088592321  0.053460880
    -2.101946000  0.000000000  6.075537000    -0.001606004  0.000000000  0.164038877

  length of vectors
     6.500240234  6.500240234  6.428866683     0.185969598  0.185969598  0.164046738


 FORCES acting on ions:
    Electron-Ion                     Ewald-Force                    Non-Local-Force
 -----------------------------------------------------------------------------------------------
   -.146E+02 -.973E+02 0.867E+01   0.134E+02 0.949E+02 -.716E+01   0.103E+01 0.213E+01 -.130E+01
   -.146E+02 0.972E+02 0.124E+02   0.135E+02 -.948E+02 -.108E+02   0.100E+01 -.211E+01 -.143E+01
   0.254E+02 -.170E+02 0.407E+01   -.222E+02 0.168E+02 -.280E+01   -.285E+01 0.156E+00 -.111E+01
   0.258E+02 0.182E+02 0.492E+01   -.226E+02 -.180E+02 -.363E+01   -.285E+01 -.180E+00 -.112E+01
   -.109E+02 -.319E+02 -.110E+02   0.102E+02 0.305E+02 0.986E+01   0.658E+00 0.139E+01 0.113E+01
   -.110E+02 0.315E+02 -.113E+02   0.103E+02 -.302E+02 0.101E+02   0.681E+00 -.134E+01 0.113E+01
   -.135E+03 -.990E+01 -.490E+02   0.132E+03 0.993E+01 0.482E+02   0.278E+01 -.272E-01 0.736E+00
   0.703E+02 -.126E+03 0.959E+02   -.686E+02 0.123E+03 -.938E+02   -.157E+01 0.229E+01 -.185E+01
   0.663E+02 -.133E+03 -.477E+02   -.648E+02 0.131E+03 0.467E+02   -.131E+01 0.215E+01 0.788E+00
   0.703E+02 0.126E+03 0.963E+02   -.686E+02 -.123E+03 -.943E+02   -.157E+01 -.230E+01 -.187E+01
   -.135E+03 0.990E+01 -.494E+02   0.132E+03 -.993E+01 0.486E+02   0.278E+01 0.243E-01 0.748E+00
   0.665E+02 0.133E+03 -.500E+02   -.650E+02 -.130E+03 0.490E+02   -.134E+01 -.218E+01 0.890E+00
 -----------------------------------------------------------------------------------------------
   0.280E+01 -.145E-01 0.370E+01   -.142E-13 0.568E-13 -.107E-12   -.255E+01 0.420E-02 -.325E+01
 
 
 POSITION                                       TOTAL-FORCE (eV/Angst)
 -----------------------------------------------------------------------------------
      2.13385     -2.80652      0.74958        -0.002581     -0.000928      0.028741
      1.08288      2.80652      3.78735         0.000596      0.002722      0.000467
      5.40423     -0.97432      0.77721         0.002426     -0.000491      0.000368
      4.35326      0.97432      3.81498        -0.005895     -0.014426      0.005884
      1.02081     -0.97328      3.66185        -0.025379      0.042309      0.020743
      2.07178      0.97328      0.62409         0.001187     -0.009746     -0.000125
      2.15090      4.69667      3.05304        -0.002108      0.003255     -0.002601
      1.11215     -0.89759      5.98620        -0.005871     -0.002385      0.011413
      2.13960     -2.74882      3.04831         0.038246     -0.021735     -0.084802
      2.16313      0.89759      2.94844        -0.004331      0.004864      0.002230
      1.09993     -4.69667      6.09081         0.000094     -0.001586      0.009374
      1.09189      2.74882      6.07662         0.003616     -0.001853      0.008307
 -----------------------------------------------------------------------------------
    total drift:                               -0.058827     -0.001141     -0.054015


--------------------------------------------------------------------------------------------------------



  FREE ENERGIE OF THE ION-ELECTRON SYSTEM (eV)
  ---------------------------------------------------
  free  energy   TOTEN  =       -69.59526566 eV

  energy  without entropy=      -69.59584217  energy(sigma->0) =      -69.59545783
 


--------------------------------------------------------------------------------------------------------


    POTLOK:  cpu time    2.14: real time    2.15


--------------------------------------------------------------------------------------------------------


 writing wavefunctions
     LOOP+:  cpu time 6072.72: real time 6073.60
    4ORBIT:  cpu time    0.00: real time    0.00

 total amount of memory used by VASP on root node   155701. kBytes
========================================================================

   base      :      30000. kBytes
   nonl-proj :      74517. kBytes
   fftplans  :        702. kBytes
   grid      :       2400. kBytes
   one-center:        186. kBytes
   HF        :        194. kBytes
   nonlr-proj:       5126. kBytes
   wavefun   :      42576. kBytes
 
  
  
 General timing and accounting informations for this job:
 ========================================================
  
                  Total CPU time used (sec):     6109.378
                            User time (sec):     6103.262
                          System time (sec):        6.116
                         Elapsed time (sec):     6113.000
  
                   Maximum memory used (kb):      297128.
                   Average memory used (kb):           0.
  
                          Minor page faults:        78518
                          Major page faults:            0
                 Voluntary context switches:         3653
