 vasp.5.3.3 18Dez12 (build Nov 13 2015 09:58:40) complex                        
  
 executed on             LinuxIFC date 2017.10.18  13:10:55
 running on   48 total cores
 distrk:  each k-point on   16 cores,    3 groups
 distr:  one band on NCORES_PER_BAND=   1 cores,   16 groups


--------------------------------------------------------------------------------------------------------


 INCAR:
 POTCAR:    PAW_PBE Cu_pv 06Sep2000               
 POTCAR:    PAW_PBE Ge 05Jan2001                  
 POTCAR:    PAW_PBE S 17Jan2003                   

 ----------------------------------------------------------------------------- 
|                                                                             |
|           W    W    AA    RRRRR   N    N  II  N    N   GGGG   !!!           |
|           W    W   A  A   R    R  NN   N  II  NN   N  G    G  !!!           |
|           W    W  A    A  R    R  N N  N  II  N N  N  G       !!!           |
|           W WW W  AAAAAA  RRRRR   N  N N  II  N  N N  G  GGG   !            |
|           WW  WW  A    A  R   R   N   NN  II  N   NN  G    G                |
|           W    W  A    A  R    R  N    N  II  N    N   GGGG   !!!           |
|                                                                             |
|      For optimal performance we recommend that you set                      |
|        NPAR = 4 - approx SQRT( number of cores)                             |
|      (number of cores/NPAR must be integer)                                 |
|      This setting will greatly improve the performance of VASP for DFT.     |
|      The default NPAR=number of cores might be grossly inefficient          |
|      on modern multi-core architectures or massively parallel machines.     |
|      Do your own testing.                                                   |
|      Unfortunately you need to use the default for hybrid, GW and RPA       |
|      calculations.                                                          |
|                                                                             |
 ----------------------------------------------------------------------------- 


 ----------------------------------------------------------------------------- 
|                                                                             |
|           W    W    AA    RRRRR   N    N  II  N    N   GGGG   !!!           |
|           W    W   A  A   R    R  NN   N  II  NN   N  G    G  !!!           |
|           W    W  A    A  R    R  N N  N  II  N N  N  G       !!!           |
|           W WW W  AAAAAA  RRRRR   N  N N  II  N  N N  G  GGG   !            |
|           WW  WW  A    A  R   R   N   NN  II  N   NN  G    G                |
|           W    W  A    A  R    R  N    N  II  N    N   GGGG   !!!           |
|                                                                             |
|      You have enabled k-point parallelism (KPAR>1).                         |
|      This developmental code was originally  written by Paul Kent at ORNL,  |
|      and carefully double checked in Vienna.                                |
|      GW as well as linear response parallelism added by Martijn Marsman     |
|      and Georg Kresse.                                                      |
|      Carefully verify results versus KPAR=1.                                |
|      Report problems to Paul Kent and Vienna.                               |
|                                                                             |
 ----------------------------------------------------------------------------- 

 POTCAR:    PAW_PBE Cu_pv 06Sep2000               
   VRHFIN =Cu: d10 p1                                                           
   LEXCH  = PE                                                                  
   EATOM  =  4120.1201 eV,  302.8203 Ry                                         
                                                                                
   TITEL  = PAW_PBE Cu_pv 06Sep2000                                             
   LULTRA =        F    use ultrasoft PP ?                                      
   IUNSCR =        1    unscreen: 0-lin 1-nonlin 2-no                           
   RPACOR =    1.500    partial core radius                                     
   POMASS =   63.546; ZVAL   =   17.000    mass and valenz                      
   RCORE  =    2.000    outmost cutoff radius                                   
   RWIGS  =    2.000; RWIGS  =    1.058    wigner-seitz radius (au A)           
   ENMAX  =  368.648; ENMIN  =  276.486 eV                                      
   RCLOC  =    1.304    cutoff for local pot                                    
   LCOR   =        T    correct aug charges                                     
   LPAW   =        T    paw PP                                                  
   EAUG   =  758.233                                                            
   DEXC   =    0.000                                                            
   RMAX   =    2.046    core radius for proj-oper                               
   RAUG   =    1.300    factor for augmentation sphere                          
   RDEP   =    2.025    radius for radial grids                                 
   RDEPT  =    1.558    core radius for aug-charge                              
                                                                                
   Atomic configuration                                                         
    8 entries                                                                   
     n  l   j            E        occ.                                          
     1  0  0.50     -8850.2467   2.0000                                         
     2  0  0.50     -1062.3498   2.0000                                         
     2  1  1.50      -916.8226   6.0000                                         
     3  0  0.50      -114.6929   2.0000                                         
     3  1  1.50       -72.1325   6.0000                                         
     3  2  2.50        -5.0394  10.0000                                         
     4  0  0.50        -4.6097   1.0000                                         
     4  3  2.50        -1.3606   0.0000                                         
   Description                                                                  
     l       E           TYP  RCUT    TYP  RCUT                                 
     1    -72.1324777     23  1.700                                             
     1     -1.3605826     23  1.700                                             
     2     -5.0393776     23  2.000                                             
     2     -6.3999602     23  2.000                                             
     0     -4.6097062     23  1.800                                             
     0     14.1620818     23  1.800                                             
  local pseudopotential read in
  partial core-charges read in
  partial kinetic energy density read in
  atomic valenz-charges read in
  non local Contribution for L=           1  read in
    real space projection operators read in
  non local Contribution for L=           1  read in
    real space projection operators read in
  non local Contribution for L=           2  read in
    real space projection operators read in
  non local Contribution for L=           2  read in
    real space projection operators read in
  non local Contribution for L=           0  read in
    real space projection operators read in
  non local Contribution for L=           0  read in
    real space projection operators read in
    PAW grid and wavefunctions read in
 
   number of l-projection  operators is LMAX  =           6
   number of lm-projection operators is LMMAX =          18
 
 POTCAR:    PAW_PBE Ge 05Jan2001                  
   VRHFIN =Ge: s2p2                                                             
   LEXCH  = PE                                                                  
   EATOM  =   104.9960 eV,    7.7170 Ry                                         
                                                                                
   TITEL  = PAW_PBE Ge 05Jan2001                                                
   LULTRA =        F    use ultrasoft PP ?                                      
   IUNSCR =        1    unscreen: 0-lin 1-nonlin 2-no                           
   RPACOR =    2.170    partial core radius                                     
   POMASS =   72.610; ZVAL   =    4.000    mass and valenz                      
   RCORE  =    2.300    outmost cutoff radius                                   
   RWIGS  =    2.300; RWIGS  =    1.217    wigner-seitz radius (au A)           
   ENMAX  =  173.807; ENMIN  =  130.355 eV                                      
   ICORE  =        3    local potential                                         
   LCOR   =        T    correct aug charges                                     
   LPAW   =        T    paw PP                                                  
   EAUG   =  385.843                                                            
   DEXC   =    0.000                                                            
   RMAX   =    2.342    core radius for proj-oper                               
   RAUG   =    1.300    factor for augmentation sphere                          
   RDEP   =    2.318    radius for radial grids                                 
   RDEPT  =    2.103    core radius for aug-charge                              
                                                                                
   Atomic configuration                                                         
   10 entries                                                                   
     n  l   j            E        occ.                                          
     1  0  0.50    -10959.8463   2.0000                                         
     2  0  0.50     -1371.6056   2.0000                                         
     2  1  1.50     -1198.4791   6.0000                                         
     3  0  0.50      -168.4733   2.0000                                         
     3  1  1.50      -115.6019   6.0000                                         
     3  2  2.50       -29.3106  10.0000                                         
     4  0  0.50       -11.7309   2.0000                                         
     4  1  0.50        -3.8952   2.0000                                         
     4  2  1.50        -4.0817   0.0000                                         
     4  3  2.50        -4.0817   0.0000                                         
   Description                                                                  
     l       E           TYP  RCUT    TYP  RCUT                                 
     0    -11.7309493     23  2.300                                             
     0     -7.4578696     23  2.300                                             
     1     -3.8952261     23  2.300                                             
     1      6.1178114     23  2.300                                             
     2     -4.0817478     23  2.300                                             
     3     -1.3605826      7  2.300                                             
  local pseudopotential read in
  partial core-charges read in
  partial kinetic energy density read in
  atomic valenz-charges read in
  non local Contribution for L=           0  read in
    real space projection operators read in
  non local Contribution for L=           0  read in
    real space projection operators read in
  non local Contribution for L=           1  read in
    real space projection operators read in
  non local Contribution for L=           1  read in
    real space projection operators read in
  non local Contribution for L=           2  read in
    real space projection operators read in
    PAW grid and wavefunctions read in
 
   number of l-projection  operators is LMAX  =           5
   number of lm-projection operators is LMMAX =          13
 
 POTCAR:    PAW_PBE S 17Jan2003                   
   VRHFIN =S : s2p4                                                             
   LEXCH  = PE                                                                  
   EATOM  =   276.8230 eV,   20.3459 Ry                                         
                                                                                
   TITEL  = PAW_PBE S 17Jan2003                                                 
   LULTRA =        F    use ultrasoft PP ?                                      
   IUNSCR =        1    unscreen: 0-lin 1-nonlin 2-no                           
   RPACOR =    1.500    partial core radius                                     
   POMASS =   32.066; ZVAL   =    6.000    mass and valenz                      
   RCORE  =    1.900    outmost cutoff radius                                   
   RWIGS  =    2.200; RWIGS  =    1.164    wigner-seitz radius (au A)           
   ENMAX  =  280.000; ENMIN  =  194.016 eV                                      
   ICORE  =        2    local potential                                         
   LCOR   =        T    correct aug charges                                     
   LPAW   =        T    paw PP                                                  
   EAUG   =  335.092                                                            
   DEXC   =     .000                                                            
   RMAX   =    2.867    core radius for proj-oper                               
   RAUG   =    1.300    factor for augmentation sphere                          
   RDEP   =    1.954    radius for radial grids                                 
   QCUT   =   -4.360; QGAM   =    8.721    optimization parameters              
                                                                                
   Description                                                                  
     l     E      TYP  RCUT    TYP  RCUT                                        
     0   .000     23  1.900                                                     
     0   .000     23  1.900                                                     
     1   .000     23  1.900                                                     
     1   .000     23  1.900                                                     
     2   .000     23  1.900                                                     
  local pseudopotential read in
  partial core-charges read in
  atomic valenz-charges read in
  non local Contribution for L=           0  read in
    real space projection operators read in
  non local Contribution for L=           0  read in
    real space projection operators read in
  non local Contribution for L=           1  read in
    real space projection operators read in
  non local Contribution for L=           1  read in
    real space projection operators read in
    PAW grid and wavefunctions read in
 
   number of l-projection  operators is LMAX  =           4
   number of lm-projection operators is LMMAX =           8
 
  PAW_PBE Cu_pv 06Sep2000               :
 energy of atom  1       EATOM=-4120.1201
 kinetic energy error for atom=    0.0996 (will be added to EATOM!!)
  PAW_PBE Ge 05Jan2001                  :
 energy of atom  2       EATOM= -104.9960
 kinetic energy error for atom=    0.0003 (will be added to EATOM!!)
  PAW_PBE S 17Jan2003                   :
 energy of atom  3       EATOM= -276.8230
 kinetic energy error for atom=    0.0046 (will be added to EATOM!!)
 
 
 POSCAR: Cu Ge S                                 
  positions in direct lattice
  No initial velocities read in
 exchange correlation table for  LEXCH =        8
   RHO(1)=    0.500       N(1)  =     2000
   RHO(2)=  100.500       N(2)  =     4000
 


--------------------------------------------------------------------------------------------------------


 ion  position               nearest neighbor table
   1  0.618  0.121  0.120-   9 2.29  11 2.29  12 2.30   8 2.35
   2  0.121  0.618  0.620-   7 2.29  12 2.29   9 2.30  10 2.35
   3  0.963  0.790  0.119-  11 2.30  12 2.30   7 2.32   8 2.36
   4  0.790  0.963  0.619-   7 2.29   9 2.30  11 2.31  10 2.36
   5  0.440  0.267  0.599-   9 2.19   7 2.19  10 2.31   8 2.33
   6  0.267  0.440  0.099-  11 2.19  12 2.19   8 2.31  10 2.33
   7  0.079  0.912  0.499-   5 2.19   2 2.29   4 2.29   3 2.32
   8  0.571  0.412  0.980-   6 2.31   5 2.33   1 2.35   3 2.36
   9  0.737  0.250  0.495-   5 2.19   1 2.29   4 2.30   2 2.30
  10  0.412  0.571  0.480-   5 2.31   6 2.33   2 2.35   4 2.36
  11  0.912  0.079  0.997-   6 2.19   1 2.29   3 2.30   4 2.31
  12  0.250  0.737  0.995-   6 2.19   2 2.29   3 2.30   1 2.30
 
  Warning from LATTYP: Got some problem with cell dimensions!
  Tried to take original basis but could not verify dimensions!
  LATTYP: Found a base centered monoclinic cell.
 ALAT       =     6.4499010947
 B/A-ratio  =     1.7500516418
 C/A-ratio  =     1.9305142024
 COS(beta)  =    -0.4326083233
  
  Lattice vectors:
  
 A1 = (   3.2247960000,   5.6438300000,   0.0315720000)
 A2 = (   3.2247960000,  -5.6438300000,   0.0315720000)
 A3 = ( -10.7972380000,   0.0000000000,  -6.2018250000)


Analysis of symmetry for initial positions (statically):
=====================================================================
 Subroutine PRICEL returns:
 Original cell was already a primitive cell.
 

 Routine SETGRP: Setting up the symmetry group for a 
 base centered monoclinic supercell.


 Subroutine GETGRP returns: Found  1 space group operations
 (whereof  1 operations were pure point group operations)
 out of a pool of  4 trial point group operations.


The static configuration has the point symmetry C_1 .


Analysis of symmetry for dynamics (positions and initial velocities):
=====================================================================
 Subroutine PRICEL returns:
 Original cell was already a primitive cell.
 

 Routine SETGRP: Setting up the symmetry group for a 
 base centered monoclinic supercell.


 Subroutine GETGRP returns: Found  1 space group operations
 (whereof  1 operations were pure point group operations)
 out of a pool of  4 trial point group operations.


The dynamic configuration has the point symmetry C_1 .


 irot  :   1
 --------------------------------------------------------------------
 isymop:   1   0   0
           0   1   0
           0   0   1

 gtrans:     0.0000000     0.0000000     0.0000000

 ptrans:     0.0000000     0.0000000     0.0000000
 rotmap:
 (   1->   1)  (   2->   2)  (   3->   3)  (   4->   4)  (   5->   5) 
 (   6->   6)  (   7->   7)  (   8->   8)  (   9->   9)  (  10->  10) 
 (  11->  11)  (  12->  12) 
 
 
 KPOINTS: pymatgen 4.7.6+ generated KPOINTS with g

Automatic generation of k-mesh.
Space group operators:
 irot       det(A)        alpha          n_x          n_y          n_z        tau_x        tau_y        tau_z
    1     1.000000     0.000000     1.000000     0.000000     0.000000     0.000000     0.000000     0.000000
 
 Subroutine IBZKPT returns following result:
 ===========================================
 
 Found     42 irreducible k-points:
 
 Following reciprocal coordinates:
            Coordinates               Weight
  0.000000  0.000000  0.000000      1.000000
  0.250000  0.000000  0.000000      2.000000
  0.500000  0.000000  0.000000      1.000000
  0.000000  0.250000  0.000000      2.000000
  0.250000  0.250000  0.000000      2.000000
  0.500000  0.250000 -0.000000      2.000000
 -0.250000  0.250000  0.000000      2.000000
  0.000000  0.500000  0.000000      1.000000
  0.250000  0.500000 -0.000000      2.000000
  0.500000  0.500000  0.000000      1.000000
 -0.000000 -0.000000  0.200000      2.000000
  0.250000  0.000000  0.200000      2.000000
  0.500000  0.000000  0.200000      2.000000
 -0.250000 -0.000000  0.200000      2.000000
  0.000000  0.250000  0.200000      2.000000
  0.250000  0.250000  0.200000      2.000000
  0.500000  0.250000  0.200000      2.000000
 -0.250000  0.250000  0.200000      2.000000
  0.000000  0.500000  0.200000      2.000000
  0.250000  0.500000  0.200000      2.000000
  0.500000  0.500000  0.200000      2.000000
 -0.250000  0.500000  0.200000      2.000000
 -0.000000 -0.250000  0.200000      2.000000
  0.250000 -0.250000  0.200000      2.000000
  0.500000 -0.250000  0.200000      2.000000
 -0.250000 -0.250000  0.200000      2.000000
 -0.000000 -0.000000  0.400000      2.000000
  0.250000  0.000000  0.400000      2.000000
  0.500000  0.000000  0.400000      2.000000
 -0.250000  0.000000  0.400000      2.000000
  0.000000  0.250000  0.400000      2.000000
  0.250000  0.250000  0.400000      2.000000
  0.500000  0.250000  0.400000      2.000000
 -0.250000  0.250000  0.400000      2.000000
  0.000000  0.500000  0.400000      2.000000
  0.250000  0.500000  0.400000      2.000000
  0.500000  0.500000  0.400000      2.000000
 -0.250000  0.500000  0.400000      2.000000
  0.000000 -0.250000  0.400000      2.000000
  0.250000 -0.250000  0.400000      2.000000
  0.500000 -0.250000  0.400000      2.000000
 -0.250000 -0.250000  0.400000      2.000000
 
 Following cartesian coordinates:
            Coordinates               Weight
  0.000000  0.000000  0.000000      1.000000
  0.038631 -0.022148  0.013365      2.000000
  0.077263 -0.044296  0.026730      1.000000
  0.038631  0.022148  0.013365      2.000000
  0.077263  0.000000  0.026730      2.000000
  0.115894 -0.022148  0.040096      2.000000
  0.000000  0.044296  0.000000      2.000000
  0.077263  0.044296  0.026730      1.000000
  0.115894  0.022148  0.040096      2.000000
  0.154525  0.000000  0.053461      1.000000
 -0.000321  0.000000  0.032808      2.000000
  0.038310 -0.022148  0.046173      2.000000
  0.076941 -0.044296  0.059538      2.000000
 -0.038952  0.022148  0.019443      2.000000
  0.038310  0.022148  0.046173      2.000000
  0.076941  0.000000  0.059538      2.000000
  0.115573 -0.022148  0.072903      2.000000
 -0.000321  0.044296  0.032808      2.000000
  0.076941  0.044296  0.059538      2.000000
  0.115573  0.022148  0.072903      2.000000
  0.154204  0.000000  0.086269      2.000000
  0.038310  0.066444  0.046173      2.000000
 -0.038952 -0.022148  0.019443      2.000000
 -0.000321 -0.044296  0.032808      2.000000
  0.038310 -0.066444  0.046173      2.000000
 -0.077584  0.000000  0.006077      2.000000
 -0.000642  0.000000  0.065616      2.000000
  0.037989 -0.022148  0.078981      2.000000
  0.076620 -0.044296  0.092346      2.000000
 -0.039274  0.022148  0.052250      2.000000
  0.037989  0.022148  0.078981      2.000000
  0.076620  0.000000  0.092346      2.000000
  0.115251 -0.022148  0.105711      2.000000
 -0.000642  0.044296  0.065616      2.000000
  0.076620  0.044296  0.092346      2.000000
  0.115251  0.022148  0.105711      2.000000
  0.153883  0.000000  0.119076      2.000000
  0.037989  0.066444  0.078981      2.000000
 -0.039274 -0.022148  0.052250      2.000000
 -0.000642 -0.044296  0.065616      2.000000
  0.037989 -0.066444  0.078981      2.000000
 -0.077905  0.000000  0.038885      2.000000
 
 
 Subroutine IBZKPT_HF returns following result:
 ==============================================
 
 Found     80 k-points in 1st BZ
 the following     80 k-points will be used (e.g. in the exchange kernel)
 Following reciprocal coordinates:   # in IRBZ
  0.000000  0.000000  0.000000       1 t-inv F
  0.250000  0.000000  0.000000       2 t-inv F
  0.500000  0.000000  0.000000       3 t-inv F
  0.000000  0.250000  0.000000       4 t-inv F
  0.250000  0.250000  0.000000       5 t-inv F
  0.500000  0.250000 -0.000000       6 t-inv F
 -0.250000  0.250000  0.000000       7 t-inv F
  0.000000  0.500000  0.000000       8 t-inv F
  0.250000  0.500000 -0.000000       9 t-inv F
  0.500000  0.500000  0.000000      10 t-inv F
 -0.000000 -0.000000  0.200000      11 t-inv F
  0.250000  0.000000  0.200000      12 t-inv F
  0.500000  0.000000  0.200000      13 t-inv F
 -0.250000 -0.000000  0.200000      14 t-inv F
  0.000000  0.250000  0.200000      15 t-inv F
  0.250000  0.250000  0.200000      16 t-inv F
  0.500000  0.250000  0.200000      17 t-inv F
 -0.250000  0.250000  0.200000      18 t-inv F
  0.000000  0.500000  0.200000      19 t-inv F
  0.250000  0.500000  0.200000      20 t-inv F
  0.500000  0.500000  0.200000      21 t-inv F
 -0.250000  0.500000  0.200000      22 t-inv F
 -0.000000 -0.250000  0.200000      23 t-inv F
  0.250000 -0.250000  0.200000      24 t-inv F
  0.500000 -0.250000  0.200000      25 t-inv F
 -0.250000 -0.250000  0.200000      26 t-inv F
 -0.000000 -0.000000  0.400000      27 t-inv F
  0.250000  0.000000  0.400000      28 t-inv F
  0.500000  0.000000  0.400000      29 t-inv F
 -0.250000  0.000000  0.400000      30 t-inv F
  0.000000  0.250000  0.400000      31 t-inv F
  0.250000  0.250000  0.400000      32 t-inv F
  0.500000  0.250000  0.400000      33 t-inv F
 -0.250000  0.250000  0.400000      34 t-inv F
  0.000000  0.500000  0.400000      35 t-inv F
  0.250000  0.500000  0.400000      36 t-inv F
  0.500000  0.500000  0.400000      37 t-inv F
 -0.250000  0.500000  0.400000      38 t-inv F
  0.000000 -0.250000  0.400000      39 t-inv F
  0.250000 -0.250000  0.400000      40 t-inv F
  0.500000 -0.250000  0.400000      41 t-inv F
 -0.250000 -0.250000  0.400000      42 t-inv F
 -0.250000 -0.000000 -0.000000       2 t-inv T
 -0.000000 -0.250000 -0.000000       4 t-inv T
 -0.250000 -0.250000  0.000000       5 t-inv T
 -0.500000 -0.250000  0.000000       6 t-inv T
  0.250000 -0.250000  0.000000       7 t-inv T
 -0.250000 -0.500000  0.000000       9 t-inv T
  0.000000  0.000000 -0.200000      11 t-inv T
 -0.250000 -0.000000 -0.200000      12 t-inv T
 -0.500000 -0.000000 -0.200000      13 t-inv T
  0.250000  0.000000 -0.200000      14 t-inv T
 -0.000000 -0.250000 -0.200000      15 t-inv T
 -0.250000 -0.250000 -0.200000      16 t-inv T
 -0.500000 -0.250000 -0.200000      17 t-inv T
  0.250000 -0.250000 -0.200000      18 t-inv T
 -0.000000 -0.500000 -0.200000      19 t-inv T
 -0.250000 -0.500000 -0.200000      20 t-inv T
 -0.500000 -0.500000 -0.200000      21 t-inv T
  0.250000 -0.500000 -0.200000      22 t-inv T
  0.000000  0.250000 -0.200000      23 t-inv T
 -0.250000  0.250000 -0.200000      24 t-inv T
 -0.500000  0.250000 -0.200000      25 t-inv T
  0.250000  0.250000 -0.200000      26 t-inv T
  0.000000  0.000000 -0.400000      27 t-inv T
 -0.250000 -0.000000 -0.400000      28 t-inv T
 -0.500000 -0.000000 -0.400000      29 t-inv T
  0.250000 -0.000000 -0.400000      30 t-inv T
 -0.000000 -0.250000 -0.400000      31 t-inv T
 -0.250000 -0.250000 -0.400000      32 t-inv T
 -0.500000 -0.250000 -0.400000      33 t-inv T
  0.250000 -0.250000 -0.400000      34 t-inv T
 -0.000000 -0.500000 -0.400000      35 t-inv T
 -0.250000 -0.500000 -0.400000      36 t-inv T
 -0.500000 -0.500000 -0.400000      37 t-inv T
  0.250000 -0.500000 -0.400000      38 t-inv T
 -0.000000  0.250000 -0.400000      39 t-inv T
 -0.250000  0.250000 -0.400000      40 t-inv T
 -0.500000  0.250000 -0.400000      41 t-inv T
  0.250000  0.250000 -0.400000      42 t-inv T


--------------------------------------------------------------------------------------------------------




 Dimension of arrays:
   k-points           NKPTS =     42   k-points in BZ     NKDIM =     80   number of bands    NBANDS=     80
   number of dos      NEDOS =    301   number of ions     NIONS =     12
   non local maximal  LDIM  =      6   non local SUM 2l+1 LMDIM =     18
   total plane-waves  NPLWV =  32768
   max r-space proj   IRMAX =      1   max aug-charges    IRDMAX=   8224
   dimension x,y,z NGX =    32 NGY =   32 NGZ =   32
   dimension x,y,z NGXF=    64 NGYF=   64 NGZF=   64
   support grid    NGXF=    64 NGYF=   64 NGZF=   64
   ions per type =               4   2   6
 NGX,Y,Z   is equivalent  to a cutoff of   8.18,  8.18,  8.27 a.u.
 NGXF,Y,Z  is equivalent  to a cutoff of  16.37, 16.37, 16.55 a.u.


 I would recommend the setting:
   dimension x,y,z NGX =    32 NGY =   32 NGZ =   31
 SYSTEM =  CGS                                     
 POSCAR =  Cu Ge S                                 

 Startparameter for this run:
   NWRITE =      2    write-flag & timer
   PREC   = normal    normal or accurate (medium, high low for compatibility)
   ISTART =      1    job   : 0-new  1-cont  2-samecut
   ICHARG =      0    charge: 1-file 2-atom 10-const
   ISPIN  =      1    spin polarized calculation?
   LNONCOLLINEAR =      F non collinear calculations
   LSORBIT =      F    spin-orbit coupling
   INIWAV =      1    electr: 0-lowe 1-rand  2-diag
   LASPH  =      F    aspherical Exc in radial PAW
   METAGGA=      F    non-selfconsistent MetaGGA calc.

 Electronic Relaxation 1
   ENCUT  =  400.0 eV  29.40 Ry    5.42 a.u.  10.60 10.60 10.48*2*pi/ulx,y,z
   ENINI  =  400.0     initial cutoff
   ENAUG  =  758.2 eV  augmentation charge cutoff
   NELM   =     60;   NELMIN=  2; NELMDL=  0     # of ELM steps 
   EDIFF  = 0.1E-04   stopping-criterion for ELM
   LREAL  =      F    real-space projection
   NLSPLINE    = F    spline interpolate recip. space projectors
   LCOMPAT=      F    compatible to vasp.4.4
   GGA_COMPAT  = T    GGA compatible to vasp.4.4-vasp.4.6
   LMAXPAW     = -100 max onsite density
   LMAXMIX     =    2 max onsite mixed and CHGCAR
   VOSKOWN=      0    Vosko Wilk Nusair interpolation
   ROPT   =    0.00000   0.00000   0.00000
 Ionic relaxation
   EDIFFG = 0.1E-03   stopping-criterion for IOM
   NSW    =      0    number of steps for IOM
   NBLOCK =      1;   KBLOCK =      1    inner block; outer block 
   IBRION =     -1    ionic relax: 0-MD 1-quasi-New 2-CG
   NFREE  =      0    steps in history (QN), initial steepest desc. (CG)
   ISIF   =      0    stress and relaxation
   IWAVPR =     10    prediction:  0-non 1-charg 2-wave 3-comb
   ISYM   =      3    0-nonsym 1-usesym 2-fastsym
   LCORR  =      T    Harris-Foulkes like correction to forces

   POTIM  = 0.5000    time-step for ionic-motion
   TEIN   =    0.0    initial temperature
   TEBEG  =    0.0;   TEEND  =   0.0 temperature during run
   SMASS  =  -3.00    Nose mass-parameter (am)
   estimated Nose-frequenzy (Omega)   =  0.10E-29 period in steps =****** mass=  -0.966E-27a.u.
   SCALEE = 1.0000    scale energy and forces
   NPACO  =    256;   APACO  = 16.0  distance and # of slots for P.C.
   PSTRESS=    0.0 pullay stress

  Mass of Ions in am
   POMASS =  63.55 72.61 32.07
  Ionic Valenz
   ZVAL   =  17.00  4.00  6.00
  Atomic Wigner-Seitz radii
   RWIGS  =  -1.00 -1.00 -1.00
  virtual crystal weights 
   VCA    =   1.00  1.00  1.00
   NELECT =     112.0000    total number of electrons
   NUPDOWN=      -1.0000    fix difference up-down

 DOS related values:
   EMIN   =  10.00;   EMAX   =-10.00  energy-range for DOS
   EFERMI =   0.00
   ISMEAR =     1;   SIGMA  =   0.10  broadening in eV -4-tet -1-fermi 0-gaus

 Electronic relaxation 2 (details)
   IALGO  =     53    algorithm
   LDIAG  =      T    sub-space diagonalisation (order eigenvalues)
   LSUBROT=      T    optimize rotation matrix (better conditioning)
   TURBO    =      0    0=normal 1=particle mesh
   IRESTART =      0    0=no restart 2=restart with 2 vectors
   NREBOOT  =      0    no. of reboots
   NMIN     =      0    reboot dimension
   EREF     =   0.00    reference energy to select bands
   IMIX   =      4    mixing-type and parameters
     AMIX     =   0.40;   BMIX     =  1.00
     AMIX_MAG =   1.60;   BMIX_MAG =  1.00
     AMIN     =   0.10
     WC   =   100.;   INIMIX=   1;  MIXPRE=   1;  MAXMIX= -45

 Intra band minimization:
   WEIMIN = 0.0000     energy-eigenvalue tresh-hold
   EBREAK =  0.31E-07  absolut break condition
   DEPER  =   0.30     relativ break condition  

   TIME   =   0.40     timestep for ELM

  volume/ion in A,a.u.               =      18.49       124.79
  Fermi-wavevector in a.u.,A,eV,Ry     =   1.303450  2.463163 23.116052  1.698982
  Thomas-Fermi vector in A             =   2.434451
 
 Write flags
   LWAVE  =      T    write WAVECAR
   LCHARG =      T    write CHGCAR
   LVTOT  =      F    write LOCPOT, total local potential
   LVHAR  =      F    write LOCPOT, Hartree potential only
   LELF   =      F    write electronic localiz. function (ELF)
   LORBIT =      0    0 simple, 1 ext, 2 COOP (PROOUT)


 Dipole corrections
   LMONO  =      F    monopole corrections only (constant potential shift)
   LDIPOL =      F    correct potential (dipole corrections)
   IDIPOL =      0    1-x, 2-y, 3-z, 4-all directions 
   EPSILON=  1.0000000 bulk dielectric constant

 Exchange correlation treatment:
   GGA     =    PE    GGA type
   LEXCH   =     8    internal setting for exchange type
   VOSKOWN=      0    Vosko Wilk Nusair interpolation
   EXXOEP  =     0    0=HF, 1=EXX-LHF (local Hartree Fock) 2=EXX OEP
   LHFCALC =     T    Hartree Fock is set to
   LSYMGRAD=     F    symmetrize gradient (conserves proper symmetry)
   PRECFOCK=fast      Normal, Fast or Accurate (Low or Medium for compatibility)
   LRHFCALC=     F    long range Hartree Fock
   LRSCOR  =     F    long range correlation only (use DFT for short range part)
   LTHOMAS =     F    Thomas Fermi screening in HF
   LMODELHF=     F    short range full HF, long range fraction AEXX
   ENCUT4O =  -1.0   cutoff for four orbital integrals eV
   LMAXFOCK=     4    L truncation for augmentation on plane wave grid
   LMAXFOCKAE=  -1    L truncation for all-electron charge restoration on plane wave grid
   NMAXFOCKAE=   1    number of basis functions for all-electron charge restoration
   LFOCKAEDFT=     F  apply the AE augmentation even for DFT
   NKREDX  =     1    reduce k-point grid by
   NKREDY  =     1    reduce k-point grid by
   NKREDZ  =     1    reduce k-point grid by
   SHIFTRED=     F    shift reduced grid of Gamma
   HFKIDENT=     F    idential grid for each k-point
   ODDONLY =     F    use only odd q-grid points
   EVENONLY=     F    use only even q-grid points
   HFALPHA =   -1.0000 decay constant for conv. correction
   MCALPHA =    0.0000 extent of test-charge in conv. correction in multipole expansion
   AEXX    =    0.2500 exact exchange contribution
   HFSCREEN=    0.2000 screening length (either q_TF or 0.3 A-1)
   HFSCREENC=   0.2000 screening length for correlation (either q_TF or 0.3 A-1)
   HFRCUT  =    0.0000 spherical cutoff for potential kernel
   ALDAX   =    0.7500 LDA exchange part
   AGGAX   =    0.7500 GGA exchange part
   ALDAC   =    1.0000 LDA correlation
   AGGAC   =    1.0000 GGA correlation
   NBANDSGWLOW=     1    first orbital included in HF term
 Linear response parameters
   LEPSILON=     F    determine dielectric tensor
   LRPA    =     F    only Hartree local field effects (RPA)
   LNABLA  =     F    use nabla operator in PAW spheres
   LVEL    =     F    velocity operator in full k-point grid
   LINTERFAST=   F  fast interpolation
   KINTER  =     0    interpolate to denser k-point grid
   CSHIFT  =0.1000    complex shift for real part using Kramers Kronig
   OMEGAMAX=  -1.0    maximum frequency
   DEG_THRESHOLD= 0.2000000E-02 threshold for treating states as degnerate
   RTIME   =    0.100 relaxation time in fs

 Orbital magnetization related:
   ORBITALMAG=     F  switch on orbital magnetization
   LCHIMAG   =     F  perturbation theory with respect to B field
   DQ        =  0.001000  dq finite difference perturbation B field



--------------------------------------------------------------------------------------------------------


 Static calculation
 charge density and potential will be updated during run
 non-spin polarized calculation
 Conjugate gradient for all bands, subspace preconditioning
 perform sub-space diagonalisation
    before iterative eigenvector-optimisation
 modified Broyden-mixing scheme, WC =      100.0
 initial mixing is a Kerker type mixing with AMIX =  0.4000 and BMIX =      1.0000
 Hartree-type preconditioning will be used
 using additional bands           24
 reciprocal scheme for non local part
 use partial core corrections
 no Harris-corrections to forces 
 use gradient corrections 
 use of overlap-Matrix (Vanderbilt PP)
 Methfessel and Paxton  Order N= 1 SIGMA  =   0.10


--------------------------------------------------------------------------------------------------------


  energy-cutoff  :      400.00
  volume of cell :      221.90
      direct lattice vectors                 reciprocal lattice vectors
     3.224796000 -5.643830000  0.031572000     0.154525165 -0.088592321  0.053460880
     3.224796000  5.643830000  0.031572000     0.154525165  0.088592321  0.053460880
    -2.101946000  0.000000000  6.075537000    -0.001606004  0.000000000  0.164038877

  length of vectors
     6.500240234  6.500240234  6.428866683     0.185969598  0.185969598  0.164046738


 
 old parameters found on file WAVECAR:
  energy-cutoff  :      400.00
  volume of cell :      222.35
      direct lattice vectors                 reciprocal lattice vectors
     3.227235519 -5.642745207  0.030241751     0.154430495 -0.088609353  0.053450002
     3.227235519  5.642745207  0.030241751     0.154430495  0.088609353  0.053450002
    -2.106135241  0.000000000  6.085154262    -0.001534965  0.000000000  0.163803104

  length of vectors

 
 k-points in units of 2pi/SCALE and weight: pymatgen 4.7.6+ generated KPOINTS with g
   0.00000000  0.00000000  0.00000000       0.013
   0.03863129 -0.02214808  0.01336522       0.025
   0.07726258 -0.04429616  0.02673044       0.013
   0.03863129  0.02214808  0.01336522       0.025
   0.07726258  0.00000000  0.02673044       0.025
   0.11589387 -0.02214808  0.04009566       0.025
   0.00000000  0.04429616  0.00000000       0.025
   0.07726258  0.04429616  0.02673044       0.013
   0.11589387  0.02214808  0.04009566       0.025
   0.15452516  0.00000000  0.05346088       0.013
  -0.00032120  0.00000000  0.03280778       0.025
   0.03831009 -0.02214808  0.04617300       0.025
   0.07694138 -0.04429616  0.05953822       0.025
  -0.03895249  0.02214808  0.01944256       0.025
   0.03831009  0.02214808  0.04617300       0.025
   0.07694138  0.00000000  0.05953822       0.025
   0.11557267 -0.02214808  0.07290344       0.025
  -0.00032120  0.04429616  0.03280778       0.025
   0.07694138  0.04429616  0.05953822       0.025
   0.11557267  0.02214808  0.07290344       0.025
   0.15420396  0.00000000  0.08626865       0.025
   0.03831009  0.06644424  0.04617300       0.025
  -0.03895249 -0.02214808  0.01944256       0.025
  -0.00032120 -0.04429616  0.03280778       0.025
   0.03831009 -0.06644424  0.04617300       0.025
  -0.07758378  0.00000000  0.00607734       0.025
  -0.00064240  0.00000000  0.06561555       0.025
   0.03798889 -0.02214808  0.07898077       0.025
   0.07662018 -0.04429616  0.09234599       0.025
  -0.03927369  0.02214808  0.05225033       0.025
   0.03798889  0.02214808  0.07898077       0.025
   0.07662018  0.00000000  0.09234599       0.025
   0.11525147 -0.02214808  0.10571121       0.025
  -0.00064240  0.04429616  0.06561555       0.025
   0.07662018  0.04429616  0.09234599       0.025
   0.11525147  0.02214808  0.10571121       0.025
   0.15388276  0.00000000  0.11907643       0.025
   0.03798889  0.06644424  0.07898077       0.025
  -0.03927369 -0.02214808  0.05225033       0.025
  -0.00064240 -0.04429616  0.06561555       0.025
   0.03798889 -0.06644424  0.07898077       0.025
  -0.07790498  0.00000000  0.03888511       0.025
 
 k-points in reciprocal lattice and weights: pymatgen 4.7.6+ generated KPOINTS with g
   0.00000000  0.00000000  0.00000000       0.013
   0.25000000  0.00000000  0.00000000       0.025
   0.50000000  0.00000000  0.00000000       0.013
   0.00000000  0.25000000  0.00000000       0.025
   0.25000000  0.25000000  0.00000000       0.025
   0.50000000  0.25000000 -0.00000000       0.025
  -0.25000000  0.25000000  0.00000000       0.025
   0.00000000  0.50000000  0.00000000       0.013
   0.25000000  0.50000000 -0.00000000       0.025
   0.50000000  0.50000000  0.00000000       0.013
  -0.00000000 -0.00000000  0.20000000       0.025
   0.25000000  0.00000000  0.20000000       0.025
   0.50000000  0.00000000  0.20000000       0.025
  -0.25000000 -0.00000000  0.20000000       0.025
   0.00000000  0.25000000  0.20000000       0.025
   0.25000000  0.25000000  0.20000000       0.025
   0.50000000  0.25000000  0.20000000       0.025
  -0.25000000  0.25000000  0.20000000       0.025
   0.00000000  0.50000000  0.20000000       0.025
   0.25000000  0.50000000  0.20000000       0.025
   0.50000000  0.50000000  0.20000000       0.025
  -0.25000000  0.50000000  0.20000000       0.025
  -0.00000000 -0.25000000  0.20000000       0.025
   0.25000000 -0.25000000  0.20000000       0.025
   0.50000000 -0.25000000  0.20000000       0.025
  -0.25000000 -0.25000000  0.20000000       0.025
  -0.00000000 -0.00000000  0.40000000       0.025
   0.25000000  0.00000000  0.40000000       0.025
   0.50000000  0.00000000  0.40000000       0.025
  -0.25000000  0.00000000  0.40000000       0.025
   0.00000000  0.25000000  0.40000000       0.025
   0.25000000  0.25000000  0.40000000       0.025
   0.50000000  0.25000000  0.40000000       0.025
  -0.25000000  0.25000000  0.40000000       0.025
   0.00000000  0.50000000  0.40000000       0.025
   0.25000000  0.50000000  0.40000000       0.025
   0.50000000  0.50000000  0.40000000       0.025
  -0.25000000  0.50000000  0.40000000       0.025
   0.00000000 -0.25000000  0.40000000       0.025
   0.25000000 -0.25000000  0.40000000       0.025
   0.50000000 -0.25000000  0.40000000       0.025
  -0.25000000 -0.25000000  0.40000000       0.025
 
 position of ions in fractional coordinates (direct lattice) 
   0.61844300  0.12117100  0.11953300
   0.12117100  0.61844300  0.61953300
   0.96295700  0.79032200  0.11881300
   0.79032200  0.96295700  0.61881300
   0.43973200  0.26728100  0.59904700
   0.26728100  0.43973200  0.09904700
   0.07949800  0.91167500  0.49891848
   0.57140300  0.41236400  0.98018400
   0.73711100  0.25006200  0.49504900
   0.41236400  0.57140300  0.48018400
   0.91167500  0.07949800  0.99736300
   0.25006200  0.73711100  0.99504900
 
 position of ions in cartesian coordinates  (Angst):
   2.13385236 -2.80651863  0.74957826
   1.08287936  2.80651863  3.78734676
   5.40422860 -0.97432259  0.77720730
   4.35325560  0.97432259  3.81497580
   1.02080825 -0.97328413  3.66185403
   2.07178125  0.97328413  0.62408553
   2.14763101  4.69666552  3.06249102
   1.11215405 -0.89758908  5.98620365
   2.14286528 -2.74882176  3.03885554
   2.16312705  0.89758908  2.94843515
   1.09992756 -4.69666552  6.09080912
   1.09189228  2.74882176  6.07662404
 


--------------------------------------------------------------------------------------------------------


 k-point  1 :   0.0000 0.0000 0.0000  plane waves:    4051
 k-point  2 :   0.2500 0.0000 0.0000  plane waves:    4032
 k-point  3 :   0.5000 0.0000 0.0000  plane waves:    4030
 k-point  4 :   0.0000 0.2500 0.0000  plane waves:    4032
 k-point  5 :   0.2500 0.2500 0.0000  plane waves:    4038
 k-point  6 :   0.5000 0.2500-0.0000  plane waves:    4037
 k-point  7 :  -0.2500 0.2500 0.0000  plane waves:    4042
 k-point  8 :   0.0000 0.5000 0.0000  plane waves:    4030
 k-point  9 :   0.2500 0.5000-0.0000  plane waves:    4037
 k-point 10 :   0.5000 0.5000 0.0000  plane waves:    4026
 k-point 11 :  -0.0000-0.0000 0.2000  plane waves:    4046
 k-point 12 :   0.2500 0.0000 0.2000  plane waves:    4034
 k-point 13 :   0.5000 0.0000 0.2000  plane waves:    4025
 k-point 14 :  -0.2500-0.0000 0.2000  plane waves:    4044
 k-point 15 :   0.0000 0.2500 0.2000  plane waves:    4034
 k-point 16 :   0.2500 0.2500 0.2000  plane waves:    4017
 k-point 17 :   0.5000 0.2500 0.2000  plane waves:    4039
 k-point 18 :  -0.2500 0.2500 0.2000  plane waves:    4042
 k-point 19 :   0.0000 0.5000 0.2000  plane waves:    4025
 k-point 20 :   0.2500 0.5000 0.2000  plane waves:    4039
 k-point 21 :   0.5000 0.5000 0.2000  plane waves:    4030
 k-point 22 :  -0.2500 0.5000 0.2000  plane waves:    4030
 k-point 23 :  -0.0000-0.2500 0.2000  plane waves:    4044
 k-point 24 :   0.2500-0.2500 0.2000  plane waves:    4042
 k-point 25 :   0.5000-0.2500 0.2000  plane waves:    4030
 k-point 26 :  -0.2500-0.2500 0.2000  plane waves:    4020
 k-point 27 :  -0.0000-0.0000 0.4000  plane waves:    4027
 k-point 28 :   0.2500 0.0000 0.4000  plane waves:    4034
 k-point 29 :   0.5000 0.0000 0.4000  plane waves:    4013
 k-point 30 :  -0.2500 0.0000 0.4000  plane waves:    4042
 k-point 31 :   0.0000 0.2500 0.4000  plane waves:    4034
 k-point 32 :   0.2500 0.2500 0.4000  plane waves:    4009
 k-point 33 :   0.5000 0.2500 0.4000  plane waves:    4026
 k-point 34 :  -0.2500 0.2500 0.4000  plane waves:    4027
 k-point 35 :   0.0000 0.5000 0.4000  plane waves:    4013
 k-point 36 :   0.2500 0.5000 0.4000  plane waves:    4026
 k-point 37 :   0.5000 0.5000 0.4000  plane waves:    4037
 k-point 38 :  -0.2500 0.5000 0.4000  plane waves:    4022
 k-point 39 :   0.0000-0.2500 0.4000  plane waves:    4042
 k-point 40 :   0.2500-0.2500 0.4000  plane waves:    4027
 k-point 41 :   0.5000-0.2500 0.4000  plane waves:    4022
 k-point 42 :  -0.2500-0.2500 0.4000  plane waves:    4015

 maximum and minimum number of plane-waves per node :      4051     4009

 maximum number of plane-waves:      4051
 maximum index in each direction: 
   IXMAX=   10   IYMAX=   10   IZMAX=   10
   IXMIN=  -11   IYMIN=  -11   IZMIN=  -10

 WARNING: aliasing errors must be expected set NGX to  44 to avoid them
 WARNING: aliasing errors must be expected set NGY to  44 to avoid them
 WARNING: aliasing errors must be expected set NGZ to  42 to avoid them
 aliasing errors are usually negligible using standard VASP settings
 and one can safely disregard these warnings

 serial   3D FFT for wavefunctions
 parallel 3D FFT for charge:
    minimum data exchange during FFTs selected (reduces bandwidth)


 FFT grid for exact exchange (Hartree Fock) 
  NGX = 24; NGY = 24; NGZ = 24

 
 Radii for the augmentation spheres in the non-local exchange
 for species   1 augmentation radius   1.120 (default was   0.830)
       energy cutoff for augmentation   1600.0
 for species   2 augmentation radius   1.570 (default was   1.163)
       energy cutoff for augmentation   1600.0
 for species   3 augmentation radius   1.034 (default was   0.970)
       energy cutoff for augmentation   1600.0

 total amount of memory used by VASP on root node   151696. kBytes
========================================================================

   base      :      30000. kBytes
   nonl-proj :      74517. kBytes
   fftplans  :        702. kBytes
   grid      :       2400. kBytes
   one-center:        186. kBytes
   HF        :        194. kBytes
   nonlr-proj:       1121. kBytes
   wavefun   :      42576. kBytes
 
 Broyden mixing: mesh for mixing (old mesh)
   NGX = 21   NGY = 21   NGZ = 21
  (NGX  = 64   NGY  = 64   NGZ  = 64)
  gives a total of   9261 points

 charge density for first step will be calculated from the start-wavefunctions


--------------------------------------------------------------------------------------------------------


 Maximum index for augmentation-charges          485 (set IRDMAX)


--------------------------------------------------------------------------------------------------------


 initial charge from wavefunction
 First call to EWALD:  gamma=   0.293
 Maximum number of real-space cells 3x 3x 3
 Maximum number of reciprocal cells 3x 3x 3

 FEWALD executed in parallel
    FEWALD:  cpu time    0.00: real time    0.00


----------------------------------------- Iteration    1(   1)  ---------------------------------------


    POTLOK:  cpu time    0.05: real time    0.05
    SETDIJ:  cpu time    1.88: real time    1.88
 
    SUBROT:  cpu time    0.76: real time    0.76
    SUBROT:  cpu time    0.36: real time    0.36
    SUBROT:  cpu time    0.37: real time    0.37
    SUBROT:  cpu time    0.37: real time    0.37
    --------------------------------------------
    SUBRT+:  cpu time    1.87: real time    1.87

 Broyden mixing:
  rms(total) = 0.10147E-01    rms(broyden)= 0.10143E-01
  rms(prec ) = 0.18470E-01
  weight for this iteration     100.00

 eigenvalues of (default mixing * dielectric matrix)
  average eigenvalue GAMMA=   1.6232
  2.4493  0.8793  1.5410
 
    TRIAL :  cpu time  232.58: real time  232.38
    CORREC:  cpu time    0.00: real time    0.00
    CHARGE:  cpu time    0.06: real time    0.06
    --------------------------------------------
      LOOP:  cpu time  234.58: real time  234.38

 eigenvalue-minimisations  :     0
 total energy-change (2. order) : 0.7554023E+02  (-0.2131984E+03)
 number of electron     112.0001477 magnetization 
 augmentation part       38.9115368 magnetization 

 Free energy of the ion-electron system (eV)
  ---------------------------------------------------
  alpha Z        PSCENC =       339.31929130
  Ewald energy   TEWEN  =     -9064.65978207
  -1/2 Hartree   DENC   =     -8067.44262879
  -exchange  EXHF       =       327.44974397
  -V(xc)+E(xc)   XCENC  =       369.90425301
  PAW double counting   =     16899.47029191   -17392.28440768
  entropy T*S    EENTRO =        -0.00146941
  eigenvalues    EBANDS =     -1657.20021288
  atomic energy  EATOM  =     18320.98302006
  ---------------------------------------------------
  free energy    TOTEN  =        75.54023211 eV

  energy without entropy =       75.54170153  energy(sigma->0) =       75.54072192


--------------------------------------------------------------------------------------------------------




----------------------------------------- Iteration    1(   2)  ---------------------------------------


    POTLOK:  cpu time    0.05: real time    0.05
    SETDIJ:  cpu time    1.88: real time    1.88
 
    SUBROT:  cpu time    0.76: real time    0.76
    SUBROT:  cpu time    0.38: real time    0.38
    SUBROT:  cpu time    0.38: real time    0.38
    SUBROT:  cpu time    0.38: real time    0.38
    --------------------------------------------
    SUBRT+:  cpu time    1.90: real time    1.92

 Broyden mixing:
  rms(total) = 0.28056E-01    rms(broyden)= 0.28046E-01
  rms(prec ) = 0.51454E-01
  weight for this iteration     100.00

 eigenvalues of (default mixing * dielectric matrix)
  average eigenvalue GAMMA=   1.5426
  2.5443  1.2325  0.8509
 
    TRIAL :  cpu time  238.06: real time  237.87
    CORREC:  cpu time    0.00: real time    0.00
    CHARGE:  cpu time    0.06: real time    0.06
    --------------------------------------------
      LOOP:  cpu time  240.05: real time  239.89

 eigenvalue-minimisations  :     0
 total energy-change (2. order) :-0.8391849E+02  (-0.1468938E+03)
 number of electron     112.0001382 magnetization 
 augmentation part       35.4538912 magnetization 

 Free energy of the ion-electron system (eV)
  ---------------------------------------------------
  alpha Z        PSCENC =       339.31929130
  Ewald energy   TEWEN  =     -9064.65978207
  -1/2 Hartree   DENC   =     -8370.35613862
  -exchange  EXHF       =       338.95903840
  -V(xc)+E(xc)   XCENC  =       377.32228160
  PAW double counting   =     17401.37588221   -17940.51483232
  entropy T*S    EENTRO =        -0.00059794
  eigenvalues    EBANDS =     -1410.80554591
  atomic energy  EATOM  =     18320.98302006
  ---------------------------------------------------
  free energy    TOTEN  =        -8.37825477 eV

  energy without entropy =       -8.37765683  energy(sigma->0) =       -8.37805546


--------------------------------------------------------------------------------------------------------




----------------------------------------- Iteration    1(   3)  ---------------------------------------


    POTLOK:  cpu time    0.05: real time    0.05
    SETDIJ:  cpu time    1.95: real time    1.94
 
    SUBROT:  cpu time    0.79: real time    0.79
    SUBROT:  cpu time    0.37: real time    0.37
    SUBROT:  cpu time    0.37: real time    0.37
    SUBROT:  cpu time    0.36: real time    0.36
    --------------------------------------------
    SUBRT+:  cpu time    1.90: real time    1.90

 Broyden mixing:
  rms(total) = 0.28180E-01    rms(broyden)= 0.28168E-01
  rms(prec ) = 0.52474E-01
  weight for this iteration     100.00

 eigenvalues of (default mixing * dielectric matrix)
  average eigenvalue GAMMA=   1.7728
  1.0114  2.4991  1.8080
 
    TRIAL :  cpu time  244.31: real time  244.09
    CORREC:  cpu time    0.00: real time    0.00
    CHARGE:  cpu time    0.06: real time    0.06
    --------------------------------------------
      LOOP:  cpu time  246.36: real time  246.16

 eigenvalue-minimisations  :     0
 total energy-change (2. order) :-0.6788528E+01  (-0.2038408E+03)
 number of electron     112.0001507 magnetization 
 augmentation part       39.6843368 magnetization 

 Free energy of the ion-electron system (eV)
  ---------------------------------------------------
  alpha Z        PSCENC =       339.31929130
  Ewald energy   TEWEN  =     -9064.65978207
  -1/2 Hartree   DENC   =     -7477.74318780
  -exchange  EXHF       =       324.99020214
  -V(xc)+E(xc)   XCENC  =       357.39429895
  PAW double counting   =     15150.15632910   -15579.59795361
  entropy T*S    EENTRO =         0.00023224
  eigenvalues    EBANDS =     -2386.00840255
  atomic energy  EATOM  =     18320.98302006
  ---------------------------------------------------
  free energy    TOTEN  =       -15.16678242 eV

  energy without entropy =      -15.16701466  energy(sigma->0) =      -15.16685983


--------------------------------------------------------------------------------------------------------




----------------------------------------- Iteration    1(   4)  ---------------------------------------


    POTLOK:  cpu time    0.07: real time    0.07
    SETDIJ:  cpu time    1.94: real time    1.94
 
    SUBROT:  cpu time    0.77: real time    0.77
    SUBROT:  cpu time    0.38: real time    0.38
    SUBROT:  cpu time    0.37: real time    0.37
    SUBROT:  cpu time    0.37: real time    0.37
    SUBROT:  cpu time    0.39: real time    0.39
    --------------------------------------------
    SUBRT+:  cpu time    2.28: real time    2.29

 Broyden mixing:
  rms(total) = 0.11307E+00    rms(broyden)= 0.11288E+00
  rms(prec ) = 0.19927E+00
  weight for this iteration     100.00

 eigenvalues of (default mixing * dielectric matrix)
  average eigenvalue GAMMA=   1.2308
  2.5727  1.3121  0.6540  0.3844
 
    TRIAL :  cpu time  242.23: real time  242.02
    CORREC:  cpu time    0.00: real time    0.00
    CHARGE:  cpu time    0.07: real time    0.07
    --------------------------------------------
      LOOP:  cpu time  244.32: real time  244.11

 eigenvalue-minimisations  :     0
 total energy-change (2. order) :-0.7481762E+01  (-0.1073763E+03)
 number of electron     112.0001427 magnetization 
 augmentation part       37.2451838 magnetization 

 Free energy of the ion-electron system (eV)
  ---------------------------------------------------
  alpha Z        PSCENC =       339.31929130
  Ewald energy   TEWEN  =     -9064.65978207
  -1/2 Hartree   DENC   =     -8543.30279817
  -exchange  EXHF       =       342.99703284
  -V(xc)+E(xc)   XCENC  =       381.65594910
  PAW double counting   =     17632.60148036   -18213.31125276
  entropy T*S    EENTRO =         0.00034907
  eigenvalues    EBANDS =     -1218.93171777
  atomic energy  EATOM  =     18320.98302006
  ---------------------------------------------------
  free energy    TOTEN  =       -22.64854488 eV

  energy without entropy =      -22.64889394  energy(sigma->0) =      -22.64866123


--------------------------------------------------------------------------------------------------------




----------------------------------------- Iteration    1(   5)  ---------------------------------------


    POTLOK:  cpu time    0.05: real time    0.05
    SETDIJ:  cpu time    1.89: real time    1.89
 
    SUBROT:  cpu time    0.78: real time    0.78
    SUBROT:  cpu time    0.37: real time    0.37
    SUBROT:  cpu time    0.37: real time    0.37
    SUBROT:  cpu time    0.37: real time    0.37
    --------------------------------------------
    SUBRT+:  cpu time    1.89: real time    1.90

 Broyden mixing:
  rms(total) = 0.44573E-01    rms(broyden)= 0.44563E-01
  rms(prec ) = 0.90915E-01
  weight for this iteration     100.00

 eigenvalues of (default mixing * dielectric matrix)
  average eigenvalue GAMMA=   1.6834
  2.4612  0.9358  1.6533
 
    TRIAL :  cpu time  240.88: real time  240.67
    CORREC:  cpu time    0.00: real time    0.00
    CHARGE:  cpu time    0.05: real time    0.05
    --------------------------------------------
      LOOP:  cpu time  242.87: real time  242.67

 eigenvalue-minimisations  :     0
 total energy-change (2. order) :-0.3817357E+02  (-0.1504876E+02)
 number of electron     112.0001427 magnetization 
 augmentation part       37.2457775 magnetization 

 Free energy of the ion-electron system (eV)
  ---------------------------------------------------
  alpha Z        PSCENC =       339.31929130
  Ewald energy   TEWEN  =     -9064.65978207
  -1/2 Hartree   DENC   =     -8008.83907724
  -exchange  EXHF       =       336.39448774
  -V(xc)+E(xc)   XCENC  =       368.40769321
  PAW double counting   =     15870.71309329   -16340.16722698
  entropy T*S    EENTRO =         0.00061867
  eigenvalues    EBANDS =     -1882.97396518
  atomic energy  EATOM  =     18320.98302006
  ---------------------------------------------------
  free energy    TOTEN  =       -60.82211680 eV

  energy without entropy =      -60.82273548  energy(sigma->0) =      -60.82232303


--------------------------------------------------------------------------------------------------------




----------------------------------------- Iteration    1(   6)  ---------------------------------------


    POTLOK:  cpu time    0.05: real time    0.05
    SETDIJ:  cpu time    1.96: real time    1.95
 
    SUBROT:  cpu time    0.77: real time    0.77
    SUBROT:  cpu time    0.37: real time    0.37
    SUBROT:  cpu time    0.36: real time    0.36
    SUBROT:  cpu time    0.36: real time    0.36
    --------------------------------------------
    SUBRT+:  cpu time    1.86: real time    1.87

 Broyden mixing:
  rms(total) = 0.27255E-02    rms(broyden)= 0.27249E-02
  rms(prec ) = 0.45381E-02
  weight for this iteration     100.00

 eigenvalues of (default mixing * dielectric matrix)
  average eigenvalue GAMMA=   1.8202
  1.0162  2.5247  1.9197
 
    TRIAL :  cpu time  240.04: real time  239.83
    CORREC:  cpu time    0.00: real time    0.00
    CHARGE:  cpu time    0.06: real time    0.06
    --------------------------------------------
      LOOP:  cpu time  242.11: real time  241.92

 eigenvalue-minimisations  :     0
 total energy-change (2. order) :-0.5114348E+01  (-0.8170322E+01)
 number of electron     112.0001457 magnetization 
 augmentation part       38.2277190 magnetization 

 Free energy of the ion-electron system (eV)
  ---------------------------------------------------
  alpha Z        PSCENC =       339.31929130
  Ewald energy   TEWEN  =     -9064.65978207
  -1/2 Hartree   DENC   =     -8001.55652470
  -exchange  EXHF       =       337.14948228
  -V(xc)+E(xc)   XCENC  =       368.78353446
  PAW double counting   =     15771.19195164   -16240.18003289
  entropy T*S    EENTRO =         0.00067749
  eigenvalues    EBANDS =     -1896.96802376
  atomic energy  EATOM  =     18320.98302006
  ---------------------------------------------------
  free energy    TOTEN  =       -65.93646500 eV

  energy without entropy =      -65.93714249  energy(sigma->0) =      -65.93669083


--------------------------------------------------------------------------------------------------------




----------------------------------------- Iteration    1(   7)  ---------------------------------------


    POTLOK:  cpu time    0.05: real time    0.05
    SETDIJ:  cpu time    1.93: real time    1.93
 
    SUBROT:  cpu time    0.76: real time    0.76
    SUBROT:  cpu time    0.37: real time    0.37
    SUBROT:  cpu time    0.36: real time    0.37
    SUBROT:  cpu time    0.37: real time    0.37
    --------------------------------------------
    SUBRT+:  cpu time    1.86: real time    1.87

 Broyden mixing:
  rms(total) = 0.13234E-01    rms(broyden)= 0.13230E-01
  rms(prec ) = 0.23409E-01
  weight for this iteration     100.00

 eigenvalues of (default mixing * dielectric matrix)
  average eigenvalue GAMMA=   1.6057
  2.5016  0.8917  1.4237
 
    TRIAL :  cpu time  239.45: real time  239.24
    CORREC:  cpu time    0.00: real time    0.00
    CHARGE:  cpu time    0.06: real time    0.06
    --------------------------------------------
      LOOP:  cpu time  241.49: real time  241.29

 eigenvalue-minimisations  :     0
 total energy-change (2. order) :-0.1538706E+01  (-0.4132648E+01)
 number of electron     112.0001440 magnetization 
 augmentation part       37.7058646 magnetization 

 Free energy of the ion-electron system (eV)
  ---------------------------------------------------
  alpha Z        PSCENC =       339.31929130
  Ewald energy   TEWEN  =     -9064.65978207
  -1/2 Hartree   DENC   =     -8243.54377653
  -exchange  EXHF       =       341.62248726
  -V(xc)+E(xc)   XCENC  =       374.55972948
  PAW double counting   =     16207.07635976   -16710.41133056
  entropy T*S    EENTRO =         0.00044041
  eigenvalues    EBANDS =     -1632.42184737
  atomic energy  EATOM  =     18320.98302006
  ---------------------------------------------------
  free energy    TOTEN  =       -67.47517118 eV

  energy without entropy =      -67.47561159  energy(sigma->0) =      -67.47531799


--------------------------------------------------------------------------------------------------------




----------------------------------------- Iteration    1(   8)  ---------------------------------------


    POTLOK:  cpu time    0.05: real time    0.05
    SETDIJ:  cpu time    1.92: real time    1.92
 
    SUBROT:  cpu time    0.77: real time    0.77
    SUBROT:  cpu time    0.36: real time    0.36
    SUBROT:  cpu time    0.37: real time    0.37
    SUBROT:  cpu time    0.38: real time    0.37
    --------------------------------------------
    SUBRT+:  cpu time    1.88: real time    1.88

 Broyden mixing:
  rms(total) = 0.83795E-02    rms(broyden)= 0.83770E-02
  rms(prec ) = 0.14025E-01
  weight for this iteration     100.00

 eigenvalues of (default mixing * dielectric matrix)
  average eigenvalue GAMMA=   1.6711
  2.4576  0.9472  1.6085
 
    TRIAL :  cpu time  240.79: real time  240.58
    CORREC:  cpu time    0.00: real time    0.00
    CHARGE:  cpu time    0.08: real time    0.08
    --------------------------------------------
      LOOP:  cpu time  242.85: real time  242.63

 eigenvalue-minimisations  :     0
 total energy-change (2. order) :-0.1610299E+01  (-0.7701674E+00)
 number of electron     112.0001440 magnetization 
 augmentation part       37.7244897 magnetization 

 Free energy of the ion-electron system (eV)
  ---------------------------------------------------
  alpha Z        PSCENC =       339.31929130
  Ewald energy   TEWEN  =     -9064.65978207
  -1/2 Hartree   DENC   =     -8116.88639226
  -exchange  EXHF       =       339.52353925
  -V(xc)+E(xc)   XCENC  =       371.38365630
  PAW double counting   =     15915.99217139   -16397.34807489
  entropy T*S    EENTRO =         0.00072902
  eigenvalues    EBANDS =     -1777.39333969
  atomic energy  EATOM  =     18320.98302006
  ---------------------------------------------------
  free energy    TOTEN  =       -69.08547020 eV

  energy without entropy =      -69.08619922  energy(sigma->0) =      -69.08571321


--------------------------------------------------------------------------------------------------------




----------------------------------------- Iteration    1(   9)  ---------------------------------------


    POTLOK:  cpu time    0.05: real time    0.05
    SETDIJ:  cpu time    1.87: real time    1.87
 
    SUBROT:  cpu time    0.78: real time    0.78
    SUBROT:  cpu time    0.37: real time    0.37
    SUBROT:  cpu time    0.37: real time    0.37
    SUBROT:  cpu time    0.37: real time    0.37
    --------------------------------------------
    SUBRT+:  cpu time    1.90: real time    1.91

 Broyden mixing:
  rms(total) = 0.52028E-03    rms(broyden)= 0.51967E-03
  rms(prec ) = 0.82443E-03
  weight for this iteration     100.00

 eigenvalues of (default mixing * dielectric matrix)
  average eigenvalue GAMMA=   1.6956
  2.5249  1.0014  1.5604
 
    TRIAL :  cpu time  240.63: real time  240.42
    CORREC:  cpu time    0.00: real time    0.00
    CHARGE:  cpu time    0.06: real time    0.06
    --------------------------------------------
      LOOP:  cpu time  242.62: real time  242.41

 eigenvalue-minimisations  :     0
 total energy-change (2. order) :-0.3096268E+00  (-0.3862250E+00)
 number of electron     112.0001446 magnetization 
 augmentation part       37.9055311 magnetization 

 Free energy of the ion-electron system (eV)
  ---------------------------------------------------
  alpha Z        PSCENC =       339.31929130
  Ewald energy   TEWEN  =     -9064.65978207
  -1/2 Hartree   DENC   =     -8124.40937167
  -exchange  EXHF       =       339.59494244
  -V(xc)+E(xc)   XCENC  =       371.44434501
  PAW double counting   =     15912.11016358   -16393.35997642
  entropy T*S    EENTRO =         0.00086432
  eigenvalues    EBANDS =     -1770.41845827
  atomic energy  EATOM  =     18320.98302006
  ---------------------------------------------------
  free energy    TOTEN  =       -69.39509703 eV

  energy without entropy =      -69.39596136  energy(sigma->0) =      -69.39538514


--------------------------------------------------------------------------------------------------------




----------------------------------------- Iteration    1(  10)  ---------------------------------------


    POTLOK:  cpu time    0.17: real time    0.17
    SETDIJ:  cpu time    1.95: real time    1.94
 
    SUBROT:  cpu time    0.79: real time    0.79
    SUBROT:  cpu time    0.40: real time    0.40
    SUBROT:  cpu time    0.40: real time    0.40
    SUBROT:  cpu time    0.40: real time    0.40
    --------------------------------------------
    SUBRT+:  cpu time    2.00: real time    2.01

 Broyden mixing:
  rms(total) = 0.22940E-02    rms(broyden)= 0.22935E-02
  rms(prec ) = 0.38585E-02
  weight for this iteration     100.00

 eigenvalues of (default mixing * dielectric matrix)
  average eigenvalue GAMMA=   1.6831
  2.4756  0.9888  1.5850
 
    TRIAL :  cpu time  240.68: real time  240.47
    CORREC:  cpu time    0.00: real time    0.00
    CHARGE:  cpu time    0.07: real time    0.07
    --------------------------------------------
      LOOP:  cpu time  242.87: real time  242.67

 eigenvalue-minimisations  :     0
 total energy-change (2. order) :-0.1037570E+00  (-0.1521619E+00)
 number of electron     112.0001444 magnetization 
 augmentation part       37.8185383 magnetization 

 Free energy of the ion-electron system (eV)
  ---------------------------------------------------
  alpha Z        PSCENC =       339.31929130
  Ewald energy   TEWEN  =     -9064.65978207
  -1/2 Hartree   DENC   =     -8171.72098607
  -exchange  EXHF       =       340.39687244
  -V(xc)+E(xc)   XCENC  =       372.53993515
  PAW double counting   =     15993.82685597   -16481.80449565
  entropy T*S    EENTRO =         0.00072298
  eigenvalues    EBANDS =     -1718.38042952
  atomic energy  EATOM  =     18320.98302006
  ---------------------------------------------------
  free energy    TOTEN  =       -69.49885408 eV

  energy without entropy =      -69.49957706  energy(sigma->0) =      -69.49909507


--------------------------------------------------------------------------------------------------------




----------------------------------------- Iteration    1(  11)  ---------------------------------------


    POTLOK:  cpu time    0.05: real time    0.05
    SETDIJ:  cpu time    1.94: real time    1.94
 
    SUBROT:  cpu time    0.82: real time    0.82
    SUBROT:  cpu time    0.39: real time    0.39
    SUBROT:  cpu time    0.39: real time    0.39
    SUBROT:  cpu time    0.39: real time    0.39
    --------------------------------------------
    SUBRT+:  cpu time    2.00: real time    2.01

 Broyden mixing:
  rms(total) = 0.77908E-03    rms(broyden)= 0.77884E-03
  rms(prec ) = 0.15582E-02
  weight for this iteration     100.00

 eigenvalues of (default mixing * dielectric matrix)
  average eigenvalue GAMMA=   1.6662
  2.4953  0.9843  1.5190
 
    TRIAL :  cpu time  242.12: real time  241.91
    CORREC:  cpu time    0.00: real time    0.00
    CHARGE:  cpu time    0.09: real time    0.09
    --------------------------------------------
      LOOP:  cpu time  244.20: real time  244.00

 eigenvalue-minimisations  :     0
 total energy-change (2. order) :-0.6957041E-01  (-0.3691014E-01)
 number of electron     112.0001443 magnetization 
 augmentation part       37.7857063 magnetization 

 Free energy of the ion-electron system (eV)
  ---------------------------------------------------
  alpha Z        PSCENC =       339.31929130
  Ewald energy   TEWEN  =     -9064.65978207
  -1/2 Hartree   DENC   =     -8150.38817438
  -exchange  EXHF       =       340.06895863
  -V(xc)+E(xc)   XCENC  =       372.06754077
  PAW double counting   =     15941.92272342   -16426.86769425
  entropy T*S    EENTRO =         0.00060614
  eigenvalues    EBANDS =     -1742.01503095
  atomic energy  EATOM  =     18320.98302006
  ---------------------------------------------------
  free energy    TOTEN  =       -69.56842449 eV

  energy without entropy =      -69.56903063  energy(sigma->0) =      -69.56862654


--------------------------------------------------------------------------------------------------------




----------------------------------------- Iteration    1(  12)  ---------------------------------------


    POTLOK:  cpu time    0.05: real time    0.05
    SETDIJ:  cpu time    1.93: real time    1.93
 
    SUBROT:  cpu time    0.84: real time    0.84
    SUBROT:  cpu time    0.39: real time    0.39
    SUBROT:  cpu time    0.39: real time    0.39
    SUBROT:  cpu time    0.39: real time    0.39
    --------------------------------------------
    SUBRT+:  cpu time    2.01: real time    2.02

 Broyden mixing:
  rms(total) = 0.20849E-03    rms(broyden)= 0.20840E-03
  rms(prec ) = 0.45538E-03
  weight for this iteration     100.00

 eigenvalues of (default mixing * dielectric matrix)
  average eigenvalue GAMMA=   1.6441
  2.5064  0.9991  1.4268
 
    TRIAL :  cpu time  242.85: real time  242.64
    CORREC:  cpu time    0.00: real time    0.00
    CHARGE:  cpu time    0.08: real time    0.08
    --------------------------------------------
      LOOP:  cpu time  244.92: real time  244.71

 eigenvalue-minimisations  :     0
 total energy-change (2. order) :-0.1234636E-01  (-0.2282957E-01)
 number of electron     112.0001444 magnetization 
 augmentation part       37.8259688 magnetization 

 Free energy of the ion-electron system (eV)
  ---------------------------------------------------
  alpha Z        PSCENC =       339.31929130
  Ewald energy   TEWEN  =     -9064.65978207
  -1/2 Hartree   DENC   =     -8142.00573321
  -exchange  EXHF       =       339.95286831
  -V(xc)+E(xc)   XCENC  =       371.89252876
  PAW double counting   =     15920.11037196   -16403.96881960
  entropy T*S    EENTRO =         0.00055393
  eigenvalues    EBANDS =     -1751.20512250
  atomic energy  EATOM  =     18320.98302006
  ---------------------------------------------------
  free energy    TOTEN  =       -69.58077085 eV

  energy without entropy =      -69.58132478  energy(sigma->0) =      -69.58095549


--------------------------------------------------------------------------------------------------------




----------------------------------------- Iteration    1(  13)  ---------------------------------------


    POTLOK:  cpu time    0.05: real time    0.05
    SETDIJ:  cpu time    1.92: real time    1.92
 
    SUBROT:  cpu time    0.81: real time    0.82
    SUBROT:  cpu time    0.40: real time    0.40
    SUBROT:  cpu time    0.40: real time    0.40
    SUBROT:  cpu time    0.40: real time    0.40
    --------------------------------------------
    SUBRT+:  cpu time    2.01: real time    2.03

 Broyden mixing:
  rms(total) = 0.55441E-03    rms(broyden)= 0.55429E-03
  rms(prec ) = 0.94199E-03
  weight for this iteration     100.00

 eigenvalues of (default mixing * dielectric matrix)
  average eigenvalue GAMMA=   1.6919
  2.4807  0.9961  1.5990
 
    TRIAL :  cpu time  242.80: real time  242.60
    CORREC:  cpu time    0.00: real time    0.00
    CHARGE:  cpu time    0.09: real time    0.09
    --------------------------------------------
      LOOP:  cpu time  244.86: real time  244.66

 eigenvalue-minimisations  :     0
 total energy-change (2. order) :-0.9653470E-02  (-0.5117795E-02)
 number of electron     112.0001444 magnetization 
 augmentation part       37.8298860 magnetization 

 Free energy of the ion-electron system (eV)
  ---------------------------------------------------
  alpha Z        PSCENC =       339.31929130
  Ewald energy   TEWEN  =     -9064.65978207
  -1/2 Hartree   DENC   =     -8151.89070140
  -exchange  EXHF       =       340.12525103
  -V(xc)+E(xc)   XCENC  =       372.12631989
  PAW double counting   =     15936.32536490   -16421.67447308
  entropy T*S    EENTRO =         0.00054244
  eigenvalues    EBANDS =     -1740.24526888
  atomic energy  EATOM  =     18320.98302006
  ---------------------------------------------------
  free energy    TOTEN  =       -69.59042432 eV

  energy without entropy =      -69.59096676  energy(sigma->0) =      -69.59060513


--------------------------------------------------------------------------------------------------------




----------------------------------------- Iteration    1(  14)  ---------------------------------------


    POTLOK:  cpu time    0.06: real time    0.06
    SETDIJ:  cpu time    1.87: real time    1.87
 
    SUBROT:  cpu time    0.84: real time    0.84
    SUBROT:  cpu time    0.40: real time    0.40
    SUBROT:  cpu time    0.40: real time    0.40
    SUBROT:  cpu time    0.40: real time    0.40
    --------------------------------------------
    SUBRT+:  cpu time    2.05: real time    2.09

 Broyden mixing:
  rms(total) = 0.68356E-04    rms(broyden)= 0.68342E-04
  rms(prec ) = 0.14013E-03
  weight for this iteration     100.00

 eigenvalues of (default mixing * dielectric matrix)
  average eigenvalue GAMMA=   1.6704
  2.5157  0.9905  1.5051
 
    TRIAL :  cpu time  242.34: real time  242.17
    CORREC:  cpu time    0.00: real time    0.00
    CHARGE:  cpu time    0.09: real time    0.09
    --------------------------------------------
      LOOP:  cpu time  244.37: real time  244.19

 eigenvalue-minimisations  :     0
 total energy-change (2. order) :-0.2451737E-02  (-0.3776334E-02)
 number of electron     112.0001443 magnetization 
 augmentation part       37.8123508 magnetization 

 Free energy of the ion-electron system (eV)
  ---------------------------------------------------
  alpha Z        PSCENC =       339.31929130
  Ewald energy   TEWEN  =     -9064.65978207
  -1/2 Hartree   DENC   =     -8152.43120855
  -exchange  EXHF       =       340.12354025
  -V(xc)+E(xc)   XCENC  =       372.13588810
  PAW double counting   =     15934.30127765   -16419.81367159
  entropy T*S    EENTRO =         0.00056063
  eigenvalues    EBANDS =     -1739.55177364
  atomic energy  EATOM  =     18320.98302006
  ---------------------------------------------------
  free energy    TOTEN  =       -69.59287606 eV

  energy without entropy =      -69.59343669  energy(sigma->0) =      -69.59306294


--------------------------------------------------------------------------------------------------------




----------------------------------------- Iteration    1(  15)  ---------------------------------------


    POTLOK:  cpu time    0.05: real time    0.05
    SETDIJ:  cpu time    1.95: real time    1.95
 
    SUBROT:  cpu time    0.83: real time    0.83
    SUBROT:  cpu time    0.40: real time    0.40
    SUBROT:  cpu time    0.40: real time    0.40
    SUBROT:  cpu time    0.40: real time    0.40
    --------------------------------------------
    SUBRT+:  cpu time    2.04: real time    2.06

 Broyden mixing:
  rms(total) = 0.19399E-03    rms(broyden)= 0.19393E-03
  rms(prec ) = 0.33118E-03
  weight for this iteration     100.00

 eigenvalues of (default mixing * dielectric matrix)
  average eigenvalue GAMMA=   1.6834
  2.4725  0.9892  1.5885
 
    TRIAL :  cpu time  244.24: real time  244.05
    CORREC:  cpu time    0.00: real time    0.00
    CHARGE:  cpu time    0.08: real time    0.08
    --------------------------------------------
      LOOP:  cpu time  246.32: real time  246.15

 eigenvalue-minimisations  :     0
 total energy-change (2. order) :-0.1503480E-02  (-0.1036335E-02)
 number of electron     112.0001444 magnetization 
 augmentation part       37.8166765 magnetization 

 Free energy of the ion-electron system (eV)
  ---------------------------------------------------
  alpha Z        PSCENC =       339.31929130
  Ewald energy   TEWEN  =     -9064.65978207
  -1/2 Hartree   DENC   =     -8147.72420851
  -exchange  EXHF       =       340.03448962
  -V(xc)+E(xc)   XCENC  =       372.02470822
  PAW double counting   =     15922.25865786   -16407.15989067
  entropy T*S    EENTRO =         0.00057373
  eigenvalues    EBANDS =     -1744.67122597
  atomic energy  EATOM  =     18320.98302006
  ---------------------------------------------------
  free energy    TOTEN  =       -69.59437954 eV

  energy without entropy =      -69.59495326  energy(sigma->0) =      -69.59457078


--------------------------------------------------------------------------------------------------------




----------------------------------------- Iteration    1(  16)  ---------------------------------------


    POTLOK:  cpu time    0.08: real time    0.08
    SETDIJ:  cpu time    1.95: real time    1.95
 
    SUBROT:  cpu time    0.83: real time    0.83
    SUBROT:  cpu time    0.41: real time    0.41
    SUBROT:  cpu time    0.41: real time    0.41
    SUBROT:  cpu time    0.40: real time    0.40
    --------------------------------------------
    SUBRT+:  cpu time    2.04: real time    2.05

 Broyden mixing:
  rms(total) = 0.83928E-04    rms(broyden)= 0.83910E-04
  rms(prec ) = 0.14016E-03
  weight for this iteration     100.00

 eigenvalues of (default mixing * dielectric matrix)
  average eigenvalue GAMMA=   1.6845
  2.4866  0.9895  1.5775
 
    TRIAL :  cpu time  245.37: real time  245.17
    CORREC:  cpu time    0.00: real time    0.00
    CHARGE:  cpu time    0.09: real time    0.09
    --------------------------------------------
      LOOP:  cpu time  247.49: real time  247.30

 eigenvalue-minimisations  :     0
 total energy-change (2. order) :-0.5698542E-03  (-0.4085974E-03)
 number of electron     112.0001444 magnetization 
 augmentation part       37.8214862 magnetization 

 Free energy of the ion-electron system (eV)
  ---------------------------------------------------
  alpha Z        PSCENC =       339.31929130
  Ewald energy   TEWEN  =     -9064.65978207
  -1/2 Hartree   DENC   =     -8148.84398741
  -exchange  EXHF       =       340.05308898
  -V(xc)+E(xc)   XCENC  =       372.05190432
  PAW double counting   =     15923.12420668   -16408.21371189
  entropy T*S    EENTRO =         0.00057453
  eigenvalues    EBANDS =     -1743.40955308
  atomic energy  EATOM  =     18320.98302006
  ---------------------------------------------------
  free energy    TOTEN  =       -69.59494939 eV

[...]
     22      -2.2880      2.00000
     23      -1.9509      2.00000
     24      -1.6209      2.00000
     25      -1.2192      2.00000
     26      -1.0041      2.00000
     27      -0.9740      2.00000
     28      -0.7173      2.00000
     29      -0.5505      2.00000
     30      -0.3889      2.00000
     31      -0.2911      2.00000
     32      -0.1987      2.00000
     33      -0.1800      2.00000
     34      -0.1386      2.00000
     35      -0.0121      2.00000
     36       0.0155      2.00000
     37       1.2931      2.00000
     38       1.3093      2.00000
     39       1.3707      2.00000
     40       1.4108      2.00000
     41       1.4492      2.00000
     42       1.4661      2.00000
     43       1.5047      2.00000
     44       1.5511      2.00000
     45       1.7660      2.00000
     46       1.8947      2.00000
     47       1.9808      2.00000
     48       2.1523      2.00000
     49       2.3709      2.00000
     50       2.5763      2.00000
     51       2.7056      2.00000
     52       2.9088      2.00000
     53       3.0107      2.00000
     54       3.2190      2.00000
     55       3.4014      2.00000
     56       3.6557      2.00000
     57       6.3809     -0.00000
     58       6.5209     -0.00000
     59       7.7162      0.00000
     60       7.9004      0.00000
     61       8.2963      0.00000
     62       8.5778      0.00000
     63       9.3255      0.00000
     64       9.8442      0.00000
     65      10.0234      0.00000
     66      10.3506      0.00000
     67      10.5895      0.00000
     68      10.7861      0.00000
     69      10.9736      0.00000
     70      11.2534      0.00000
     71      11.3068      0.00000
     72      11.7035      0.00000
     73      12.2524      0.00000
     74      12.4622      0.00000
     75      13.1003      0.00000
     76      13.4812      0.00000
     77      13.8212      0.00000
     78      14.6895      0.00000
     79      15.0019      0.00000
     80      15.7190      0.00000

 k-point  40 :       0.2500   -0.2500    0.4000
  band No.  band energies     occupation 
      1     -68.6520      2.00000
      2     -68.6444      2.00000
      3     -68.6388      2.00000
      4     -68.6239      2.00000
      5     -68.6184      2.00000
      6     -68.6125      2.00000
      7     -68.6018      2.00000
      8     -68.5952      2.00000
      9     -68.5824      2.00000
     10     -68.5669      2.00000
     11     -68.5663      2.00000
     12     -68.5521      2.00000
     13     -12.2198      2.00000
     14     -11.8191      2.00000
     15     -10.8217      2.00000
     16     -10.6696      2.00000
     17     -10.3505      2.00000
     18     -10.2770      2.00000
     19      -5.4474      2.00000
     20      -5.1160      2.00000
     21      -2.4296      2.00000
     22      -2.1566      2.00000
     23      -2.0157      2.00000
     24      -1.5232      2.00000
     25      -1.3566      2.00000
     26      -1.1650      2.00000
     27      -0.9368      2.00000
     28      -0.8129      2.00000
     29      -0.5862      2.00000
     30      -0.5332      2.00000
     31      -0.2796      2.00000
     32      -0.2390      2.00000
     33      -0.1344      2.00000
     34      -0.0918      2.00000
     35      -0.0246      2.00000
     36       0.0339      2.00000
     37       1.3123      2.00000
     38       1.3441      2.00000
     39       1.3625      2.00000
     40       1.3968      2.00000
     41       1.4527      2.00000
     42       1.4820      2.00000
     43       1.4996      2.00000
     44       1.5663      2.00000
     45       1.8017      2.00000
     46       1.8472      2.00000
     47       1.9626      2.00000
     48       2.1104      2.00000
     49       2.2942      2.00000
     50       2.5295      2.00000
     51       2.6391      2.00000
     52       2.7711      2.00000
     53       2.9261      2.00000
     54       3.1603      2.00000
     55       3.3037      2.00000
     56       3.5750      2.00000
     57       6.5622     -0.00000
     58       6.7165     -0.00000
     59       7.9656      0.00000
     60       7.9974      0.00000
     61       8.7325      0.00000
     62       9.0920      0.00000
     63       9.4588      0.00000
     64       9.8268      0.00000
     65      10.2973      0.00000
     66      10.3712      0.00000
     67      10.7787      0.00000
     68      10.8487      0.00000
     69      11.1100      0.00000
     70      11.2734      0.00000
     71      11.3689      0.00000
     72      11.6151      0.00000
     73      12.0498      0.00000
     74      12.2958      0.00000
     75      12.6475      0.00000
     76      13.1253      0.00000
     77      13.2848      0.00000
     78      14.2390      0.00000
     79      15.6340      0.00000
     80      15.8261      0.00000

 k-point  41 :       0.5000   -0.2500    0.4000
  band No.  band energies     occupation 
      1     -68.6519      2.00000
      2     -68.6443      2.00000
      3     -68.6387      2.00000
      4     -68.6237      2.00000
      5     -68.6184      2.00000
      6     -68.6125      2.00000
      7     -68.6016      2.00000
      8     -68.5951      2.00000
      9     -68.5824      2.00000
     10     -68.5668      2.00000
     11     -68.5663      2.00000
     12     -68.5520      2.00000
     13     -12.0794      2.00000
     14     -11.7761      2.00000
     15     -10.8458      2.00000
     16     -10.7585      2.00000
     17     -10.5332      2.00000
     18     -10.3163      2.00000
     19      -5.4200      2.00000
     20      -4.9398      2.00000
     21      -2.4012      2.00000
     22      -2.1294      2.00000
     23      -1.8631      2.00000
     24      -1.7244      2.00000
     25      -1.4453      2.00000
     26      -1.1251      2.00000
     27      -0.8834      2.00000
     28      -0.6457      2.00000
     29      -0.5963      2.00000
     30      -0.4499      2.00000
     31      -0.2660      2.00000
     32      -0.1816      2.00000
     33      -0.1221      2.00000
     34      -0.0535      2.00000
     35      -0.0209      2.00000
     36       0.0216      2.00000
     37       1.2614      2.00000
     38       1.3165      2.00000
     39       1.4105      2.00000
     40       1.4351      2.00000
     41       1.4855      2.00000
     42       1.4911      2.00000
     43       1.5160      2.00000
     44       1.5744      2.00000
     45       1.7598      2.00000
     46       1.8441      2.00000
     47       2.1172      2.00000
     48       2.1892      2.00000
     49       2.3652      2.00000
     50       2.4596      2.00000
     51       2.4924      2.00000
     52       2.6933      2.00000
     53       2.8236      2.00000
     54       3.0883      2.00000
     55       3.2896      2.00000
     56       3.5233      2.00000
     57       6.4952     -0.00000
     58       6.5861     -0.00000
     59       7.4502      0.00000
     60       7.7177      0.00000
     61       8.5908      0.00000
     62       8.7473      0.00000
     63       9.2980      0.00000
     64       9.5334      0.00000
     65       9.9510      0.00000
     66      10.1842      0.00000
     67      10.6793      0.00000
     68      11.1147      0.00000
     69      11.2454      0.00000
     70      11.5695      0.00000
     71      11.7098      0.00000
     72      11.8989      0.00000
     73      12.2965      0.00000
     74      12.6568      0.00000
     75      13.0132      0.00000
     76      13.2323      0.00000
     77      13.6766      0.00000
     78      14.0673      0.00000
     79      14.3988      0.00000
     80      16.5550      0.00000

 k-point  42 :      -0.2500   -0.2500    0.4000
  band No.  band energies     occupation 
      1     -68.6520      2.00000
      2     -68.6445      2.00000
      3     -68.6386      2.00000
      4     -68.6237      2.00000
      5     -68.6184      2.00000
      6     -68.6126      2.00000
      7     -68.6016      2.00000
      8     -68.5951      2.00000
      9     -68.5825      2.00000
     10     -68.5670      2.00000
     11     -68.5663      2.00000
     12     -68.5522      2.00000
     13     -12.1784      2.00000
     14     -11.7057      2.00000
     15     -10.7173      2.00000
     16     -10.6924      2.00000
     17     -10.5879      2.00000
     18     -10.3915      2.00000
     19      -5.4462      2.00000
     20      -5.0712      2.00000
     21      -2.5080      2.00000
     22      -2.3785      2.00000
     23      -1.9631      2.00000
     24      -1.3694      2.00000
     25      -1.3322      2.00000
     26      -1.0562      2.00000
     27      -0.8304      2.00000
     28      -0.7674      2.00000
     29      -0.4203      2.00000
     30      -0.3384      2.00000
     31      -0.2705      2.00000
     32      -0.2096      2.00000
     33      -0.1441      2.00000
     34      -0.1393      2.00000
     35      -0.0128      2.00000
     36       0.0289      2.00000
     37       1.1732      2.00000
     38       1.3706      2.00000
     39       1.3968      2.00000
     40       1.4524      2.00000
     41       1.4542      2.00000
     42       1.4986      2.00000
     43       1.5170      2.00000
     44       1.5482      2.00000
     45       1.7443      2.00000
     46       1.8209      2.00000
     47       1.9734      2.00000
     48       2.2276      2.00000
     49       2.3974      2.00000
     50       2.6132      2.00000
     51       2.6554      2.00000
     52       2.9131      2.00000
     53       3.0685      2.00000
     54       3.1176      2.00000
     55       3.2871      2.00000
     56       3.5805      2.00000
     57       6.2931     -0.00000
     58       6.3822     -0.00000
     59       7.3525      0.00000
     60       7.5256      0.00000
     61       8.3129      0.00000
     62       8.3359      0.00000
     63       9.1035      0.00000
     64       9.3591      0.00000
     65       9.7147      0.00000
     66       9.9420      0.00000
     67      10.5245      0.00000
     68      10.9889      0.00000
     69      11.4282      0.00000
     70      11.5672      0.00000
     71      12.0197      0.00000
     72      12.2868      0.00000
     73      12.4318      0.00000
     74      12.4716      0.00000
     75      13.0333      0.00000
     76      13.1489      0.00000
     77      14.1409      0.00000
     78      14.4368      0.00000
     79      15.1661      0.00000
     80      15.8658      0.00000


--------------------------------------------------------------------------------------------------------


 soft charge-density along one line, spin component           1
         0         1         2         3         4         5         6         7         8         9
 total charge-density along one line
 
 pseudopotential strength for first ion, spin component:           1
-65.423   0.002   0.006   7.363   0.000  -0.003   0.001   0.007
  0.002 -65.393  -0.005   0.000   7.352   0.001  -0.001  -0.024
  0.006  -0.005 -65.383  -0.003   0.001   7.349  -0.037  -0.001
  7.363   0.000  -0.003   6.111   0.000   0.001   0.002  -0.003
  0.000   7.352   0.001   0.000   6.113  -0.000   0.000   0.007
 -0.003   0.001   7.349   0.001  -0.000   6.114   0.009   0.000
  0.001  -0.001  -0.037   0.002   0.000   0.009  -2.979  -0.003
  0.007  -0.024  -0.001  -0.003   0.007   0.000  -0.003  -2.984
  0.022   0.042   0.009  -0.005  -0.008  -0.003  -0.003   0.008
 -0.001  -0.017   0.007   0.000   0.004  -0.003   0.004   0.007
  0.025   0.000  -0.034  -0.007  -0.000   0.007  -0.000   0.007
  0.001  -0.001  -0.036   0.002   0.000   0.008  -3.625  -0.003
  0.007  -0.023  -0.001  -0.003   0.007   0.000  -0.003  -3.630
  0.022   0.042   0.009  -0.005  -0.008  -0.002  -0.003   0.008
 -0.001  -0.017   0.007   0.000   0.004  -0.003   0.004   0.007
  0.025   0.000  -0.034  -0.007  -0.000   0.006  -0.000   0.007
  0.007  -0.005   0.004  -0.001   0.001  -0.001  -0.002   0.000
  0.015  -0.010   0.009  -0.002   0.001  -0.002  -0.003   0.001
 total augmentation occupancy for first ion, spin component:           1
  2.000  -0.000   0.000  -0.003  -0.000   0.000   0.007  -0.005   0.001  -0.001  -0.005  -0.007   0.005  -0.001   0.001   0.004
 -0.000   2.000  -0.000  -0.000  -0.003   0.000  -0.001   0.005   0.004   0.001   0.000   0.001  -0.005  -0.005  -0.001  -0.000
  0.000  -0.000   2.000   0.000   0.000  -0.003  -0.000  -0.000  -0.001  -0.005  -0.004   0.001   0.000   0.001   0.005   0.005
 -0.003  -0.000   0.000   0.095   0.006  -0.005  -0.334   0.233  -0.074   0.011   0.017   0.281  -0.197   0.058  -0.007  -0.011
 -0.000  -0.003   0.000   0.006   0.102   0.001   0.020  -0.048  -0.445   0.015   0.011  -0.013   0.037   0.377  -0.011  -0.009
  0.000   0.000  -0.003  -0.005   0.001   0.099   0.098  -0.002  -0.014   0.236   0.354  -0.077   0.001   0.011  -0.202  -0.297
  0.007  -0.001  -0.000  -0.334   0.020   0.098   4.008  -0.793   0.097   0.216   0.147  -1.737   0.743  -0.090  -0.182  -0.141
 -0.005   0.005  -0.000   0.233  -0.048  -0.002  -0.793   3.511   0.292   0.159   0.297   0.743  -1.270  -0.215  -0.114  -0.206
  0.001   0.004  -0.001  -0.074  -0.445  -0.014   0.097   0.292   4.691  -0.041  -0.116  -0.090  -0.215  -2.400   0.035   0.086
 -0.001   0.001  -0.005   0.011   0.015   0.236   0.216   0.159  -0.041   3.635   0.798  -0.182  -0.114   0.035  -1.353  -0.759
 -0.005   0.000  -0.004   0.017   0.011   0.354   0.147   0.297  -0.116   0.798   3.995  -0.142  -0.206   0.086  -0.760  -1.741
 -0.007   0.001   0.001   0.281  -0.013  -0.077  -1.737   0.743  -0.090  -0.182  -0.142   1.442  -0.696   0.082   0.154   0.136
  0.005  -0.005   0.000  -0.197   0.037   0.001   0.743  -1.270  -0.215  -0.114  -0.206  -0.696   1.006   0.154   0.079   0.132
 -0.001  -0.005   0.001   0.058   0.377   0.011  -0.090  -0.215  -2.400   0.035   0.086   0.082   0.154   2.084  -0.029  -0.062
  0.001  -0.001   0.005  -0.007  -0.011  -0.202  -0.182  -0.114   0.035  -1.353  -0.760   0.154   0.079  -0.029   1.059   0.721
  0.004  -0.000   0.005  -0.011  -0.009  -0.297  -0.141  -0.206   0.086  -0.759  -1.741   0.136   0.132  -0.062   0.721   1.461
 -0.024   0.016  -0.013  -0.020   0.011  -0.006   0.080  -0.100  -0.023  -0.006   0.025  -0.063   0.088   0.035   0.006   0.005
  0.012  -0.008   0.006   0.001  -0.000  -0.000  -0.008   0.003  -0.004   0.004  -0.019   0.004  -0.005  -0.002  -0.001   0.003


------------------------ aborting loop because EDIFF is reached ----------------------------------------


    FORLOC:  cpu time    0.02: real time    0.02
    FORHF :  cpu time  495.50: real time  495.05
    FORNL :  cpu time    0.39: real time    0.39
    FORCOR:  cpu time    2.05: real time    2.05

 VOLUME and BASIS-vectors are now :
 -----------------------------------------------------------------------------
  energy-cutoff  :      400.00
  volume of cell :      221.90
      direct lattice vectors                 reciprocal lattice vectors
     3.224796000 -5.643830000  0.031572000     0.154525165 -0.088592321  0.053460880
     3.224796000  5.643830000  0.031572000     0.154525165  0.088592321  0.053460880
    -2.101946000  0.000000000  6.075537000    -0.001606004  0.000000000  0.164038877

  length of vectors
     6.500240234  6.500240234  6.428866683     0.185969598  0.185969598  0.164046738


 FORCES acting on ions:
    Electron-Ion                     Ewald-Force                    Non-Local-Force
 -----------------------------------------------------------------------------------------------
   -.144E+02 -.972E+02 0.111E+02   0.132E+02 0.948E+02 -.952E+01   0.102E+01 0.211E+01 -.140E+01
   -.140E+02 0.986E+02 0.120E+02   0.128E+02 -.961E+02 -.104E+02   0.998E+00 -.214E+01 -.141E+01
   0.253E+02 -.169E+02 0.168E+01   -.221E+02 0.168E+02 -.462E+00   -.283E+01 0.157E+00 -.102E+01
   0.258E+02 0.156E+02 0.492E+01   -.226E+02 -.154E+02 -.365E+01   -.287E+01 -.126E+00 -.111E+01
   -.110E+02 -.315E+02 -.109E+02   0.103E+02 0.302E+02 0.974E+01   0.684E+00 0.134E+01 0.112E+01
   -.110E+02 0.315E+02 -.113E+02   0.103E+02 -.302E+02 0.101E+02   0.681E+00 -.135E+01 0.113E+01
   -.136E+03 -.992E+01 -.468E+02   0.133E+03 0.995E+01 0.460E+02   0.282E+01 -.310E-01 0.660E+00
   0.701E+02 -.126E+03 0.960E+02   -.684E+02 0.123E+03 -.939E+02   -.155E+01 0.230E+01 -.186E+01
   0.667E+02 -.133E+03 -.496E+02   -.652E+02 0.130E+03 0.486E+02   -.136E+01 0.218E+01 0.877E+00
   0.703E+02 0.126E+03 0.963E+02   -.686E+02 -.123E+03 -.943E+02   -.157E+01 -.229E+01 -.187E+01
   -.135E+03 0.990E+01 -.494E+02   0.132E+03 -.993E+01 0.486E+02   0.278E+01 0.276E-01 0.755E+00
   0.667E+02 0.133E+03 -.500E+02   -.652E+02 -.130E+03 0.491E+02   -.136E+01 -.217E+01 0.895E+00
 -----------------------------------------------------------------------------------------------
   0.281E+01 -.386E-02 0.370E+01   0.000E+00 -.853E-13 -.213E-13   -.256E+01 0.240E-02 -.325E+01
 
 
 POSITION                                       TOTAL-FORCE (eV/Angst)
 -----------------------------------------------------------------------------------
      2.13385     -2.80652      0.74958        -0.001967     -0.001166     -0.000329
      1.08288      2.80652      3.78735        -0.009092     -0.011768      0.004859
      5.40423     -0.97432      0.77721         0.001341     -0.000194      0.029708
      4.35326      0.97432      3.81498        -0.002818      0.013635      0.004283
      1.02081     -0.97328      3.66185        -0.007701      0.007927      0.009626
      2.07178      0.97328      0.62409         0.001694     -0.007394     -0.000584
      2.14763      4.69667      3.06249         0.035675      0.000415     -0.076879
      1.11215     -0.89759      5.98620         0.004975     -0.005865      0.007996
      2.14287     -2.74882      3.03886        -0.007104      0.001727     -0.002219
      2.16313      0.89759      2.94844        -0.005781      0.006101      0.001417
      1.09993     -4.69667      6.09081        -0.003002     -0.002526      0.012833
      1.09189      2.74882      6.07662        -0.006218     -0.000891      0.009289
 -----------------------------------------------------------------------------------
    total drift:                               -0.058943     -0.001065     -0.053817


--------------------------------------------------------------------------------------------------------



  FREE ENERGIE OF THE ION-ELECTRON SYSTEM (eV)
  ---------------------------------------------------
  free  energy   TOTEN  =       -69.59529448 eV

  energy  without entropy=      -69.59586253  energy(sigma->0) =      -69.59548383
 


--------------------------------------------------------------------------------------------------------


    POTLOK:  cpu time    2.06: real time    2.07


--------------------------------------------------------------------------------------------------------


 writing wavefunctions
     LOOP+:  cpu time 5641.76: real time 5640.36
    4ORBIT:  cpu time    0.00: real time    0.00

 total amount of memory used by VASP on root node   155701. kBytes
========================================================================

   base      :      30000. kBytes
   nonl-proj :      74517. kBytes
   fftplans  :        702. kBytes
   grid      :       2400. kBytes
   one-center:        186. kBytes
   HF        :        194. kBytes
   nonlr-proj:       5126. kBytes
   wavefun   :      42576. kBytes
 
  
  
 General timing and accounting informations for this job:
 ========================================================
  
                  Total CPU time used (sec):     5677.342
                            User time (sec):     5675.948
                          System time (sec):        1.394
                         Elapsed time (sec):     5677.238
  
                   Maximum memory used (kb):      299176.
                   Average memory used (kb):           0.
  
                          Minor page faults:        79033
                          Major page faults:            1
                 Voluntary context switches:         4298
