       N       E                     dE             d eps       ncg     rms          ort
SDA:   1     0.755398865269E+02    0.75540E+02   -0.21324E+03  3360   0.533E+03 0.000E+00
DMP:   2    -0.837580890237E+01   -0.83916E+02   -0.14688E+03  3360   0.395E+03-0.738E+02
DMP:   3    -0.151803344038E+02   -0.68045E+01   -0.20370E+03  3360   0.693E+03-0.482E+03
DMP:   4    -0.226552817363E+02   -0.74749E+01   -0.10739E+03  3360   0.390E+03-0.319E+03
DMP:   5    -0.608170304323E+02   -0.38162E+02   -0.15080E+02  3360   0.706E+02-0.862E+02
DMP:   6    -0.659512762656E+02   -0.51342E+01   -0.81241E+01  3360   0.245E+02-0.110E+02
DMP:   7    -0.674841414366E+02   -0.15329E+01   -0.41160E+01  3360   0.146E+02-0.114E+02
DMP:   8    -0.690861725031E+02   -0.16020E+01   -0.77000E+00  3360   0.283E+01-0.237E+01
DMP:   9    -0.693959882258E+02   -0.30982E+00   -0.38386E+00  3360   0.110E+01-0.366E+00
DMP:  10    -0.694991208148E+02   -0.10313E+00   -0.15183E+00  3360   0.545E+00-0.434E+00
DMP:  11    -0.695684595964E+02   -0.69339E-01   -0.36814E-01  3360   0.105E+00-0.341E-01
DMP:  12    -0.695808292751E+02   -0.12370E-01   -0.22725E-01  3360   0.685E-01-0.307E-01
DMP:  13    -0.695904301966E+02   -0.96009E-02   -0.51123E-02  3360   0.161E-01-0.875E-02
DMP:  14    -0.695928834527E+02   -0.24533E-02   -0.37590E-02  3360   0.959E-02-0.506E-03
DMP:  15    -0.695943821227E+02   -0.14987E-02   -0.10335E-02  3360   0.331E-02-0.191E-02
DMP:  16    -0.695949503879E+02   -0.56827E-03   -0.40798E-03  3360   0.914E-03 0.277E-03
DMP:  17    -0.695951232082E+02   -0.17282E-03   -0.20783E-03  3360   0.577E-03-0.149E-03
DMP:  18    -0.695952398271E+02   -0.11662E-03   -0.56258E-04  3360   0.119E-03 0.554E-04
DMP:  19    -0.695952687957E+02   -0.28969E-04   -0.35150E-04  3360   0.879E-04-0.158E-07
DMP:  20    -0.695952884978E+02   -0.19702E-04   -0.11594E-04  3360   0.242E-04 0.126E-04
DMP:  21    -0.695952958962E+02   -0.73984E-05   -0.70164E-05  3360   0.140E-04 0.915E-05
   1 F= -.69595296E+02 E0= -.69595484E+02  d E =0.563433E-03
