 vasp.5.3.3 18Dez12 (build Nov 13 2015 09:58:40) complex                        
  
 executed on             LinuxIFC date 2017.10.18  13:21:42
 running on   48 total cores
 distrk:  each k-point on   16 cores,    3 groups
 distr:  one band on NCORES_PER_BAND=   1 cores,   16 groups


--------------------------------------------------------------------------------------------------------


 INCAR:
 POTCAR:    PAW_PBE Cu_pv 06Sep2000               
 POTCAR:    PAW_PBE Ge 05Jan2001                  
 POTCAR:    PAW_PBE S 17Jan2003                   

 ----------------------------------------------------------------------------- 
|                                                                             |
|           W    W    AA    RRRRR   N    N  II  N    N   GGGG   !!!           |
|           W    W   A  A   R    R  NN   N  II  NN   N  G    G  !!!           |
|           W    W  A    A  R    R  N N  N  II  N N  N  G       !!!           |
|           W WW W  AAAAAA  RRRRR   N  N N  II  N  N N  G  GGG   !            |
|           WW  WW  A    A  R   R   N   NN  II  N   NN  G    G                |
|           W    W  A    A  R    R  N    N  II  N    N   GGGG   !!!           |
|                                                                             |
|      For optimal performance we recommend that you set                      |
|        NPAR = 4 - approx SQRT( number of cores)                             |
|      (number of cores/NPAR must be integer)                                 |
|      This setting will greatly improve the performance of VASP for DFT.     |
|      The default NPAR=number of cores might be grossly inefficient          |
|      on modern multi-core architectures or massively parallel machines.     |
|      Do your own testing.                                                   |
|      Unfortunately you need to use the default for hybrid, GW and RPA       |
|      calculations.                                                          |
|                                                                             |
 ----------------------------------------------------------------------------- 


 ----------------------------------------------------------------------------- 
|                                                                             |
|           W    W    AA    RRRRR   N    N  II  N    N   GGGG   !!!           |
|           W    W   A  A   R    R  NN   N  II  NN   N  G    G  !!!           |
|           W    W  A    A  R    R  N N  N  II  N N  N  G       !!!           |
|           W WW W  AAAAAA  RRRRR   N  N N  II  N  N N  G  GGG   !            |
|           WW  WW  A    A  R   R   N   NN  II  N   NN  G    G                |
|           W    W  A    A  R    R  N    N  II  N    N   GGGG   !!!           |
|                                                                             |
|      You have enabled k-point parallelism (KPAR>1).                         |
|      This developmental code was originally  written by Paul Kent at ORNL,  |
|      and carefully double checked in Vienna.                                |
|      GW as well as linear response parallelism added by Martijn Marsman     |
|      and Georg Kresse.                                                      |
|      Carefully verify results versus KPAR=1.                                |
|      Report problems to Paul Kent and Vienna.                               |
|                                                                             |
 ----------------------------------------------------------------------------- 

 POTCAR:    PAW_PBE Cu_pv 06Sep2000               
   VRHFIN =Cu: d10 p1                                                           
   LEXCH  = PE                                                                  
   EATOM  =  4120.1201 eV,  302.8203 Ry                                         
                                                                                
   TITEL  = PAW_PBE Cu_pv 06Sep2000                                             
   LULTRA =        F    use ultrasoft PP ?                                      
   IUNSCR =        1    unscreen: 0-lin 1-nonlin 2-no                           
   RPACOR =    1.500    partial core radius                                     
   POMASS =   63.546; ZVAL   =   17.000    mass and valenz                      
   RCORE  =    2.000    outmost cutoff radius                                   
   RWIGS  =    2.000; RWIGS  =    1.058    wigner-seitz radius (au A)           
   ENMAX  =  368.648; ENMIN  =  276.486 eV                                      
   RCLOC  =    1.304    cutoff for local pot                                    
   LCOR   =        T    correct aug charges                                     
   LPAW   =        T    paw PP                                                  
   EAUG   =  758.233                                                            
   DEXC   =    0.000                                                            
   RMAX   =    2.046    core radius for proj-oper                               
   RAUG   =    1.300    factor for augmentation sphere                          
   RDEP   =    2.025    radius for radial grids                                 
   RDEPT  =    1.558    core radius for aug-charge                              
                                                                                
   Atomic configuration                                                         
    8 entries                                                                   
     n  l   j            E        occ.                                          
     1  0  0.50     -8850.2467   2.0000                                         
     2  0  0.50     -1062.3498   2.0000                                         
     2  1  1.50      -916.8226   6.0000                                         
     3  0  0.50      -114.6929   2.0000                                         
     3  1  1.50       -72.1325   6.0000                                         
     3  2  2.50        -5.0394  10.0000                                         
     4  0  0.50        -4.6097   1.0000                                         
     4  3  2.50        -1.3606   0.0000                                         
   Description                                                                  
     l       E           TYP  RCUT    TYP  RCUT                                 
     1    -72.1324777     23  1.700                                             
     1     -1.3605826     23  1.700                                             
     2     -5.0393776     23  2.000                                             
     2     -6.3999602     23  2.000                                             
     0     -4.6097062     23  1.800                                             
     0     14.1620818     23  1.800                                             
  local pseudopotential read in
  partial core-charges read in
  partial kinetic energy density read in
  atomic valenz-charges read in
  non local Contribution for L=           1  read in
    real space projection operators read in
  non local Contribution for L=           1  read in
    real space projection operators read in
  non local Contribution for L=           2  read in
    real space projection operators read in
  non local Contribution for L=           2  read in
    real space projection operators read in
  non local Contribution for L=           0  read in
    real space projection operators read in
  non local Contribution for L=           0  read in
    real space projection operators read in
    PAW grid and wavefunctions read in
 
   number of l-projection  operators is LMAX  =           6
   number of lm-projection operators is LMMAX =          18
 
 POTCAR:    PAW_PBE Ge 05Jan2001                  
   VRHFIN =Ge: s2p2                                                             
   LEXCH  = PE                                                                  
   EATOM  =   104.9960 eV,    7.7170 Ry                                         
                                                                                
   TITEL  = PAW_PBE Ge 05Jan2001                                                
   LULTRA =        F    use ultrasoft PP ?                                      
   IUNSCR =        1    unscreen: 0-lin 1-nonlin 2-no                           
   RPACOR =    2.170    partial core radius                                     
   POMASS =   72.610; ZVAL   =    4.000    mass and valenz                      
   RCORE  =    2.300    outmost cutoff radius                                   
   RWIGS  =    2.300; RWIGS  =    1.217    wigner-seitz radius (au A)           
   ENMAX  =  173.807; ENMIN  =  130.355 eV                                      
   ICORE  =        3    local potential                                         
   LCOR   =        T    correct aug charges                                     
   LPAW   =        T    paw PP                                                  
   EAUG   =  385.843                                                            
   DEXC   =    0.000                                                            
   RMAX   =    2.342    core radius for proj-oper                               
   RAUG   =    1.300    factor for augmentation sphere                          
   RDEP   =    2.318    radius for radial grids                                 
   RDEPT  =    2.103    core radius for aug-charge                              
                                                                                
   Atomic configuration                                                         
   10 entries                                                                   
     n  l   j            E        occ.                                          
     1  0  0.50    -10959.8463   2.0000                                         
     2  0  0.50     -1371.6056   2.0000                                         
     2  1  1.50     -1198.4791   6.0000                                         
     3  0  0.50      -168.4733   2.0000                                         
     3  1  1.50      -115.6019   6.0000                                         
     3  2  2.50       -29.3106  10.0000                                         
     4  0  0.50       -11.7309   2.0000                                         
     4  1  0.50        -3.8952   2.0000                                         
     4  2  1.50        -4.0817   0.0000                                         
     4  3  2.50        -4.0817   0.0000                                         
   Description                                                                  
     l       E           TYP  RCUT    TYP  RCUT                                 
     0    -11.7309493     23  2.300                                             
     0     -7.4578696     23  2.300                                             
     1     -3.8952261     23  2.300                                             
     1      6.1178114     23  2.300                                             
     2     -4.0817478     23  2.300                                             
     3     -1.3605826      7  2.300                                             
  local pseudopotential read in
  partial core-charges read in
  partial kinetic energy density read in
  atomic valenz-charges read in
  non local Contribution for L=           0  read in
    real space projection operators read in
  non local Contribution for L=           0  read in
    real space projection operators read in
  non local Contribution for L=           1  read in
    real space projection operators read in
  non local Contribution for L=           1  read in
    real space projection operators read in
  non local Contribution for L=           2  read in
    real space projection operators read in
    PAW grid and wavefunctions read in
 
   number of l-projection  operators is LMAX  =           5
   number of lm-projection operators is LMMAX =          13
 
 POTCAR:    PAW_PBE S 17Jan2003                   
   VRHFIN =S : s2p4                                                             
   LEXCH  = PE                                                                  
   EATOM  =   276.8230 eV,   20.3459 Ry                                         
                                                                                
   TITEL  = PAW_PBE S 17Jan2003                                                 
   LULTRA =        F    use ultrasoft PP ?                                      
   IUNSCR =        1    unscreen: 0-lin 1-nonlin 2-no                           
   RPACOR =    1.500    partial core radius                                     
   POMASS =   32.066; ZVAL   =    6.000    mass and valenz                      
   RCORE  =    1.900    outmost cutoff radius                                   
   RWIGS  =    2.200; RWIGS  =    1.164    wigner-seitz radius (au A)           
   ENMAX  =  280.000; ENMIN  =  194.016 eV                                      
   ICORE  =        2    local potential                                         
   LCOR   =        T    correct aug charges                                     
   LPAW   =        T    paw PP                                                  
   EAUG   =  335.092                                                            
   DEXC   =     .000                                                            
   RMAX   =    2.867    core radius for proj-oper                               
   RAUG   =    1.300    factor for augmentation sphere                          
   RDEP   =    1.954    radius for radial grids                                 
   QCUT   =   -4.360; QGAM   =    8.721    optimization parameters              
                                                                                
   Description                                                                  
     l     E      TYP  RCUT    TYP  RCUT                                        
     0   .000     23  1.900                                                     
     0   .000     23  1.900                                                     
     1   .000     23  1.900                                                     
     1   .000     23  1.900                                                     
     2   .000     23  1.900                                                     
  local pseudopotential read in
  partial core-charges read in
  atomic valenz-charges read in
  non local Contribution for L=           0  read in
    real space projection operators read in
  non local Contribution for L=           0  read in
    real space projection operators read in
  non local Contribution for L=           1  read in
    real space projection operators read in
  non local Contribution for L=           1  read in
    real space projection operators read in
    PAW grid and wavefunctions read in
 
   number of l-projection  operators is LMAX  =           4
   number of lm-projection operators is LMMAX =           8
 
  PAW_PBE Cu_pv 06Sep2000               :
 energy of atom  1       EATOM=-4120.1201
 kinetic energy error for atom=    0.0996 (will be added to EATOM!!)
  PAW_PBE Ge 05Jan2001                  :
 energy of atom  2       EATOM= -104.9960
 kinetic energy error for atom=    0.0003 (will be added to EATOM!!)
  PAW_PBE S 17Jan2003                   :
 energy of atom  3       EATOM= -276.8230
 kinetic energy error for atom=    0.0046 (will be added to EATOM!!)
 
 
 POSCAR: Cu Ge S                                 
  positions in direct lattice
  No initial velocities read in
 exchange correlation table for  LEXCH =        8
   RHO(1)=    0.500       N(1)  =     2000
   RHO(2)=  100.500       N(2)  =     4000
 


--------------------------------------------------------------------------------------------------------


 ion  position               nearest neighbor table
   1  0.618  0.121  0.120-   9 2.29  11 2.29  12 2.30   8 2.35
   2  0.121  0.618  0.620-  12 2.29   7 2.29   9 2.31  10 2.35
   3  0.963  0.790  0.119-  11 2.30  12 2.30   7 2.31   8 2.36
   4  0.790  0.963  0.619-   9 2.29   7 2.30  11 2.31  10 2.36
   5  0.440  0.267  0.599-   7 2.19   9 2.20  10 2.31   8 2.33
   6  0.267  0.440  0.099-  11 2.19  12 2.19   8 2.31  10 2.33
   7  0.079  0.912  0.497-   5 2.19   2 2.29   4 2.30   3 2.31
   8  0.571  0.412  0.980-   6 2.31   5 2.33   1 2.35   3 2.36
   9  0.737  0.249  0.495-   5 2.20   4 2.29   1 2.29   2 2.31
  10  0.412  0.571  0.480-   5 2.31   6 2.33   2 2.35   4 2.36
  11  0.912  0.079  0.997-   6 2.19   1 2.29   3 2.30   4 2.31
  12  0.250  0.737  0.995-   6 2.19   2 2.29   3 2.30   1 2.30
 
  Warning from LATTYP: Got some problem with cell dimensions!
  Tried to take original basis but could not verify dimensions!
  LATTYP: Found a base centered monoclinic cell.
 ALAT       =     6.4499010947
 B/A-ratio  =     1.7500516418
 C/A-ratio  =     1.9305142024
 COS(beta)  =    -0.4326083233
  
  Lattice vectors:
  
 A1 = (   3.2247960000,   5.6438300000,   0.0315720000)
 A2 = (   3.2247960000,  -5.6438300000,   0.0315720000)
 A3 = ( -10.7972380000,   0.0000000000,  -6.2018250000)


Analysis of symmetry for initial positions (statically):
=====================================================================
 Subroutine PRICEL returns:
 Original cell was already a primitive cell.
 

 Routine SETGRP: Setting up the symmetry group for a 
 base centered monoclinic supercell.


 Subroutine GETGRP returns: Found  1 space group operations
 (whereof  1 operations were pure point group operations)
 out of a pool of  4 trial point group operations.


The static configuration has the point symmetry C_1 .


Analysis of symmetry for dynamics (positions and initial velocities):
=====================================================================
 Subroutine PRICEL returns:
 Original cell was already a primitive cell.
 

 Routine SETGRP: Setting up the symmetry group for a 
 base centered monoclinic supercell.


 Subroutine GETGRP returns: Found  1 space group operations
 (whereof  1 operations were pure point group operations)
 out of a pool of  4 trial point group operations.


The dynamic configuration has the point symmetry C_1 .


 irot  :   1
 --------------------------------------------------------------------
 isymop:   1   0   0
           0   1   0
           0   0   1

 gtrans:     0.0000000     0.0000000     0.0000000

 ptrans:     0.0000000     0.0000000     0.0000000
 rotmap:
 (   1->   1)  (   2->   2)  (   3->   3)  (   4->   4)  (   5->   5) 
 (   6->   6)  (   7->   7)  (   8->   8)  (   9->   9)  (  10->  10) 
 (  11->  11)  (  12->  12) 
 
 
 KPOINTS: pymatgen 4.7.6+ generated KPOINTS with g

Automatic generation of k-mesh.
Space group operators:
 irot       det(A)        alpha          n_x          n_y          n_z        tau_x        tau_y        tau_z
    1     1.000000     0.000000     1.000000     0.000000     0.000000     0.000000     0.000000     0.000000
 
 Subroutine IBZKPT returns following result:
 ===========================================
 
 Found     42 irreducible k-points:
 
 Following reciprocal coordinates:
            Coordinates               Weight
  0.000000  0.000000  0.000000      1.000000
  0.250000  0.000000  0.000000      2.000000
  0.500000  0.000000  0.000000      1.000000
  0.000000  0.250000  0.000000      2.000000
  0.250000  0.250000  0.000000      2.000000
  0.500000  0.250000 -0.000000      2.000000
 -0.250000  0.250000  0.000000      2.000000
  0.000000  0.500000  0.000000      1.000000
  0.250000  0.500000 -0.000000      2.000000
  0.500000  0.500000  0.000000      1.000000
 -0.000000 -0.000000  0.200000      2.000000
  0.250000  0.000000  0.200000      2.000000
  0.500000  0.000000  0.200000      2.000000
 -0.250000 -0.000000  0.200000      2.000000
  0.000000  0.250000  0.200000      2.000000
  0.250000  0.250000  0.200000      2.000000
  0.500000  0.250000  0.200000      2.000000
 -0.250000  0.250000  0.200000      2.000000
  0.000000  0.500000  0.200000      2.000000
  0.250000  0.500000  0.200000      2.000000
  0.500000  0.500000  0.200000      2.000000
 -0.250000  0.500000  0.200000      2.000000
 -0.000000 -0.250000  0.200000      2.000000
  0.250000 -0.250000  0.200000      2.000000
  0.500000 -0.250000  0.200000      2.000000
 -0.250000 -0.250000  0.200000      2.000000
 -0.000000 -0.000000  0.400000      2.000000
  0.250000  0.000000  0.400000      2.000000
  0.500000  0.000000  0.400000      2.000000
 -0.250000  0.000000  0.400000      2.000000
  0.000000  0.250000  0.400000      2.000000
  0.250000  0.250000  0.400000      2.000000
  0.500000  0.250000  0.400000      2.000000
 -0.250000  0.250000  0.400000      2.000000
  0.000000  0.500000  0.400000      2.000000
  0.250000  0.500000  0.400000      2.000000
  0.500000  0.500000  0.400000      2.000000
 -0.250000  0.500000  0.400000      2.000000
  0.000000 -0.250000  0.400000      2.000000
  0.250000 -0.250000  0.400000      2.000000
  0.500000 -0.250000  0.400000      2.000000
 -0.250000 -0.250000  0.400000      2.000000
 
 Following cartesian coordinates:
            Coordinates               Weight
  0.000000  0.000000  0.000000      1.000000
  0.038631 -0.022148  0.013365      2.000000
  0.077263 -0.044296  0.026730      1.000000
  0.038631  0.022148  0.013365      2.000000
  0.077263  0.000000  0.026730      2.000000
  0.115894 -0.022148  0.040096      2.000000
  0.000000  0.044296  0.000000      2.000000
  0.077263  0.044296  0.026730      1.000000
  0.115894  0.022148  0.040096      2.000000
  0.154525  0.000000  0.053461      1.000000
 -0.000321  0.000000  0.032808      2.000000
  0.038310 -0.022148  0.046173      2.000000
  0.076941 -0.044296  0.059538      2.000000
 -0.038952  0.022148  0.019443      2.000000
  0.038310  0.022148  0.046173      2.000000
  0.076941  0.000000  0.059538      2.000000
  0.115573 -0.022148  0.072903      2.000000
 -0.000321  0.044296  0.032808      2.000000
  0.076941  0.044296  0.059538      2.000000
  0.115573  0.022148  0.072903      2.000000
  0.154204  0.000000  0.086269      2.000000
  0.038310  0.066444  0.046173      2.000000
 -0.038952 -0.022148  0.019443      2.000000
 -0.000321 -0.044296  0.032808      2.000000
  0.038310 -0.066444  0.046173      2.000000
 -0.077584  0.000000  0.006077      2.000000
 -0.000642  0.000000  0.065616      2.000000
  0.037989 -0.022148  0.078981      2.000000
  0.076620 -0.044296  0.092346      2.000000
 -0.039274  0.022148  0.052250      2.000000
  0.037989  0.022148  0.078981      2.000000
  0.076620  0.000000  0.092346      2.000000
  0.115251 -0.022148  0.105711      2.000000
 -0.000642  0.044296  0.065616      2.000000
  0.076620  0.044296  0.092346      2.000000
  0.115251  0.022148  0.105711      2.000000
  0.153883  0.000000  0.119076      2.000000
  0.037989  0.066444  0.078981      2.000000
 -0.039274 -0.022148  0.052250      2.000000
 -0.000642 -0.044296  0.065616      2.000000
  0.037989 -0.066444  0.078981      2.000000
 -0.077905  0.000000  0.038885      2.000000
 
 
 Subroutine IBZKPT_HF returns following result:
 ==============================================
 
 Found     80 k-points in 1st BZ
 the following     80 k-points will be used (e.g. in the exchange kernel)
 Following reciprocal coordinates:   # in IRBZ
  0.000000  0.000000  0.000000       1 t-inv F
  0.250000  0.000000  0.000000       2 t-inv F
  0.500000  0.000000  0.000000       3 t-inv F
  0.000000  0.250000  0.000000       4 t-inv F
  0.250000  0.250000  0.000000       5 t-inv F
  0.500000  0.250000 -0.000000       6 t-inv F
 -0.250000  0.250000  0.000000       7 t-inv F
  0.000000  0.500000  0.000000       8 t-inv F
  0.250000  0.500000 -0.000000       9 t-inv F
  0.500000  0.500000  0.000000      10 t-inv F
 -0.000000 -0.000000  0.200000      11 t-inv F
  0.250000  0.000000  0.200000      12 t-inv F
  0.500000  0.000000  0.200000      13 t-inv F
 -0.250000 -0.000000  0.200000      14 t-inv F
  0.000000  0.250000  0.200000      15 t-inv F
  0.250000  0.250000  0.200000      16 t-inv F
  0.500000  0.250000  0.200000      17 t-inv F
 -0.250000  0.250000  0.200000      18 t-inv F
  0.000000  0.500000  0.200000      19 t-inv F
  0.250000  0.500000  0.200000      20 t-inv F
  0.500000  0.500000  0.200000      21 t-inv F
 -0.250000  0.500000  0.200000      22 t-inv F
 -0.000000 -0.250000  0.200000      23 t-inv F
  0.250000 -0.250000  0.200000      24 t-inv F
  0.500000 -0.250000  0.200000      25 t-inv F
 -0.250000 -0.250000  0.200000      26 t-inv F
 -0.000000 -0.000000  0.400000      27 t-inv F
  0.250000  0.000000  0.400000      28 t-inv F
  0.500000  0.000000  0.400000      29 t-inv F
 -0.250000  0.000000  0.400000      30 t-inv F
  0.000000  0.250000  0.400000      31 t-inv F
  0.250000  0.250000  0.400000      32 t-inv F
  0.500000  0.250000  0.400000      33 t-inv F
 -0.250000  0.250000  0.400000      34 t-inv F
  0.000000  0.500000  0.400000      35 t-inv F
  0.250000  0.500000  0.400000      36 t-inv F
  0.500000  0.500000  0.400000      37 t-inv F
 -0.250000  0.500000  0.400000      38 t-inv F
  0.000000 -0.250000  0.400000      39 t-inv F
  0.250000 -0.250000  0.400000      40 t-inv F
  0.500000 -0.250000  0.400000      41 t-inv F
 -0.250000 -0.250000  0.400000      42 t-inv F
 -0.250000 -0.000000 -0.000000       2 t-inv T
 -0.000000 -0.250000 -0.000000       4 t-inv T
 -0.250000 -0.250000  0.000000       5 t-inv T
 -0.500000 -0.250000  0.000000       6 t-inv T
  0.250000 -0.250000  0.000000       7 t-inv T
 -0.250000 -0.500000  0.000000       9 t-inv T
  0.000000  0.000000 -0.200000      11 t-inv T
 -0.250000 -0.000000 -0.200000      12 t-inv T
 -0.500000 -0.000000 -0.200000      13 t-inv T
  0.250000  0.000000 -0.200000      14 t-inv T
 -0.000000 -0.250000 -0.200000      15 t-inv T
 -0.250000 -0.250000 -0.200000      16 t-inv T
 -0.500000 -0.250000 -0.200000      17 t-inv T
  0.250000 -0.250000 -0.200000      18 t-inv T
 -0.000000 -0.500000 -0.200000      19 t-inv T
 -0.250000 -0.500000 -0.200000      20 t-inv T
 -0.500000 -0.500000 -0.200000      21 t-inv T
  0.250000 -0.500000 -0.200000      22 t-inv T
  0.000000  0.250000 -0.200000      23 t-inv T
 -0.250000  0.250000 -0.200000      24 t-inv T
 -0.500000  0.250000 -0.200000      25 t-inv T
  0.250000  0.250000 -0.200000      26 t-inv T
  0.000000  0.000000 -0.400000      27 t-inv T
 -0.250000 -0.000000 -0.400000      28 t-inv T
 -0.500000 -0.000000 -0.400000      29 t-inv T
  0.250000 -0.000000 -0.400000      30 t-inv T
 -0.000000 -0.250000 -0.400000      31 t-inv T
 -0.250000 -0.250000 -0.400000      32 t-inv T
 -0.500000 -0.250000 -0.400000      33 t-inv T
  0.250000 -0.250000 -0.400000      34 t-inv T
 -0.000000 -0.500000 -0.400000      35 t-inv T
 -0.250000 -0.500000 -0.400000      36 t-inv T
 -0.500000 -0.500000 -0.400000      37 t-inv T
  0.250000 -0.500000 -0.400000      38 t-inv T
 -0.000000  0.250000 -0.400000      39 t-inv T
 -0.250000  0.250000 -0.400000      40 t-inv T
 -0.500000  0.250000 -0.400000      41 t-inv T
  0.250000  0.250000 -0.400000      42 t-inv T


--------------------------------------------------------------------------------------------------------




 Dimension of arrays:
   k-points           NKPTS =     42   k-points in BZ     NKDIM =     80   number of bands    NBANDS=     80
   number of dos      NEDOS =    301   number of ions     NIONS =     12
   non local maximal  LDIM  =      6   non local SUM 2l+1 LMDIM =     18
   total plane-waves  NPLWV =  32768
   max r-space proj   IRMAX =      1   max aug-charges    IRDMAX=   8224
   dimension x,y,z NGX =    32 NGY =   32 NGZ =   32
   dimension x,y,z NGXF=    64 NGYF=   64 NGZF=   64
   support grid    NGXF=    64 NGYF=   64 NGZF=   64
   ions per type =               4   2   6
 NGX,Y,Z   is equivalent  to a cutoff of   8.18,  8.18,  8.27 a.u.
 NGXF,Y,Z  is equivalent  to a cutoff of  16.37, 16.37, 16.55 a.u.


 I would recommend the setting:
   dimension x,y,z NGX =    32 NGY =   32 NGZ =   31
 SYSTEM =  CGS                                     
 POSCAR =  Cu Ge S                                 

 Startparameter for this run:
   NWRITE =      2    write-flag & timer
   PREC   = normal    normal or accurate (medium, high low for compatibility)
   ISTART =      1    job   : 0-new  1-cont  2-samecut
   ICHARG =      0    charge: 1-file 2-atom 10-const
   ISPIN  =      1    spin polarized calculation?
   LNONCOLLINEAR =      F non collinear calculations
   LSORBIT =      F    spin-orbit coupling
   INIWAV =      1    electr: 0-lowe 1-rand  2-diag
   LASPH  =      F    aspherical Exc in radial PAW
   METAGGA=      F    non-selfconsistent MetaGGA calc.

 Electronic Relaxation 1
   ENCUT  =  400.0 eV  29.40 Ry    5.42 a.u.  10.60 10.60 10.48*2*pi/ulx,y,z
   ENINI  =  400.0     initial cutoff
   ENAUG  =  758.2 eV  augmentation charge cutoff
   NELM   =     60;   NELMIN=  2; NELMDL=  0     # of ELM steps 
   EDIFF  = 0.1E-04   stopping-criterion for ELM
   LREAL  =      F    real-space projection
   NLSPLINE    = F    spline interpolate recip. space projectors
   LCOMPAT=      F    compatible to vasp.4.4
   GGA_COMPAT  = T    GGA compatible to vasp.4.4-vasp.4.6
   LMAXPAW     = -100 max onsite density
   LMAXMIX     =    2 max onsite mixed and CHGCAR
   VOSKOWN=      0    Vosko Wilk Nusair interpolation
   ROPT   =    0.00000   0.00000   0.00000
 Ionic relaxation
   EDIFFG = 0.1E-03   stopping-criterion for IOM
   NSW    =      0    number of steps for IOM
   NBLOCK =      1;   KBLOCK =      1    inner block; outer block 
   IBRION =     -1    ionic relax: 0-MD 1-quasi-New 2-CG
   NFREE  =      0    steps in history (QN), initial steepest desc. (CG)
   ISIF   =      0    stress and relaxation
   IWAVPR =     10    prediction:  0-non 1-charg 2-wave 3-comb
   ISYM   =      3    0-nonsym 1-usesym 2-fastsym
   LCORR  =      T    Harris-Foulkes like correction to forces

   POTIM  = 0.5000    time-step for ionic-motion
   TEIN   =    0.0    initial temperature
   TEBEG  =    0.0;   TEEND  =   0.0 temperature during run
   SMASS  =  -3.00    Nose mass-parameter (am)
   estimated Nose-frequenzy (Omega)   =  0.10E-29 period in steps =****** mass=  -0.966E-27a.u.
   SCALEE = 1.0000    scale energy and forces
   NPACO  =    256;   APACO  = 16.0  distance and # of slots for P.C.
   PSTRESS=    0.0 pullay stress

  Mass of Ions in am
   POMASS =  63.55 72.61 32.07
  Ionic Valenz
   ZVAL   =  17.00  4.00  6.00
  Atomic Wigner-Seitz radii
   RWIGS  =  -1.00 -1.00 -1.00
  virtual crystal weights 
   VCA    =   1.00  1.00  1.00
   NELECT =     112.0000    total number of electrons
   NUPDOWN=      -1.0000    fix difference up-down

 DOS related values:
   EMIN   =  10.00;   EMAX   =-10.00  energy-range for DOS
   EFERMI =   0.00
   ISMEAR =     1;   SIGMA  =   0.10  broadening in eV -4-tet -1-fermi 0-gaus

 Electronic relaxation 2 (details)
   IALGO  =     53    algorithm
   LDIAG  =      T    sub-space diagonalisation (order eigenvalues)
   LSUBROT=      T    optimize rotation matrix (better conditioning)
   TURBO    =      0    0=normal 1=particle mesh
   IRESTART =      0    0=no restart 2=restart with 2 vectors
   NREBOOT  =      0    no. of reboots
   NMIN     =      0    reboot dimension
   EREF     =   0.00    reference energy to select bands
   IMIX   =      4    mixing-type and parameters
     AMIX     =   0.40;   BMIX     =  1.00
     AMIX_MAG =   1.60;   BMIX_MAG =  1.00
     AMIN     =   0.10
     WC   =   100.;   INIMIX=   1;  MIXPRE=   1;  MAXMIX= -45

 Intra band minimization:
   WEIMIN = 0.0000     energy-eigenvalue tresh-hold
   EBREAK =  0.31E-07  absolut break condition
   DEPER  =   0.30     relativ break condition  

   TIME   =   0.40     timestep for ELM

  volume/ion in A,a.u.               =      18.49       124.79
  Fermi-wavevector in a.u.,A,eV,Ry     =   1.303450  2.463163 23.116052  1.698982
  Thomas-Fermi vector in A             =   2.434451
 
 Write flags
   LWAVE  =      T    write WAVECAR
   LCHARG =      T    write CHGCAR
   LVTOT  =      F    write LOCPOT, total local potential
   LVHAR  =      F    write LOCPOT, Hartree potential only
   LELF   =      F    write electronic localiz. function (ELF)
   LORBIT =      0    0 simple, 1 ext, 2 COOP (PROOUT)


 Dipole corrections
   LMONO  =      F    monopole corrections only (constant potential shift)
   LDIPOL =      F    correct potential (dipole corrections)
   IDIPOL =      0    1-x, 2-y, 3-z, 4-all directions 
   EPSILON=  1.0000000 bulk dielectric constant

 Exchange correlation treatment:
   GGA     =    PE    GGA type
   LEXCH   =     8    internal setting for exchange type
   VOSKOWN=      0    Vosko Wilk Nusair interpolation
   EXXOEP  =     0    0=HF, 1=EXX-LHF (local Hartree Fock) 2=EXX OEP
   LHFCALC =     T    Hartree Fock is set to
   LSYMGRAD=     F    symmetrize gradient (conserves proper symmetry)
   PRECFOCK=fast      Normal, Fast or Accurate (Low or Medium for compatibility)
   LRHFCALC=     F    long range Hartree Fock
   LRSCOR  =     F    long range correlation only (use DFT for short range part)
   LTHOMAS =     F    Thomas Fermi screening in HF
   LMODELHF=     F    short range full HF, long range fraction AEXX
   ENCUT4O =  -1.0   cutoff for four orbital integrals eV
   LMAXFOCK=     4    L truncation for augmentation on plane wave grid
   LMAXFOCKAE=  -1    L truncation for all-electron charge restoration on plane wave grid
   NMAXFOCKAE=   1    number of basis functions for all-electron charge restoration
   LFOCKAEDFT=     F  apply the AE augmentation even for DFT
   NKREDX  =     1    reduce k-point grid by
   NKREDY  =     1    reduce k-point grid by
   NKREDZ  =     1    reduce k-point grid by
   SHIFTRED=     F    shift reduced grid of Gamma
   HFKIDENT=     F    idential grid for each k-point
   ODDONLY =     F    use only odd q-grid points
   EVENONLY=     F    use only even q-grid points
   HFALPHA =   -1.0000 decay constant for conv. correction
   MCALPHA =    0.0000 extent of test-charge in conv. correction in multipole expansion
   AEXX    =    0.2500 exact exchange contribution
   HFSCREEN=    0.2000 screening length (either q_TF or 0.3 A-1)
   HFSCREENC=   0.2000 screening length for correlation (either q_TF or 0.3 A-1)
   HFRCUT  =    0.0000 spherical cutoff for potential kernel
   ALDAX   =    0.7500 LDA exchange part
   AGGAX   =    0.7500 GGA exchange part
   ALDAC   =    1.0000 LDA correlation
   AGGAC   =    1.0000 GGA correlation
   NBANDSGWLOW=     1    first orbital included in HF term
 Linear response parameters
   LEPSILON=     F    determine dielectric tensor
   LRPA    =     F    only Hartree local field effects (RPA)
   LNABLA  =     F    use nabla operator in PAW spheres
   LVEL    =     F    velocity operator in full k-point grid
   LINTERFAST=   F  fast interpolation
   KINTER  =     0    interpolate to denser k-point grid
   CSHIFT  =0.1000    complex shift for real part using Kramers Kronig
   OMEGAMAX=  -1.0    maximum frequency
   DEG_THRESHOLD= 0.2000000E-02 threshold for treating states as degnerate
   RTIME   =    0.100 relaxation time in fs

 Orbital magnetization related:
   ORBITALMAG=     F  switch on orbital magnetization
   LCHIMAG   =     F  perturbation theory with respect to B field
   DQ        =  0.001000  dq finite difference perturbation B field



--------------------------------------------------------------------------------------------------------


 Static calculation
 charge density and potential will be updated during run
 non-spin polarized calculation
 Conjugate gradient for all bands, subspace preconditioning
 perform sub-space diagonalisation
    before iterative eigenvector-optimisation
 modified Broyden-mixing scheme, WC =      100.0
 initial mixing is a Kerker type mixing with AMIX =  0.4000 and BMIX =      1.0000
 Hartree-type preconditioning will be used
 using additional bands           24
 reciprocal scheme for non local part
 use partial core corrections
 no Harris-corrections to forces 
 use gradient corrections 
 use of overlap-Matrix (Vanderbilt PP)
 Methfessel and Paxton  Order N= 1 SIGMA  =   0.10


--------------------------------------------------------------------------------------------------------


  energy-cutoff  :      400.00
  volume of cell :      221.90
      direct lattice vectors                 reciprocal lattice vectors
     3.224796000 -5.643830000  0.031572000     0.154525165 -0.088592321  0.053460880
     3.224796000  5.643830000  0.031572000     0.154525165  0.088592321  0.053460880
    -2.101946000  0.000000000  6.075537000    -0.001606004  0.000000000  0.164038877

  length of vectors
     6.500240234  6.500240234  6.428866683     0.185969598  0.185969598  0.164046738


 
 old parameters found on file WAVECAR:
  energy-cutoff  :      400.00
  volume of cell :      222.35
      direct lattice vectors                 reciprocal lattice vectors
     3.227235519 -5.642745207  0.030241751     0.154430495 -0.088609353  0.053450002
     3.227235519  5.642745207  0.030241751     0.154430495  0.088609353  0.053450002
    -2.106135241  0.000000000  6.085154262    -0.001534965  0.000000000  0.163803104

  length of vectors

 
 k-points in units of 2pi/SCALE and weight: pymatgen 4.7.6+ generated KPOINTS with g
   0.00000000  0.00000000  0.00000000       0.013
   0.03863129 -0.02214808  0.01336522       0.025
   0.07726258 -0.04429616  0.02673044       0.013
   0.03863129  0.02214808  0.01336522       0.025
   0.07726258  0.00000000  0.02673044       0.025
   0.11589387 -0.02214808  0.04009566       0.025
   0.00000000  0.04429616  0.00000000       0.025
   0.07726258  0.04429616  0.02673044       0.013
   0.11589387  0.02214808  0.04009566       0.025
   0.15452516  0.00000000  0.05346088       0.013
  -0.00032120  0.00000000  0.03280778       0.025
   0.03831009 -0.02214808  0.04617300       0.025
   0.07694138 -0.04429616  0.05953822       0.025
  -0.03895249  0.02214808  0.01944256       0.025
   0.03831009  0.02214808  0.04617300       0.025
   0.07694138  0.00000000  0.05953822       0.025
   0.11557267 -0.02214808  0.07290344       0.025
  -0.00032120  0.04429616  0.03280778       0.025
   0.07694138  0.04429616  0.05953822       0.025
   0.11557267  0.02214808  0.07290344       0.025
   0.15420396  0.00000000  0.08626865       0.025
   0.03831009  0.06644424  0.04617300       0.025
  -0.03895249 -0.02214808  0.01944256       0.025
  -0.00032120 -0.04429616  0.03280778       0.025
   0.03831009 -0.06644424  0.04617300       0.025
  -0.07758378  0.00000000  0.00607734       0.025
  -0.00064240  0.00000000  0.06561555       0.025
   0.03798889 -0.02214808  0.07898077       0.025
   0.07662018 -0.04429616  0.09234599       0.025
  -0.03927369  0.02214808  0.05225033       0.025
   0.03798889  0.02214808  0.07898077       0.025
   0.07662018  0.00000000  0.09234599       0.025
   0.11525147 -0.02214808  0.10571121       0.025
  -0.00064240  0.04429616  0.06561555       0.025
   0.07662018  0.04429616  0.09234599       0.025
   0.11525147  0.02214808  0.10571121       0.025
   0.15388276  0.00000000  0.11907643       0.025
   0.03798889  0.06644424  0.07898077       0.025
  -0.03927369 -0.02214808  0.05225033       0.025
  -0.00064240 -0.04429616  0.06561555       0.025
   0.03798889 -0.06644424  0.07898077       0.025
  -0.07790498  0.00000000  0.03888511       0.025
 
 k-points in reciprocal lattice and weights: pymatgen 4.7.6+ generated KPOINTS with g
   0.00000000  0.00000000  0.00000000       0.013
   0.25000000  0.00000000  0.00000000       0.025
   0.50000000  0.00000000  0.00000000       0.013
   0.00000000  0.25000000  0.00000000       0.025
   0.25000000  0.25000000  0.00000000       0.025
   0.50000000  0.25000000 -0.00000000       0.025
  -0.25000000  0.25000000  0.00000000       0.025
   0.00000000  0.50000000  0.00000000       0.013
   0.25000000  0.50000000 -0.00000000       0.025
   0.50000000  0.50000000  0.00000000       0.013
  -0.00000000 -0.00000000  0.20000000       0.025
   0.25000000  0.00000000  0.20000000       0.025
   0.50000000  0.00000000  0.20000000       0.025
  -0.25000000 -0.00000000  0.20000000       0.025
   0.00000000  0.25000000  0.20000000       0.025
   0.25000000  0.25000000  0.20000000       0.025
   0.50000000  0.25000000  0.20000000       0.025
  -0.25000000  0.25000000  0.20000000       0.025
   0.00000000  0.50000000  0.20000000       0.025
   0.25000000  0.50000000  0.20000000       0.025
   0.50000000  0.50000000  0.20000000       0.025
  -0.25000000  0.50000000  0.20000000       0.025
  -0.00000000 -0.25000000  0.20000000       0.025
   0.25000000 -0.25000000  0.20000000       0.025
   0.50000000 -0.25000000  0.20000000       0.025
  -0.25000000 -0.25000000  0.20000000       0.025
  -0.00000000 -0.00000000  0.40000000       0.025
   0.25000000  0.00000000  0.40000000       0.025
   0.50000000  0.00000000  0.40000000       0.025
  -0.25000000  0.00000000  0.40000000       0.025
   0.00000000  0.25000000  0.40000000       0.025
   0.25000000  0.25000000  0.40000000       0.025
   0.50000000  0.25000000  0.40000000       0.025
  -0.25000000  0.25000000  0.40000000       0.025
   0.00000000  0.50000000  0.40000000       0.025
   0.25000000  0.50000000  0.40000000       0.025
   0.50000000  0.50000000  0.40000000       0.025
  -0.25000000  0.50000000  0.40000000       0.025
   0.00000000 -0.25000000  0.40000000       0.025
   0.25000000 -0.25000000  0.40000000       0.025
   0.50000000 -0.25000000  0.40000000       0.025
  -0.25000000 -0.25000000  0.40000000       0.025
 
 position of ions in fractional coordinates (direct lattice) 
   0.61844300  0.12117100  0.11953300
   0.12117100  0.61844300  0.61953300
   0.96295700  0.79032200  0.11881300
   0.79032200  0.96295700  0.61881300
   0.43973200  0.26728100  0.59904700
   0.26728100  0.43973200  0.09904700
   0.07949800  0.91167500  0.49736300
   0.57140300  0.41236400  0.98018400
   0.73711100  0.24852360  0.49504900
   0.41236400  0.57140300  0.48018400
   0.91167500  0.07949800  0.99736300
   0.25006200  0.73711100  0.99504900
 
 position of ions in cartesian coordinates  (Angst):
   2.13385236 -2.80651863  0.74957826
   1.08287936  2.80651863  3.78734676
   5.40422860 -0.97432259  0.77720730
   4.35325560  0.97432259  3.81497580
   1.02080825 -0.97328413  3.66185403
   2.07178125  0.97328413  0.62408553
   2.15090056  4.69666552  3.05304062
   1.11215405 -0.89758908  5.98620365
   2.13790424 -2.75750425  3.03880697
   2.16312705  0.89758908  2.94843515
   1.09992756 -4.69666552  6.09080912
   1.09189228  2.74882176  6.07662404
 


--------------------------------------------------------------------------------------------------------


 k-point  1 :   0.0000 0.0000 0.0000  plane waves:    4051
 k-point  2 :   0.2500 0.0000 0.0000  plane waves:    4032
 k-point  3 :   0.5000 0.0000 0.0000  plane waves:    4030
 k-point  4 :   0.0000 0.2500 0.0000  plane waves:    4032
 k-point  5 :   0.2500 0.2500 0.0000  plane waves:    4038
 k-point  6 :   0.5000 0.2500-0.0000  plane waves:    4037
 k-point  7 :  -0.2500 0.2500 0.0000  plane waves:    4042
 k-point  8 :   0.0000 0.5000 0.0000  plane waves:    4030
 k-point  9 :   0.2500 0.5000-0.0000  plane waves:    4037
 k-point 10 :   0.5000 0.5000 0.0000  plane waves:    4026
 k-point 11 :  -0.0000-0.0000 0.2000  plane waves:    4046
 k-point 12 :   0.2500 0.0000 0.2000  plane waves:    4034
 k-point 13 :   0.5000 0.0000 0.2000  plane waves:    4025
 k-point 14 :  -0.2500-0.0000 0.2000  plane waves:    4044
 k-point 15 :   0.0000 0.2500 0.2000  plane waves:    4034
 k-point 16 :   0.2500 0.2500 0.2000  plane waves:    4017
 k-point 17 :   0.5000 0.2500 0.2000  plane waves:    4039
 k-point 18 :  -0.2500 0.2500 0.2000  plane waves:    4042
 k-point 19 :   0.0000 0.5000 0.2000  plane waves:    4025
 k-point 20 :   0.2500 0.5000 0.2000  plane waves:    4039
 k-point 21 :   0.5000 0.5000 0.2000  plane waves:    4030
 k-point 22 :  -0.2500 0.5000 0.2000  plane waves:    4030
 k-point 23 :  -0.0000-0.2500 0.2000  plane waves:    4044
 k-point 24 :   0.2500-0.2500 0.2000  plane waves:    4042
 k-point 25 :   0.5000-0.2500 0.2000  plane waves:    4030
 k-point 26 :  -0.2500-0.2500 0.2000  plane waves:    4020
 k-point 27 :  -0.0000-0.0000 0.4000  plane waves:    4027
 k-point 28 :   0.2500 0.0000 0.4000  plane waves:    4034
 k-point 29 :   0.5000 0.0000 0.4000  plane waves:    4013
 k-point 30 :  -0.2500 0.0000 0.4000  plane waves:    4042
 k-point 31 :   0.0000 0.2500 0.4000  plane waves:    4034
 k-point 32 :   0.2500 0.2500 0.4000  plane waves:    4009
 k-point 33 :   0.5000 0.2500 0.4000  plane waves:    4026
 k-point 34 :  -0.2500 0.2500 0.4000  plane waves:    4027
 k-point 35 :   0.0000 0.5000 0.4000  plane waves:    4013
 k-point 36 :   0.2500 0.5000 0.4000  plane waves:    4026
 k-point 37 :   0.5000 0.5000 0.4000  plane waves:    4037
 k-point 38 :  -0.2500 0.5000 0.4000  plane waves:    4022
 k-point 39 :   0.0000-0.2500 0.4000  plane waves:    4042
 k-point 40 :   0.2500-0.2500 0.4000  plane waves:    4027
 k-point 41 :   0.5000-0.2500 0.4000  plane waves:    4022
 k-point 42 :  -0.2500-0.2500 0.4000  plane waves:    4015

 maximum and minimum number of plane-waves per node :      4051     4009

 maximum number of plane-waves:      4051
 maximum index in each direction: 
   IXMAX=   10   IYMAX=   10   IZMAX=   10
   IXMIN=  -11   IYMIN=  -11   IZMIN=  -10

 WARNING: aliasing errors must be expected set NGX to  44 to avoid them
 WARNING: aliasing errors must be expected set NGY to  44 to avoid them
 WARNING: aliasing errors must be expected set NGZ to  42 to avoid them
 aliasing errors are usually negligible using standard VASP settings
 and one can safely disregard these warnings

 serial   3D FFT for wavefunctions
 parallel 3D FFT for charge:
    minimum data exchange during FFTs selected (reduces bandwidth)


 FFT grid for exact exchange (Hartree Fock) 
  NGX = 24; NGY = 24; NGZ = 24

 
 Radii for the augmentation spheres in the non-local exchange
 for species   1 augmentation radius   1.120 (default was   0.830)
       energy cutoff for augmentation   1600.0
 for species   2 augmentation radius   1.570 (default was   1.163)
       energy cutoff for augmentation   1600.0
 for species   3 augmentation radius   1.034 (default was   0.970)
       energy cutoff for augmentation   1600.0

 total amount of memory used by VASP on root node   151696. kBytes
========================================================================

   base      :      30000. kBytes
   nonl-proj :      74517. kBytes
   fftplans  :        702. kBytes
   grid      :       2400. kBytes
   one-center:        186. kBytes
   HF        :        194. kBytes
   nonlr-proj:       1121. kBytes
   wavefun   :      42576. kBytes
 
 Broyden mixing: mesh for mixing (old mesh)
   NGX = 21   NGY = 21   NGZ = 21
  (NGX  = 64   NGY  = 64   NGZ  = 64)
  gives a total of   9261 points

 charge density for first step will be calculated from the start-wavefunctions


--------------------------------------------------------------------------------------------------------


 Maximum index for augmentation-charges          485 (set IRDMAX)


--------------------------------------------------------------------------------------------------------


 initial charge from wavefunction
 First call to EWALD:  gamma=   0.293
 Maximum number of real-space cells 3x 3x 3
 Maximum number of reciprocal cells 3x 3x 3

 FEWALD executed in parallel
    FEWALD:  cpu time    0.00: real time    0.00


----------------------------------------- Iteration    1(   1)  ---------------------------------------


    POTLOK:  cpu time    0.05: real time    0.05
    SETDIJ:  cpu time    1.97: real time    1.97
 
    SUBROT:  cpu time    0.71: real time    0.71
    SUBROT:  cpu time    0.35: real time    0.35
    SUBROT:  cpu time    0.34: real time    0.34
    --------------------------------------------
    SUBRT+:  cpu time    1.41: real time    1.42

 Broyden mixing:
  rms(total) = 0.32930E-01    rms(broyden)= 0.32916E-01
  rms(prec ) = 0.47304E-01
  weight for this iteration     100.00

 eigenvalues of (default mixing * dielectric matrix)
  average eigenvalue GAMMA=   1.7159
  0.9770  2.4547
 
    TRIAL :  cpu time  248.48: real time  248.27
    CORREC:  cpu time    0.00: real time    0.00
    CHARGE:  cpu time    0.06: real time    0.06
    --------------------------------------------
      LOOP:  cpu time  250.58: real time  250.37

 eigenvalue-minimisations  :     0
 total energy-change (2. order) : 0.7553989E+02  (-0.2132390E+03)
 number of electron     112.0001479 magnetization 
 augmentation part       38.9116322 magnetization 

 Free energy of the ion-electron system (eV)
  ---------------------------------------------------
  alpha Z        PSCENC =       339.31929130
  Ewald energy   TEWEN  =     -9063.82881239
  -1/2 Hartree   DENC   =     -8067.44599581
  -exchange  EXHF       =       327.44909042
  -V(xc)+E(xc)   XCENC  =       369.90406456
  PAW double counting   =     16899.31032796   -17392.12360411
  entropy T*S    EENTRO =        -0.00142718
  eigenvalues    EBANDS =     -1658.02815875
  atomic energy  EATOM  =     18320.98302006
  ---------------------------------------------------
  free energy    TOTEN  =        75.53988653 eV

  energy without entropy =       75.54131371  energy(sigma->0) =       75.54036225


--------------------------------------------------------------------------------------------------------




----------------------------------------- Iteration    1(   2)  ---------------------------------------


    POTLOK:  cpu time    0.05: real time    0.05
    SETDIJ:  cpu time    2.00: real time    1.99
 
    SUBROT:  cpu time    0.71: real time    0.71
    SUBROT:  cpu time    0.36: real time    0.36
    SUBROT:  cpu time    0.36: real time    0.36
    SUBROT:  cpu time    0.35: real time    0.35
    --------------------------------------------
    SUBRT+:  cpu time    1.79: real time    1.79

 Broyden mixing:
  rms(total) = 0.27548E-01    rms(broyden)= 0.27537E-01
  rms(prec ) = 0.50296E-01
  weight for this iteration     100.00

 eigenvalues of (default mixing * dielectric matrix)
  average eigenvalue GAMMA=   1.5528
  2.5461  1.2540  0.8582
 
    TRIAL :  cpu time  256.83: real time  256.61
    CORREC:  cpu time    0.00: real time    0.00
    CHARGE:  cpu time    0.11: real time    0.11
    --------------------------------------------
      LOOP:  cpu time  259.00: real time  258.80

 eigenvalue-minimisations  :     0
 total energy-change (2. order) :-0.8391570E+02  (-0.1468790E+03)
 number of electron     112.0001384 magnetization 
 augmentation part       35.4536785 magnetization 

 Free energy of the ion-electron system (eV)
  ---------------------------------------------------
  alpha Z        PSCENC =       339.31929130
  Ewald energy   TEWEN  =     -9063.82881239
  -1/2 Hartree   DENC   =     -8371.25145059
  -exchange  EXHF       =       338.95545054
  -V(xc)+E(xc)   XCENC  =       377.32131231
  PAW double counting   =     17401.49224806   -17940.63467134
  entropy T*S    EENTRO =        -0.00078458
  eigenvalues    EBANDS =     -1410.73076967
  atomic energy  EATOM  =     18320.98302006
  ---------------------------------------------------
  free energy    TOTEN  =        -8.37580890 eV

  energy without entropy =       -8.37502432  energy(sigma->0) =       -8.37554738


--------------------------------------------------------------------------------------------------------




----------------------------------------- Iteration    1(   3)  ---------------------------------------


    POTLOK:  cpu time    0.05: real time    0.05
    SETDIJ:  cpu time    1.98: real time    1.98
 
    SUBROT:  cpu time    0.72: real time    0.72
    SUBROT:  cpu time    0.34: real time    0.35
    SUBROT:  cpu time    0.35: real time    0.35
    SUBROT:  cpu time    0.34: real time    0.34
    --------------------------------------------
    SUBRT+:  cpu time    1.75: real time    1.79

 Broyden mixing:
  rms(total) = 0.28147E-01    rms(broyden)= 0.28136E-01
  rms(prec ) = 0.52413E-01
  weight for this iteration     100.00

 eigenvalues of (default mixing * dielectric matrix)
  average eigenvalue GAMMA=   1.7741
  1.0114  2.4989  1.8119
 
    TRIAL :  cpu time  255.97: real time  255.83
    CORREC:  cpu time    0.00: real time    0.00
    CHARGE:  cpu time    0.06: real time    0.06
    --------------------------------------------
      LOOP:  cpu time  258.07: real time  257.92

 eigenvalue-minimisations  :     0
 total energy-change (2. order) :-0.6804526E+01  (-0.2036988E+03)
 number of electron     112.0001509 magnetization 
 augmentation part       39.6841034 magnetization 

 Free energy of the ion-electron system (eV)
  ---------------------------------------------------
  alpha Z        PSCENC =       339.31929130
  Ewald energy   TEWEN  =     -9063.82881239
  -1/2 Hartree   DENC   =     -7478.71617311
  -exchange  EXHF       =       324.98236883
  -V(xc)+E(xc)   XCENC  =       357.39264677
  PAW double counting   =     15150.25489906   -15579.72611252
  entropy T*S    EENTRO =         0.00015307
  eigenvalues    EBANDS =     -2385.84067783
  atomic energy  EATOM  =     18320.98302006
  ---------------------------------------------------
  free energy    TOTEN  =       -15.18033440 eV

  energy without entropy =      -15.18048747  energy(sigma->0) =      -15.18038543


--------------------------------------------------------------------------------------------------------




----------------------------------------- Iteration    1(   4)  ---------------------------------------


    POTLOK:  cpu time    0.06: real time    0.06
    SETDIJ:  cpu time    1.99: real time    2.00
 
    SUBROT:  cpu time    0.71: real time    0.71
    SUBROT:  cpu time    0.36: real time    0.36
    SUBROT:  cpu time    0.34: real time    0.34
    SUBROT:  cpu time    0.35: real time    0.35
    SUBROT:  cpu time    0.37: real time    0.37
    --------------------------------------------
    SUBRT+:  cpu time    2.13: real time    2.14

 Broyden mixing:
  rms(total) = 0.11049E+00    rms(broyden)= 0.11028E+00
  rms(prec ) = 0.19537E+00
  weight for this iteration     100.00

 eigenvalues of (default mixing * dielectric matrix)
  average eigenvalue GAMMA=   1.2973
  2.6468  1.4613  0.6856  0.3954
 
    TRIAL :  cpu time  258.06: real time  257.84
    CORREC:  cpu time    0.00: real time    0.00
    CHARGE:  cpu time    0.09: real time    0.09
    --------------------------------------------
      LOOP:  cpu time  260.21: real time  259.99

 eigenvalue-minimisations  :     0
 total energy-change (2. order) :-0.7474947E+01  (-0.1073921E+03)
 number of electron     112.0001429 magnetization 
 augmentation part       37.2425722 magnetization 

 Free energy of the ion-electron system (eV)
  ---------------------------------------------------
  alpha Z        PSCENC =       339.31929130
  Ewald energy   TEWEN  =     -9063.82881239
  -1/2 Hartree   DENC   =     -8544.16314721
  -exchange  EXHF       =       342.98949142
  -V(xc)+E(xc)   XCENC  =       381.65227296
  PAW double counting   =     17632.72249398   -18213.45125405
  entropy T*S    EENTRO =         0.00035354
  eigenvalues    EBANDS =     -1218.87879087
  atomic energy  EATOM  =     18320.98302006
  ---------------------------------------------------
  free energy    TOTEN  =       -22.65528174 eV

  energy without entropy =      -22.65563527  energy(sigma->0) =      -22.65539958


--------------------------------------------------------------------------------------------------------




----------------------------------------- Iteration    1(   5)  ---------------------------------------


    POTLOK:  cpu time    0.06: real time    0.06
    SETDIJ:  cpu time    1.99: real time    1.99
 
    SUBROT:  cpu time    1.79: real time    1.79
    SUBROT:  cpu time    0.51: real time    0.51
    SUBROT:  cpu time    0.35: real time    0.35
    SUBROT:  cpu time    0.34: real time    0.34
    --------------------------------------------
    SUBRT+:  cpu time    2.99: real time    2.99

 Broyden mixing:
  rms(total) = 0.42239E-01    rms(broyden)= 0.42230E-01
  rms(prec ) = 0.86983E-01
  weight for this iteration     100.00

 eigenvalues of (default mixing * dielectric matrix)
  average eigenvalue GAMMA=   1.6630
  2.4711  0.9366  1.5813
 
    TRIAL :  cpu time  260.10: real time  259.87
    CORREC:  cpu time    0.00: real time    0.00
    CHARGE:  cpu time    0.10: real time    0.10
    --------------------------------------------
      LOOP:  cpu time  262.26: real time  262.02

 eigenvalue-minimisations  :     0
 total energy-change (2. order) :-0.3816175E+02  (-0.1508038E+02)
 number of electron     112.0001429 magnetization 
 augmentation part       37.2494912 magnetization 

 Free energy of the ion-electron system (eV)
  ---------------------------------------------------
  alpha Z        PSCENC =       339.31929130
  Ewald energy   TEWEN  =     -9063.82881239
  -1/2 Hartree   DENC   =     -8008.95550890
  -exchange  EXHF       =       336.37719173
  -V(xc)+E(xc)   XCENC  =       368.39311730
  PAW double counting   =     15870.07824836   -16339.51630845
  entropy T*S    EENTRO =         0.00063703
  eigenvalues    EBANDS =     -1883.66762298
  atomic energy  EATOM  =     18320.98302006
  ---------------------------------------------------
  free energy    TOTEN  =       -60.81703043 eV

  energy without entropy =      -60.81766746  energy(sigma->0) =      -60.81724278


--------------------------------------------------------------------------------------------------------




----------------------------------------- Iteration    1(   6)  ---------------------------------------


    POTLOK:  cpu time    0.05: real time    0.05
    SETDIJ:  cpu time    1.99: real time    1.99
 
    SUBROT:  cpu time    0.71: real time    0.71
    SUBROT:  cpu time    0.35: real time    0.35
    SUBROT:  cpu time    0.37: real time    0.37
    SUBROT:  cpu time    0.36: real time    0.36
    --------------------------------------------
    SUBRT+:  cpu time    1.80: real time    1.80

 Broyden mixing:
  rms(total) = 0.28076E-02    rms(broyden)= 0.28068E-02
  rms(prec ) = 0.46242E-02
  weight for this iteration     100.00

 eigenvalues of (default mixing * dielectric matrix)
  average eigenvalue GAMMA=   1.8013
  1.0029  1.8725  2.5285
 
    TRIAL :  cpu time  257.76: real time  257.53
    CORREC:  cpu time    0.00: real time    0.00
    CHARGE:  cpu time    0.10: real time    0.10
    --------------------------------------------
      LOOP:  cpu time  259.91: real time  259.68

 eigenvalue-minimisations  :     0
 total energy-change (2. order) :-0.5134246E+01  (-0.8124086E+01)
 number of electron     112.0001459 magnetization 
 augmentation part       38.2254210 magnetization 

 Free energy of the ion-electron system (eV)
  ---------------------------------------------------
  alpha Z        PSCENC =       339.31929130
  Ewald energy   TEWEN  =     -9063.82881239
  -1/2 Hartree   DENC   =     -8003.52439892
  -exchange  EXHF       =       337.16553055
  -V(xc)+E(xc)   XCENC  =       368.80786891
  PAW double counting   =     15773.52601298   -16242.66020863
  entropy T*S    EENTRO =         0.00062716
  eigenvalues    EBANDS =     -1895.74021716
  atomic energy  EATOM  =     18320.98302006
  ---------------------------------------------------
  free energy    TOTEN  =       -65.95127627 eV

  energy without entropy =      -65.95190342  energy(sigma->0) =      -65.95148532


--------------------------------------------------------------------------------------------------------




----------------------------------------- Iteration    1(   7)  ---------------------------------------


    POTLOK:  cpu time    0.05: real time    0.08
    SETDIJ:  cpu time    2.00: real time    1.99
 
    SUBROT:  cpu time    0.71: real time    0.71
    SUBROT:  cpu time    0.35: real time    0.35
    SUBROT:  cpu time    0.34: real time    0.34
    SUBROT:  cpu time    0.35: real time    0.35
    --------------------------------------------
    SUBRT+:  cpu time    1.76: real time    1.78

 Broyden mixing:
  rms(total) = 0.13086E-01    rms(broyden)= 0.13082E-01
  rms(prec ) = 0.23240E-01
  weight for this iteration     100.00

 eigenvalues of (default mixing * dielectric matrix)
  average eigenvalue GAMMA=   1.6543
  2.5050  0.8959  1.5621
 
    TRIAL :  cpu time  259.52: real time  259.31
    CORREC:  cpu time    0.00: real time    0.00
    CHARGE:  cpu time    0.10: real time    0.10
    --------------------------------------------
      LOOP:  cpu time  261.68: real time  261.50

 eigenvalue-minimisations  :     0
 total energy-change (2. order) :-0.1532865E+01  (-0.4115969E+01)
 number of electron     112.0001442 magnetization 
 augmentation part       37.7051439 magnetization 

 Free energy of the ion-electron system (eV)
  ---------------------------------------------------
  alpha Z        PSCENC =       339.31929130
  Ewald energy   TEWEN  =     -9063.82881239
  -1/2 Hartree   DENC   =     -8244.02243221
  -exchange  EXHF       =       341.61292115
  -V(xc)+E(xc)   XCENC  =       374.54836900
  PAW double counting   =     16206.16250305   -16709.41405661
  entropy T*S    EENTRO =         0.00042255
  eigenvalues    EBANDS =     -1632.84557193
  atomic energy  EATOM  =     18320.98302006
  ---------------------------------------------------
  free energy    TOTEN  =       -67.48414144 eV

  energy without entropy =      -67.48456398  energy(sigma->0) =      -67.48428228


--------------------------------------------------------------------------------------------------------




----------------------------------------- Iteration    1(   8)  ---------------------------------------


    POTLOK:  cpu time    0.06: real time    0.06
    SETDIJ:  cpu time    2.00: real time    1.99
 
    SUBROT:  cpu time    0.71: real time    0.71
    SUBROT:  cpu time    0.35: real time    0.35
    SUBROT:  cpu time    0.36: real time    0.36
    SUBROT:  cpu time    0.36: real time    0.36
    --------------------------------------------
    SUBRT+:  cpu time    1.78: real time    1.79

 Broyden mixing:
  rms(total) = 0.83051E-02    rms(broyden)= 0.83026E-02
  rms(prec ) = 0.13943E-01
  weight for this iteration     100.00

 eigenvalues of (default mixing * dielectric matrix)
  average eigenvalue GAMMA=   1.6784
  2.4557  0.9472  1.6323
 
    TRIAL :  cpu time  259.90: real time  259.68
    CORREC:  cpu time    0.00: real time    0.00
    CHARGE:  cpu time    0.13: real time    0.13
    --------------------------------------------
      LOOP:  cpu time  262.09: real time  261.87

 eigenvalue-minimisations  :     0
 total energy-change (2. order) :-0.1602031E+01  (-0.7700028E+00)
 number of electron     112.0001443 magnetization 
 augmentation part       37.7249004 magnetization 

 Free energy of the ion-electron system (eV)
  ---------------------------------------------------
  alpha Z        PSCENC =       339.31929130
  Ewald energy   TEWEN  =     -9063.82881239
  -1/2 Hartree   DENC   =     -8117.68979733
  -exchange  EXHF       =       339.51930115
  -V(xc)+E(xc)   XCENC  =       371.38136406
  PAW double counting   =     15915.86399772   -16397.21105756
  entropy T*S    EENTRO =         0.00071914
  eigenvalues    EBANDS =     -1777.42390205
  atomic energy  EATOM  =     18320.98302006
  ---------------------------------------------------
  free energy    TOTEN  =       -69.08617250 eV

  energy without entropy =      -69.08689164  energy(sigma->0) =      -69.08641222


--------------------------------------------------------------------------------------------------------




----------------------------------------- Iteration    1(   9)  ---------------------------------------


    POTLOK:  cpu time    0.06: real time    0.06
    SETDIJ:  cpu time    1.98: real time    1.98
 
    SUBROT:  cpu time    1.68: real time    1.68
    SUBROT:  cpu time    0.74: real time    0.74
    SUBROT:  cpu time    0.82: real time    0.82
    SUBROT:  cpu time    0.75: real time    0.75
    --------------------------------------------
    SUBRT+:  cpu time    4.00: real time    4.01

 Broyden mixing:
  rms(total) = 0.52435E-03    rms(broyden)= 0.52376E-03
  rms(prec ) = 0.81631E-03
  weight for this iteration     100.00

 eigenvalues of (default mixing * dielectric matrix)
  average eigenvalue GAMMA=   1.6605
  2.5162  0.9965  1.4686
 
    TRIAL :  cpu time  261.06: real time  260.91
    CORREC:  cpu time    0.00: real time    0.00
    CHARGE:  cpu time    0.07: real time    0.07
    --------------------------------------------
      LOOP:  cpu time  263.18: real time  263.03

 eigenvalue-minimisations  :     0
 total energy-change (2. order) :-0.3098157E+00  (-0.3838604E+00)
 number of electron     112.0001449 magnetization 
 augmentation part       37.9047722 magnetization 

 Free energy of the ion-electron system (eV)
  ---------------------------------------------------
  alpha Z        PSCENC =       339.31929130
  Ewald energy   TEWEN  =     -9063.82881239
  -1/2 Hartree   DENC   =     -8125.44645311
  -exchange  EXHF       =       339.59423947
  -V(xc)+E(xc)   XCENC  =       371.44827932
  PAW double counting   =     15912.49015591   -16393.78590943
  entropy T*S    EENTRO =         0.00085041
  eigenvalues    EBANDS =     -1770.17051850
  atomic energy  EATOM  =     18320.98302006
  ---------------------------------------------------
  free energy    TOTEN  =       -69.39598823 eV

  energy without entropy =      -69.39683864  energy(sigma->0) =      -69.39627170


--------------------------------------------------------------------------------------------------------




----------------------------------------- Iteration    1(  10)  ---------------------------------------


    POTLOK:  cpu time    0.05: real time    0.05
    SETDIJ:  cpu time    1.98: real time    1.98
 
    SUBROT:  cpu time    1.68: real time    1.68
    SUBROT:  cpu time    0.82: real time    0.82
    SUBROT:  cpu time    0.81: real time    0.81
    SUBROT:  cpu time    0.77: real time    0.77
    --------------------------------------------
    SUBRT+:  cpu time    4.08: real time    4.08

 Broyden mixing:
  rms(total) = 0.22922E-02    rms(broyden)= 0.22917E-02
  rms(prec ) = 0.38521E-02
  weight for this iteration     100.00

 eigenvalues of (default mixing * dielectric matrix)
  average eigenvalue GAMMA=   1.6784
  2.4767  0.9874  1.5710
 
    TRIAL :  cpu time  261.18: real time  260.95
    CORREC:  cpu time    0.00: real time    0.00
    CHARGE:  cpu time    0.09: real time    0.09
    --------------------------------------------
      LOOP:  cpu time  263.31: real time  263.08

 eigenvalue-minimisations  :     0
 total energy-change (2. order) :-0.1031326E+00  (-0.1518311E+00)
 number of electron     112.0001446 magnetization 
 augmentation part       37.8177478 magnetization 

 Free energy of the ion-electron system (eV)
  ---------------------------------------------------
  alpha Z        PSCENC =       339.31929130
  Ewald energy   TEWEN  =     -9063.82881239
  -1/2 Hartree   DENC   =     -8172.44505851
  -exchange  EXHF       =       340.39026873
  -V(xc)+E(xc)   XCENC  =       372.53656766
  PAW double counting   =     15993.62579361   -16481.61312513
  entropy T*S    EENTRO =         0.00071072
  eigenvalues    EBANDS =     -1718.46791656
  atomic energy  EATOM  =     18320.98302006
  ---------------------------------------------------
  free energy    TOTEN  =       -69.49912081 eV

  energy without entropy =      -69.49983153  energy(sigma->0) =      -69.49935772


--------------------------------------------------------------------------------------------------------




----------------------------------------- Iteration    1(  11)  ---------------------------------------


    POTLOK:  cpu time    0.05: real time    0.05
    SETDIJ:  cpu time    1.97: real time    1.97
 
    SUBROT:  cpu time    0.76: real time    0.76
    SUBROT:  cpu time    0.37: real time    0.37
    SUBROT:  cpu time    0.38: real time    0.38
    SUBROT:  cpu time    0.37: real time    0.37
    --------------------------------------------
    SUBRT+:  cpu time    1.88: real time    1.90

 Broyden mixing:
  rms(total) = 0.78125E-03    rms(broyden)= 0.78100E-03
  rms(prec ) = 0.15619E-02
  weight for this iteration     100.00

 eigenvalues of (default mixing * dielectric matrix)
  average eigenvalue GAMMA=   1.6783
  2.4932  0.9841  1.5576
 
    TRIAL :  cpu time  258.26: real time  258.06
    CORREC:  cpu time    0.00: real time    0.00
    CHARGE:  cpu time    0.09: real time    0.10
    --------------------------------------------
      LOOP:  cpu time  260.38: real time  260.18

 eigenvalue-minimisations  :     0
 total energy-change (2. order) :-0.6933878E-01  (-0.3681397E-01)
 number of electron     112.0001445 magnetization 
 augmentation part       37.7853071 magnetization 

 Free energy of the ion-electron system (eV)
  ---------------------------------------------------
  alpha Z        PSCENC =       339.31929130
  Ewald energy   TEWEN  =     -9063.82881239
  -1/2 Hartree   DENC   =     -8151.10179349
  -exchange  EXHF       =       340.06187448
  -V(xc)+E(xc)   XCENC  =       372.06387600
  PAW double counting   =     15941.70782266   -16426.66408260
  entropy T*S    EENTRO =         0.00060090
  eigenvalues    EBANDS =     -1742.11036634
  atomic energy  EATOM  =     18320.98302006
  ---------------------------------------------------
  free energy    TOTEN  =       -69.56845960 eV

  energy without entropy =      -69.56906050  energy(sigma->0) =      -69.56865990


--------------------------------------------------------------------------------------------------------




----------------------------------------- Iteration    1(  12)  ---------------------------------------


    POTLOK:  cpu time    0.06: real time    0.06
    SETDIJ:  cpu time    1.98: real time    1.98
 
    SUBROT:  cpu time    0.80: real time    0.80
    SUBROT:  cpu time    0.37: real time    0.37
    SUBROT:  cpu time    0.36: real time    0.37
    SUBROT:  cpu time    0.37: real time    0.37
    --------------------------------------------
    SUBRT+:  cpu time    1.91: real time    1.93

 Broyden mixing:
  rms(total) = 0.20758E-03    rms(broyden)= 0.20749E-03
  rms(prec ) = 0.45134E-03
  weight for this iteration     100.00

 eigenvalues of (default mixing * dielectric matrix)
  average eigenvalue GAMMA=   1.6211
  2.5082  0.9973  1.3578
 
    TRIAL :  cpu time  257.96: real time  257.76
    CORREC:  cpu time    0.00: real time    0.00
    CHARGE:  cpu time    0.08: real time    0.08
    --------------------------------------------
      LOOP:  cpu time  260.09: real time  259.89

 eigenvalue-minimisations  :     0
 total energy-change (2. order) :-0.1236968E-01  (-0.2272519E-01)
 number of electron     112.0001446 magnetization 
 augmentation part       37.8254250 magnetization 

 Free energy of the ion-electron system (eV)
  ---------------------------------------------------
  alpha Z        PSCENC =       339.31929130
  Ewald energy   TEWEN  =     -9063.82881239
  -1/2 Hartree   DENC   =     -8142.81975764
  -exchange  EXHF       =       339.94741041
  -V(xc)+E(xc)   XCENC  =       371.89116910
  PAW double counting   =     15920.09579074   -16403.98027353
  entropy T*S    EENTRO =         0.00054977
  eigenvalues    EBANDS =     -1751.18926823
  atomic energy  EATOM  =     18320.98302006
  ---------------------------------------------------
  free energy    TOTEN  =       -69.58082928 eV

  energy without entropy =      -69.58137904  energy(sigma->0) =      -69.58101253


--------------------------------------------------------------------------------------------------------




----------------------------------------- Iteration    1(  13)  ---------------------------------------


    POTLOK:  cpu time    0.05: real time    0.05
    SETDIJ:  cpu time    1.98: real time    1.98
 
    SUBROT:  cpu time    0.77: real time    0.77
    SUBROT:  cpu time    0.39: real time    0.39
    SUBROT:  cpu time    0.37: real time    0.37
    SUBROT:  cpu time    0.37: real time    0.37
    --------------------------------------------
    SUBRT+:  cpu time    1.90: real time    1.90

 Broyden mixing:
  rms(total) = 0.55622E-03    rms(broyden)= 0.55611E-03
  rms(prec ) = 0.94199E-03
  weight for this iteration     100.00

 eigenvalues of (default mixing * dielectric matrix)
  average eigenvalue GAMMA=   1.6908
  2.4809  0.9952  1.5965
 
    TRIAL :  cpu time  258.51: real time  258.28
    CORREC:  cpu time    0.00: real time    0.00
    CHARGE:  cpu time    0.09: real time    0.10
    --------------------------------------------
      LOOP:  cpu time  260.64: real time  260.41

 eigenvalue-minimisations  :     0
 total energy-change (2. order) :-0.9600921E-02  (-0.5112250E-02)
 number of electron     112.0001446 magnetization 
 augmentation part       37.8292559 magnetization 

 Free energy of the ion-electron system (eV)
  ---------------------------------------------------
  alpha Z        PSCENC =       339.31929130
  Ewald energy   TEWEN  =     -9063.82881239
  -1/2 Hartree   DENC   =     -8152.66904529
  -exchange  EXHF       =       340.11919943
  -V(xc)+E(xc)   XCENC  =       372.12411673
  PAW double counting   =     15936.22367897   -16421.59278918
  entropy T*S    EENTRO =         0.00053812
  eigenvalues    EBANDS =     -1740.26963959
  atomic energy  EATOM  =     18320.98302006
  ---------------------------------------------------
  free energy    TOTEN  =       -69.59043020 eV

  energy without entropy =      -69.59096831  energy(sigma->0) =      -69.59060957


--------------------------------------------------------------------------------------------------------




----------------------------------------- Iteration    1(  14)  ---------------------------------------


    POTLOK:  cpu time    0.05: real time    0.05
    SETDIJ:  cpu time    2.00: real time    1.99
 
    SUBROT:  cpu time    0.77: real time    0.77
    SUBROT:  cpu time    0.38: real time    0.38
    SUBROT:  cpu time    0.38: real time    0.38
    SUBROT:  cpu time    0.37: real time    0.37
    --------------------------------------------
    SUBRT+:  cpu time    1.90: real time    1.91

 Broyden mixing:
  rms(total) = 0.68378E-04    rms(broyden)= 0.68363E-04
  rms(prec ) = 0.13890E-03
  weight for this iteration     100.00

 eigenvalues of (default mixing * dielectric matrix)
  average eigenvalue GAMMA=   1.6388
  2.5197  0.9877  1.4091
 
    TRIAL :  cpu time  259.90: real time  259.68
    CORREC:  cpu time    0.00: real time    0.00
    CHARGE:  cpu time    0.10: real time    0.10
    --------------------------------------------
      LOOP:  cpu time  262.05: real time  261.83

 eigenvalue-minimisations  :     0
 total energy-change (2. order) :-0.2453256E-02  (-0.3758962E-02)
 number of electron     112.0001446 magnetization 
 augmentation part       37.8118155 magnetization 

 Free energy of the ion-electron system (eV)
  ---------------------------------------------------
  alpha Z        PSCENC =       339.31929130
  Ewald energy   TEWEN  =     -9063.82881239
  -1/2 Hartree   DENC   =     -8153.18959643
  -exchange  EXHF       =       340.11721831
  -V(xc)+E(xc)   XCENC  =       372.13323435
  PAW double counting   =     15934.16482829   -16419.69346437
  entropy T*S    EENTRO =         0.00055679
  eigenvalues    EBANDS =     -1739.59914069
  atomic energy  EATOM  =     18320.98302006
  ---------------------------------------------------
  free energy    TOTEN  =       -69.59288345 eV

  energy without entropy =      -69.59344024  energy(sigma->0) =      -69.59306905


--------------------------------------------------------------------------------------------------------




----------------------------------------- Iteration    1(  15)  ---------------------------------------


    POTLOK:  cpu time    0.06: real time    0.07
    SETDIJ:  cpu time    1.98: real time    1.98
 
    SUBROT:  cpu time    1.55: real time    1.55
    SUBROT:  cpu time    0.79: real time    0.79
    SUBROT:  cpu time    0.81: real time    0.81
    SUBROT:  cpu time    0.90: real time    0.90
    --------------------------------------------
    SUBRT+:  cpu time    4.06: real time    4.07

 Broyden mixing:
  rms(total) = 0.19480E-03    rms(broyden)= 0.19474E-03
  rms(prec ) = 0.33116E-03
  weight for this iteration     100.00

 eigenvalues of (default mixing * dielectric matrix)
  average eigenvalue GAMMA=   1.6745
  2.4736  0.9878  1.5622
 
    TRIAL :  cpu time  262.24: real time  262.02
    CORREC:  cpu time    0.00: real time    0.00
    CHARGE:  cpu time    0.09: real time    0.09
    --------------------------------------------
      LOOP:  cpu time  264.38: real time  264.17

 eigenvalue-minimisations  :     0
 total energy-change (2. order) :-0.1498670E-02  (-0.1033531E-02)
 number of electron     112.0001446 magnetization 
 augmentation part       37.8161262 magnetization 

 Free energy of the ion-electron system (eV)
  ---------------------------------------------------
  alpha Z        PSCENC =       339.31929130
  Ewald energy   TEWEN  =     -9063.82881239
  -1/2 Hartree   DENC   =     -8148.50849985
  -exchange  EXHF       =       340.02865956
  -V(xc)+E(xc)   XCENC  =       372.02266226
  PAW double counting   =     15922.19089469   -16407.11143807
  entropy T*S    EENTRO =         0.00056946
  eigenvalues    EBANDS =     -1744.69071647
  atomic energy  EATOM  =     18320.98302006
  ---------------------------------------------------
  free energy    TOTEN  =       -69.59438212 eV

  energy without entropy =      -69.59495159  energy(sigma->0) =      -69.59457194


--------------------------------------------------------------------------------------------------------




----------------------------------------- Iteration    1(  16)  ---------------------------------------


    POTLOK:  cpu time    0.05: real time    0.05
    SETDIJ:  cpu time    1.98: real time    1.98
 
    SUBROT:  cpu time    1.65: real time    1.65
    SUBROT:  cpu time    0.76: real time    0.76
    SUBROT:  cpu time    0.78: real time    0.78
    SUBROT:  cpu time    0.81: real time    0.81
    --------------------------------------------
    SUBRT+:  cpu time    4.01: real time    4.02

 Broyden mixing:
  rms(total) = 0.83459E-04    rms(broyden)= 0.83441E-04
  rms(prec ) = 0.13942E-03
  weight for this iteration     100.00

 eigenvalues of (default mixing * dielectric matrix)
  average eigenvalue GAMMA=   1.6918
  2.4853  0.9894  1.6009
 
    TRIAL :  cpu time  260.52: real time  260.30
    CORREC:  cpu time    0.00: real time    0.00
    CHARGE:  cpu time    0.10: real time    0.10
    --------------------------------------------
      LOOP:  cpu time  262.65: real time  262.43

 eigenvalue-minimisations  :     0
 total energy-change (2. order) :-0.5682652E-03  (-0.4079771E-03)
 number of electron     112.0001446 magnetization 
 augmentation part       37.8209131 magnetization 

 Free energy of the ion-electron system (eV)
  ---------------------------------------------------
  alpha Z        PSCENC =       339.31929130
  Ewald energy   TEWEN  =     -9063.82881239
  -1/2 Hartree   DENC   =     -8149.62489681
  -exchange  EXHF       =       340.04719444
  -V(xc)+E(xc)   XCENC  =       372.04976015
  PAW double counting   =     15923.05130970   -16408.15929414
  entropy T*S    EENTRO =         0.00056964
  eigenvalues    EBANDS =     -1743.43309216
  atomic energy  EATOM  =     18320.98302006
  ---------------------------------------------------
  free energy    TOTEN  =       -69.59495039 eV

[...]
     22      -2.2891      2.00000
     23      -1.9522      2.00000
     24      -1.6155      2.00000
     25      -1.2168      2.00000
     26      -1.0065      2.00000
     27      -0.9760      2.00000
     28      -0.7107      2.00000
     29      -0.5526      2.00000
     30      -0.3906      2.00000
     31      -0.2869      2.00000
     32      -0.2025      2.00000
     33      -0.1819      2.00000
     34      -0.1399      2.00000
     35      -0.0212      2.00000
     36       0.0178      2.00000
     37       1.2951      2.00000
     38       1.3067      2.00000
     39       1.3680      2.00000
     40       1.4096      2.00000
     41       1.4523      2.00000
     42       1.4665      2.00000
     43       1.5042      2.00000
     44       1.5482      2.00000
     45       1.7649      2.00000
     46       1.8943      2.00000
     47       1.9829      2.00000
     48       2.1530      2.00000
     49       2.3710      2.00000
     50       2.5759      2.00000
     51       2.7037      2.00000
     52       2.9082      2.00000
     53       3.0147      2.00000
     54       3.2200      2.00000
     55       3.4015      2.00000
     56       3.6582      2.00000
     57       6.3767     -0.00000
     58       6.5120     -0.00000
     59       7.7185      0.00000
     60       7.9001      0.00000
     61       8.2900      0.00000
     62       8.5720      0.00000
     63       9.3300      0.00000
     64       9.8429      0.00000
     65      10.0203      0.00000
     66      10.3512      0.00000
     67      10.5855      0.00000
     68      10.7877      0.00000
     69      10.9836      0.00000
     70      11.2555      0.00000
     71      11.3019      0.00000
     72      11.7027      0.00000
     73      12.2543      0.00000
     74      12.4608      0.00000
     75      13.0994      0.00000
     76      13.4825      0.00000
     77      13.8207      0.00000
     78      14.6922      0.00000
     79      15.0020      0.00000
     80      15.7180      0.00000

 k-point  40 :       0.2500   -0.2500    0.4000
  band No.  band energies     occupation 
      1     -68.6454      2.00000
      2     -68.6420      2.00000
      3     -68.6419      2.00000
      4     -68.6334      2.00000
      5     -68.6129      2.00000
      6     -68.6089      2.00000
      7     -68.5959      2.00000
      8     -68.5918      2.00000
      9     -68.5852      2.00000
     10     -68.5776      2.00000
     11     -68.5701      2.00000
     12     -68.5606      2.00000
     13     -12.2187      2.00000
     14     -11.8172      2.00000
     15     -10.8214      2.00000
     16     -10.6703      2.00000
     17     -10.3488      2.00000
     18     -10.2746      2.00000
     19      -5.4469      2.00000
     20      -5.1162      2.00000
     21      -2.4293      2.00000
     22      -2.1539      2.00000
     23      -2.0157      2.00000
     24      -1.5240      2.00000
     25      -1.3566      2.00000
     26      -1.1652      2.00000
     27      -0.9353      2.00000
     28      -0.8132      2.00000
     29      -0.5848      2.00000
     30      -0.5369      2.00000
     31      -0.2797      2.00000
     32      -0.2391      2.00000
     33      -0.1391      2.00000
     34      -0.0922      2.00000
     35      -0.0253      2.00000
     36       0.0324      2.00000
     37       1.3125      2.00000
     38       1.3452      2.00000
     39       1.3622      2.00000
     40       1.3981      2.00000
     41       1.4495      2.00000
     42       1.4802      2.00000
     43       1.4967      2.00000
     44       1.5630      2.00000
     45       1.8010      2.00000
     46       1.8461      2.00000
     47       1.9596      2.00000
     48       2.1087      2.00000
     49       2.2962      2.00000
     50       2.5318      2.00000
     51       2.6402      2.00000
     52       2.7681      2.00000
     53       2.9308      2.00000
     54       3.1624      2.00000
     55       3.3036      2.00000
     56       3.5753      2.00000
     57       6.5570     -0.00000
     58       6.7141     -0.00000
     59       7.9657      0.00000
     60       8.0009      0.00000
     61       8.7267      0.00000
     62       9.0924      0.00000
     63       9.4573      0.00000
     64       9.8256      0.00000
     65      10.2975      0.00000
     66      10.3702      0.00000
     67      10.7804      0.00000
     68      10.8434      0.00000
     69      11.1247      0.00000
     70      11.2710      0.00000
     71      11.3726      0.00000
     72      11.6169      0.00000
     73      12.0482      0.00000
     74      12.2909      0.00000
     75      12.6545      0.00000
     76      13.1247      0.00000
     77      13.2788      0.00000
     78      14.2387      0.00000
     79      15.6326      0.00000
     80      15.8354      0.00000

 k-point  41 :       0.5000   -0.2500    0.4000
  band No.  band energies     occupation 
      1     -68.6453      2.00000
      2     -68.6419      2.00000
      3     -68.6417      2.00000
      4     -68.6333      2.00000
      5     -68.6128      2.00000
      6     -68.6089      2.00000
      7     -68.5957      2.00000
      8     -68.5916      2.00000
      9     -68.5852      2.00000
     10     -68.5776      2.00000
     11     -68.5701      2.00000
     12     -68.5605      2.00000
     13     -12.0783      2.00000
     14     -11.7750      2.00000
     15     -10.8464      2.00000
     16     -10.7561      2.00000
     17     -10.5320      2.00000
     18     -10.3145      2.00000
     19      -5.4203      2.00000
     20      -4.9411      2.00000
     21      -2.4004      2.00000
     22      -2.1297      2.00000
     23      -1.8632      2.00000
     24      -1.7214      2.00000
     25      -1.4459      2.00000
     26      -1.1190      2.00000
     27      -0.8840      2.00000
     28      -0.6480      2.00000
     29      -0.6022      2.00000
     30      -0.4497      2.00000
     31      -0.2649      2.00000
     32      -0.1822      2.00000
     33      -0.1217      2.00000
     34      -0.0599      2.00000
     35      -0.0194      2.00000
     36       0.0211      2.00000
     37       1.2617      2.00000
     38       1.3152      2.00000
     39       1.4101      2.00000
     40       1.4377      2.00000
     41       1.4830      2.00000
     42       1.4904      2.00000
     43       1.5124      2.00000
     44       1.5723      2.00000
     45       1.7599      2.00000
     46       1.8408      2.00000
     47       2.1157      2.00000
     48       2.1843      2.00000
     49       2.3690      2.00000
     50       2.4625      2.00000
     51       2.4925      2.00000
     52       2.6958      2.00000
     53       2.8227      2.00000
     54       3.0875      2.00000
     55       3.2910      2.00000
     56       3.5267      2.00000
     57       6.4875     -0.00000
     58       6.5844     -0.00000
     59       7.4520      0.00000
     60       7.7208      0.00000
     61       8.5869      0.00000
     62       8.7426      0.00000
     63       9.2972      0.00000
     64       9.5333      0.00000
     65       9.9507      0.00000
     66      10.1890      0.00000
     67      10.6821      0.00000
     68      11.1152      0.00000
     69      11.2470      0.00000
     70      11.5681      0.00000
     71      11.7030      0.00000
     72      11.8939      0.00000
     73      12.3020      0.00000
     74      12.6663      0.00000
     75      13.0123      0.00000
     76      13.2286      0.00000
     77      13.6734      0.00000
     78      14.0738      0.00000
     79      14.3953      0.00000
     80      16.5153      0.00000

 k-point  42 :      -0.2500   -0.2500    0.4000
  band No.  band energies     occupation 
      1     -68.6455      2.00000
      2     -68.6420      2.00000
      3     -68.6418      2.00000
      4     -68.6332      2.00000
      5     -68.6128      2.00000
      6     -68.6090      2.00000
      7     -68.5957      2.00000
      8     -68.5916      2.00000
      9     -68.5852      2.00000
     10     -68.5776      2.00000
     11     -68.5702      2.00000
     12     -68.5607      2.00000
     13     -12.1778      2.00000
     14     -11.7047      2.00000
     15     -10.7168      2.00000
     16     -10.6926      2.00000
     17     -10.5844      2.00000
     18     -10.3890      2.00000
     19      -5.4479      2.00000
     20      -5.0733      2.00000
     21      -2.5079      2.00000
     22      -2.3807      2.00000
     23      -1.9624      2.00000
     24      -1.3679      2.00000
     25      -1.3298      2.00000
     26      -1.0521      2.00000
     27      -0.8311      2.00000
     28      -0.7655      2.00000
     29      -0.4235      2.00000
     30      -0.3415      2.00000
     31      -0.2738      2.00000
     32      -0.2112      2.00000
     33      -0.1436      2.00000
     34      -0.1368      2.00000
     35      -0.0138      2.00000
     36       0.0254      2.00000
     37       1.1714      2.00000
     38       1.3707      2.00000
     39       1.3966      2.00000
     40       1.4507      2.00000
     41       1.4551      2.00000
     42       1.4962      2.00000
     43       1.5163      2.00000
     44       1.5507      2.00000
     45       1.7439      2.00000
     46       1.8210      2.00000
     47       1.9774      2.00000
     48       2.2277      2.00000
     49       2.3960      2.00000
     50       2.6107      2.00000
     51       2.6571      2.00000
     52       2.9153      2.00000
     53       3.0682      2.00000
     54       3.1157      2.00000
     55       3.2887      2.00000
     56       3.5827      2.00000
     57       6.2865     -0.00000
     58       6.3747     -0.00000
     59       7.3546      0.00000
     60       7.5252      0.00000
     61       8.3031      0.00000
     62       8.3305      0.00000
     63       9.1079      0.00000
     64       9.3608      0.00000
     65       9.7182      0.00000
     66       9.9456      0.00000
     67      10.5233      0.00000
     68      10.9888      0.00000
     69      11.4275      0.00000
     70      11.5669      0.00000
     71      12.0108      0.00000
     72      12.2810      0.00000
     73      12.4273      0.00000
     74      12.4798      0.00000
     75      13.0389      0.00000
     76      13.1556      0.00000
     77      14.1450      0.00000
     78      14.4385      0.00000
     79      15.1658      0.00000
     80      15.8656      0.00000


--------------------------------------------------------------------------------------------------------


 soft charge-density along one line, spin component           1
         0         1         2         3         4         5         6         7         8         9
 total charge-density along one line
 
 pseudopotential strength for first ion, spin component:           1
-65.424   0.002   0.006   7.363  -0.000  -0.003   0.001   0.008
  0.002 -65.393  -0.004  -0.000   7.353   0.001  -0.001  -0.024
  0.006  -0.004 -65.383  -0.003   0.001   7.349  -0.037  -0.001
  7.363  -0.000  -0.003   6.110   0.000   0.001   0.002  -0.004
 -0.000   7.353   0.001   0.000   6.113  -0.000   0.000   0.007
 -0.003   0.001   7.349   0.001  -0.000   6.114   0.009   0.000
  0.001  -0.001  -0.037   0.002   0.000   0.009  -2.979  -0.003
  0.008  -0.024  -0.001  -0.004   0.007   0.000  -0.003  -2.985
  0.022   0.043   0.009  -0.005  -0.008  -0.003  -0.003   0.008
 -0.001  -0.017   0.008   0.000   0.005  -0.004   0.004   0.007
  0.026   0.000  -0.034  -0.007  -0.000   0.007  -0.000   0.007
  0.001  -0.001  -0.036   0.002   0.000   0.008  -3.626  -0.003
  0.007  -0.024  -0.001  -0.004   0.007   0.000  -0.003  -3.631
  0.022   0.042   0.009  -0.005  -0.008  -0.003  -0.003   0.008
 -0.001  -0.017   0.007   0.000   0.004  -0.004   0.004   0.007
  0.025   0.000  -0.034  -0.007  -0.000   0.006  -0.000   0.007
  0.007  -0.005   0.004  -0.001   0.001  -0.001  -0.002   0.000
  0.015  -0.010   0.009  -0.002   0.001  -0.002  -0.003   0.001
 total augmentation occupancy for first ion, spin component:           1
  2.000  -0.000   0.000  -0.003  -0.000   0.000   0.007  -0.005   0.001  -0.001  -0.005  -0.007   0.005  -0.001   0.001   0.004
 -0.000   2.000  -0.000  -0.000  -0.003   0.000  -0.001   0.005   0.004   0.001   0.000   0.001  -0.005  -0.005  -0.001  -0.000
  0.000  -0.000   2.000   0.000   0.000  -0.003  -0.000  -0.000  -0.001  -0.005  -0.004   0.001   0.000   0.001   0.005   0.005
 -0.003  -0.000   0.000   0.095   0.006  -0.005  -0.334   0.233  -0.073   0.011   0.017   0.281  -0.197   0.057  -0.007  -0.011
 -0.000  -0.003   0.000   0.006   0.103   0.001   0.020  -0.045  -0.446   0.016   0.011  -0.013   0.035   0.378  -0.012  -0.009
  0.000   0.000  -0.003  -0.005   0.001   0.099   0.098  -0.002  -0.013   0.236   0.354  -0.077   0.001   0.010  -0.202  -0.297
  0.007  -0.001  -0.000  -0.334   0.020   0.098   4.008  -0.793   0.098   0.216   0.147  -1.736   0.744  -0.090  -0.182  -0.141
 -0.005   0.005  -0.000   0.233  -0.045  -0.002  -0.793   3.506   0.283   0.157   0.297   0.743  -1.266  -0.207  -0.113  -0.206
  0.001   0.004  -0.001  -0.073  -0.446  -0.013   0.098   0.283   4.695  -0.044  -0.116  -0.090  -0.207  -2.403   0.039   0.086
 -0.001   0.001  -0.005   0.011   0.016   0.236   0.216   0.157  -0.044   3.638   0.799  -0.182  -0.113   0.039  -1.356  -0.760
 -0.005   0.000  -0.004   0.017   0.011   0.354   0.147   0.297  -0.116   0.799   3.996  -0.141  -0.206   0.086  -0.760  -1.742
 -0.007   0.001   0.001   0.281  -0.013  -0.077  -1.736   0.743  -0.090  -0.182  -0.141   1.442  -0.696   0.083   0.153   0.136
  0.005  -0.005   0.000  -0.197   0.035   0.001   0.744  -1.266  -0.207  -0.113  -0.206  -0.696   1.003   0.145   0.078   0.133
 -0.001  -0.005   0.001   0.057   0.378   0.010  -0.090  -0.207  -2.403   0.039   0.086   0.083   0.145   2.087  -0.033  -0.062
  0.001  -0.001   0.005  -0.007  -0.012  -0.202  -0.182  -0.113   0.039  -1.356  -0.760   0.153   0.078  -0.033   1.061   0.722
  0.004  -0.000   0.005  -0.011  -0.009  -0.297  -0.141  -0.206   0.086  -0.760  -1.742   0.136   0.133  -0.062   0.722   1.461
 -0.025   0.016  -0.013  -0.020   0.011  -0.006   0.079  -0.095  -0.025  -0.003   0.026  -0.063   0.084   0.036   0.003   0.005
  0.012  -0.008   0.006   0.001  -0.000  -0.000  -0.008   0.003  -0.004   0.004  -0.019   0.004  -0.005  -0.002  -0.001   0.003


------------------------ aborting loop because EDIFF is reached ----------------------------------------


    FORLOC:  cpu time    0.01: real time    0.01
    FORHF :  cpu time  506.40: real time  505.95
    FORNL :  cpu time    0.40: real time    0.40
    FORCOR:  cpu time    2.05: real time    2.05

 VOLUME and BASIS-vectors are now :
 -----------------------------------------------------------------------------
  energy-cutoff  :      400.00
  volume of cell :      221.90
      direct lattice vectors                 reciprocal lattice vectors
     3.224796000 -5.643830000  0.031572000     0.154525165 -0.088592321  0.053460880
     3.224796000  5.643830000  0.031572000     0.154525165  0.088592321  0.053460880
    -2.101946000  0.000000000  6.075537000    -0.001606004  0.000000000  0.164038877

  length of vectors
     6.500240234  6.500240234  6.428866683     0.185969598  0.185969598  0.164046738


 FORCES acting on ions:
    Electron-Ion                     Ewald-Force                    Non-Local-Force
 -----------------------------------------------------------------------------------------------
   -.149E+02 -.982E+02 0.115E+02   0.137E+02 0.958E+02 -.990E+01   0.103E+01 0.212E+01 -.144E+01
   -.134E+02 0.963E+02 0.120E+02   0.121E+02 -.939E+02 -.104E+02   0.102E+01 -.210E+01 -.142E+01
   0.256E+02 -.167E+02 0.453E+01   -.223E+02 0.165E+02 -.325E+01   -.285E+01 0.155E+00 -.111E+01
   0.266E+02 0.192E+02 0.337E+01   -.233E+02 -.189E+02 -.212E+01   -.289E+01 -.256E+00 -.107E+01
   -.114E+02 -.314E+02 -.110E+02   0.107E+02 0.300E+02 0.991E+01   0.716E+00 0.131E+01 0.111E+01
   -.110E+02 0.316E+02 -.112E+02   0.103E+02 -.302E+02 0.100E+02   0.682E+00 -.134E+01 0.113E+01
   -.135E+03 -.972E+01 -.492E+02   0.132E+03 0.976E+01 0.483E+02   0.277E+01 -.416E-01 0.738E+00
   0.702E+02 -.126E+03 0.962E+02   -.685E+02 0.123E+03 -.941E+02   -.156E+01 0.229E+01 -.187E+01
   0.648E+02 -.134E+03 -.495E+02   -.633E+02 0.131E+03 0.485E+02   -.133E+01 0.228E+01 0.887E+00
   0.704E+02 0.126E+03 0.962E+02   -.686E+02 -.124E+03 -.941E+02   -.157E+01 -.232E+01 -.188E+01
   -.135E+03 0.996E+01 -.492E+02   0.132E+03 -.100E+02 0.484E+02   0.278E+01 0.211E-01 0.737E+00
   0.666E+02 0.132E+03 -.497E+02   -.651E+02 -.130E+03 0.487E+02   -.136E+01 -.218E+01 0.870E+00
 -----------------------------------------------------------------------------------------------
   0.279E+01 0.741E-01 0.376E+01   -.426E-13 0.284E-13 -.568E-13   -.255E+01 -.772E-01 -.332E+01
 
 
 POSITION                                       TOTAL-FORCE (eV/Angst)
 -----------------------------------------------------------------------------------
      2.13385     -2.80652      0.74958        -0.000367     -0.000370      0.001478
      1.08288      2.80652      3.78735        -0.018329      0.002047     -0.006051
      5.40423     -0.97432      0.77721         0.002792     -0.000578      0.001060
      4.35326      0.97432      3.81498        -0.009361     -0.025128      0.009933
      1.02081     -0.97328      3.66185         0.020817     -0.038475     -0.012641
      2.07178      0.97328      0.62409        -0.000738     -0.005379     -0.001284
      2.15090      4.69667      3.05304        -0.007649     -0.004776     -0.001864
      1.11215     -0.89759      5.98620        -0.000431     -0.010396      0.003295
      2.13790     -2.75750      3.03881         0.019866      0.099136      0.007172
      2.16313      0.89759      2.94844        -0.003879     -0.008001      0.002004
      1.09993     -4.69667      6.09081         0.002008     -0.005956      0.001634
      1.09189      2.74882      6.07662        -0.004730     -0.002124     -0.004735
 -----------------------------------------------------------------------------------
    total drift:                               -0.059009     -0.001052     -0.054039


--------------------------------------------------------------------------------------------------------



  FREE ENERGIE OF THE ION-ELECTRON SYSTEM (eV)
  ---------------------------------------------------
  free  energy   TOTEN  =       -69.59529590 eV

  energy  without entropy=      -69.59585933  energy(sigma->0) =      -69.59548371
 


--------------------------------------------------------------------------------------------------------


    POTLOK:  cpu time    2.06: real time    2.06


--------------------------------------------------------------------------------------------------------


 writing wavefunctions
     LOOP+:  cpu time 5991.38: real time 5988.15
    4ORBIT:  cpu time    0.00: real time    0.00

 total amount of memory used by VASP on root node   155701. kBytes
========================================================================

   base      :      30000. kBytes
   nonl-proj :      74517. kBytes
   fftplans  :        702. kBytes
   grid      :       2400. kBytes
   one-center:        186. kBytes
   HF        :        194. kBytes
   nonlr-proj:       5126. kBytes
   wavefun   :      42576. kBytes
 
  
  
 General timing and accounting informations for this job:
 ========================================================
  
                  Total CPU time used (sec):     6028.165
                            User time (sec):     6024.686
                          System time (sec):        3.478
                         Elapsed time (sec):     6025.585
  
                   Maximum memory used (kb):      300132.
                   Average memory used (kb):           0.
  
                          Minor page faults:        79270
                          Major page faults:            0
                 Voluntary context switches:         3827
