<?xml version="1.0" encoding="ISO-8859-1"?>
<modeling>
 <generator>
  <i name="program" type="string">vasp </i>
  <i name="version" type="string">5.3.3  </i>
  <i name="subversion" type="string">18Dez12 (build Nov 13 2015 09:58:40) complex                          parallel </i>
  <i name="platform" type="string">LinuxIFC </i>
  <i name="date" type="string">2017 10 18 </i>
  <i name="time" type="string">13:21:42 </i>
 </generator>
 <incar>
  <i type="string" name="SYSTEM"> CGS</i>
  <i type="string" name="PREC">normal</i>
  <i type="string" name="ALGO"> D</i>
  <i type="logical" name="LDIAG"> T  </i>
  <i name="EDIFF">      0.00001000</i>
  <i name="ENCUT">    400.00000000</i>
  <i name="TIME">      0.40000000</i>
  <i type="int" name="ISMEAR">     1</i>
  <i name="SIGMA">      0.10000000</i>
  <i type="logical" name="LHFCALC"> T  </i>
  <i type="string" name="GGA"> PE</i>
  <i name="HFSCREEN">      0.20000000</i>
  <i name="AEXX">      0.25000000</i>
  <i type="string" name="PRECFOCK">fast</i>
 </incar>
 <kpoints>
  <generation param="Gamma">
   <v type="int" name="divisions">       4        4        5 </v>
   <v name="usershift">      0.00000000       0.00000000       0.00000000 </v>
   <v name="genvec1">      0.25000000       0.00000000       0.00000000 </v>
   <v name="genvec2">      0.00000000       0.25000000       0.00000000 </v>
   <v name="genvec3">      0.00000000       0.00000000       0.20000000 </v>
   <v name="shift">      0.00000000       0.00000000       0.00000000 </v>
  </generation>
  <varray name="kpointlist" >
   <v>       0.00000000       0.00000000       0.00000000 </v>
   <v>       0.25000000       0.00000000       0.00000000 </v>
   <v>       0.50000000       0.00000000       0.00000000 </v>
   <v>       0.00000000       0.25000000       0.00000000 </v>
   <v>       0.25000000       0.25000000       0.00000000 </v>
   <v>       0.50000000       0.25000000      -0.00000000 </v>
   <v>      -0.25000000       0.25000000       0.00000000 </v>
   <v>       0.00000000       0.50000000       0.00000000 </v>
   <v>       0.25000000       0.50000000      -0.00000000 </v>
   <v>       0.50000000       0.50000000       0.00000000 </v>
   <v>      -0.00000000      -0.00000000       0.20000000 </v>
   <v>       0.25000000       0.00000000       0.20000000 </v>
   <v>       0.50000000       0.00000000       0.20000000 </v>
   <v>      -0.25000000      -0.00000000       0.20000000 </v>
   <v>       0.00000000       0.25000000       0.20000000 </v>
   <v>       0.25000000       0.25000000       0.20000000 </v>
   <v>       0.50000000       0.25000000       0.20000000 </v>
   <v>      -0.25000000       0.25000000       0.20000000 </v>
   <v>       0.00000000       0.50000000       0.20000000 </v>
   <v>       0.25000000       0.50000000       0.20000000 </v>
   <v>       0.50000000       0.50000000       0.20000000 </v>
   <v>      -0.25000000       0.50000000       0.20000000 </v>
   <v>      -0.00000000      -0.25000000       0.20000000 </v>
   <v>       0.25000000      -0.25000000       0.20000000 </v>
   <v>       0.50000000      -0.25000000       0.20000000 </v>
   <v>      -0.25000000      -0.25000000       0.20000000 </v>
   <v>      -0.00000000      -0.00000000       0.40000000 </v>
   <v>       0.25000000       0.00000000       0.40000000 </v>
   <v>       0.50000000       0.00000000       0.40000000 </v>
   <v>      -0.25000000       0.00000000       0.40000000 </v>
   <v>       0.00000000       0.25000000       0.40000000 </v>
   <v>       0.25000000       0.25000000       0.40000000 </v>
   <v>       0.50000000       0.25000000       0.40000000 </v>
   <v>      -0.25000000       0.25000000       0.40000000 </v>
   <v>       0.00000000       0.50000000       0.40000000 </v>
   <v>       0.25000000       0.50000000       0.40000000 </v>
   <v>       0.50000000       0.50000000       0.40000000 </v>
   <v>      -0.25000000       0.50000000       0.40000000 </v>
   <v>       0.00000000      -0.25000000       0.40000000 </v>
   <v>       0.25000000      -0.25000000       0.40000000 </v>
   <v>       0.50000000      -0.25000000       0.40000000 </v>
   <v>      -0.25000000      -0.25000000       0.40000000 </v>
  </varray>
  <varray name="weights" >
   <v>       0.01250000 </v>
   <v>       0.02500000 </v>
   <v>       0.01250000 </v>
   <v>       0.02500000 </v>
   <v>       0.02500000 </v>
   <v>       0.02500000 </v>
   <v>       0.02500000 </v>
   <v>       0.01250000 </v>
   <v>       0.02500000 </v>
   <v>       0.01250000 </v>
   <v>       0.02500000 </v>
   <v>       0.02500000 </v>
   <v>       0.02500000 </v>
   <v>       0.02500000 </v>
   <v>       0.02500000 </v>
   <v>       0.02500000 </v>
   <v>       0.02500000 </v>
   <v>       0.02500000 </v>
   <v>       0.02500000 </v>
   <v>       0.02500000 </v>
   <v>       0.02500000 </v>
   <v>       0.02500000 </v>
   <v>       0.02500000 </v>
   <v>       0.02500000 </v>
   <v>       0.02500000 </v>
   <v>       0.02500000 </v>
   <v>       0.02500000 </v>
   <v>       0.02500000 </v>
   <v>       0.02500000 </v>
   <v>       0.02500000 </v>
   <v>       0.02500000 </v>
   <v>       0.02500000 </v>
   <v>       0.02500000 </v>
   <v>       0.02500000 </v>
   <v>       0.02500000 </v>
   <v>       0.02500000 </v>
   <v>       0.02500000 </v>
   <v>       0.02500000 </v>
   <v>       0.02500000 </v>
   <v>       0.02500000 </v>
   <v>       0.02500000 </v>
   <v>       0.02500000 </v>
  </varray>
 </kpoints>
 <parameters>
  <separator name="general" >
   <i type="string" name="SYSTEM">CGS</i>
   <i type="logical" name="LCOMPAT"> F  </i>
  </separator>
  <separator name="electronic" >
   <i type="string" name="PREC">normal</i>
   <i name="ENMAX">    400.00000000</i>
   <i name="ENAUG">    758.23300000</i>
   <i name="EDIFF">      0.00001000</i>
   <i type="int" name="IALGO">    53</i>
   <i type="int" name="IWAVPR">    10</i>
   <i type="int" name="NBANDS">    80</i>
   <i name="NELECT">    112.00000000</i>
   <i type="int" name="TURBO">     0</i>
   <i type="int" name="IRESTART">     0</i>
   <i type="int" name="NREBOOT">     0</i>
   <i type="int" name="NMIN">     0</i>
   <i name="EREF">      0.00000000</i>
   <separator name="electronic smearing" >
    <i type="int" name="ISMEAR">     1</i>
    <i name="SIGMA">      0.10000000</i>
    <i name="KSPACING">      0.50000000</i>
    <i type="logical" name="KGAMMA"> T  </i>
   </separator>
   <separator name="electronic projectors" >
    <i type="logical" name="LREAL"> F  </i>
    <v name="ROPT">      0.00000000      0.00000000      0.00000000</v>
    <i type="int" name="LMAXPAW">  -100</i>
    <i type="int" name="LMAXMIX">     2</i>
    <i type="logical" name="NLSPLINE"> F  </i>
   </separator>
   <separator name="electronic startup" >
    <i type="int" name="ISTART">     1</i>
    <i type="int" name="ICHARG">     0</i>
    <i type="int" name="INIWAV">     1</i>
   </separator>
   <separator name="electronic spin" >
    <i type="int" name="ISPIN">     1</i>
    <i type="logical" name="LNONCOLLINEAR"> F  </i>
    <v name="MAGMOM">      1.00000000      1.00000000      1.00000000      1.00000000      1.00000000      1.00000000      1.00000000      1.00000000      1.00000000      1.00000000      1.00000000      1.00000000</v>
    <i name="NUPDOWN">     -1.00000000</i>
    <i type="logical" name="LSORBIT"> F  </i>
    <v name="SAXIS">      0.00000000      0.00000000      1.00000000</v>
    <i type="logical" name="LSPIRAL"> F  </i>
    <v name="QSPIRAL">      0.00000000      0.00000000      0.00000000</v>
    <i type="logical" name="LZEROZ"> F  </i>
   </separator>
   <separator name="electronic exchange-correlation" >
    <i type="logical" name="LASPH"> F  </i>
    <i type="logical" name="LMETAGGA"> F  </i>
   </separator>
   <separator name="electronic convergence" >
    <i type="int" name="NELM">    60</i>
    <i type="int" name="NELMDL">     0</i>
    <i type="int" name="NELMIN">     2</i>
    <i name="ENINI">    400.00000000</i>
    <separator name="electronic convergence detail" >
     <i type="logical" name="LDIAG"> T  </i>
     <i type="logical" name="LSUBROT"> T  </i>
     <i name="WEIMIN">      0.00000000</i>
     <i name="EBREAK">      0.00000003</i>
     <i name="DEPER">      0.30000000</i>
     <i type="int" name="NRMM">     4</i>
     <i name="TIME">      0.40000000</i>
    </separator>
   </separator>
   <separator name="electronic mixer" >
    <i name="AMIX">      0.40000000</i>
    <i name="BMIX">      1.00000000</i>
    <i name="AMIN">      0.10000000</i>
    <i name="AMIX_MAG">      1.60000000</i>
    <i name="BMIX_MAG">      1.00000000</i>
    <separator name="electronic mixer details" >
     <i type="int" name="IMIX">     4</i>
     <i type="int" name="MAXMIX">   -45</i>
     <i name="WC">    100.00000000</i>
     <i type="int" name="INIMIX">     1</i>
     <i type="int" name="MIXPRE">     1</i>
     <i type="int" name="MREMOVE">     5</i>
    </separator>
   </separator>
   <separator name="electronic dipolcorrection" >
    <i type="logical" name="LDIPOL"> F  </i>
    <i type="logical" name="LMONO"> F  </i>
    <i type="int" name="IDIPOL">     0</i>
    <i name="EPSILON">      1.00000000</i>
    <v name="DIPOL">   -100.00000000   -100.00000000   -100.00000000</v>
    <i name="EFIELD">      0.00000000</i>
   </separator>
  </separator>
  <separator name="grids" >
   <i type="int" name="NGX">    32</i>
   <i type="int" name="NGY">    32</i>
   <i type="int" name="NGZ">    32</i>
   <i type="int" name="NGXF">    64</i>
   <i type="int" name="NGYF">    64</i>
   <i type="int" name="NGZF">    64</i>
   <i type="logical" name="ADDGRID"> F  </i>
  </separator>
  <separator name="ionic" >
   <i type="int" name="NSW">     0</i>
   <i type="int" name="IBRION">    -1</i>
   <i type="int" name="ISIF">     0</i>
   <i name="PSTRESS">      0.00000000</i>
   <i name="EDIFFG">      0.00010000</i>
   <i type="int" name="NFREE">     0</i>
   <i name="POTIM">      0.50000000</i>
   <i name="SMASS">     -3.00000000</i>
   <i name="SCALEE">      1.00000000</i>
  </separator>
  <separator name="ionic md" >
   <i name="TEBEG">      0.00010000</i>
   <i name="TEEND">      0.00010000</i>
   <i type="int" name="NBLOCK">     1</i>
   <i type="int" name="KBLOCK">     1</i>
   <i type="int" name="NPACO">   256</i>
   <i name="APACO">     16.00000000</i>
  </separator>
  <separator name="symmetry" >
   <i type="int" name="ISYM">     3</i>
   <i name="SYMPREC">      0.00001000</i>
  </separator>
  <separator name="dos" >
   <i type="logical" name="LORBIT"> F  </i>
   <v name="RWIGS">     -1.00000000     -1.00000000     -1.00000000</v>
   <i type="int" name="NEDOS">   301</i>
   <i name="EMIN">     10.00000000</i>
   <i name="EMAX">    -10.00000000</i>
   <i name="EFERMI">      0.00000000</i>
  </separator>
  <separator name="writing" >
   <i type="int" name="NWRITE">     2</i>
   <i type="logical" name="LWAVE"> T  </i>
   <i type="logical" name="LCHARG"> T  </i>
   <i type="logical" name="LPARD"> F  </i>
   <i type="logical" name="LVTOT"> F  </i>
   <i type="logical" name="LVHAR"> F  </i>
   <i type="logical" name="LELF"> F  </i>
   <i type="logical" name="LOPTICS"> F  </i>
   <v name="STM">      0.00000000      0.00000000      0.00000000      0.00000000      0.00000000      0.00000000      0.00000000</v>
  </separator>
  <separator name="performance" >
   <i type="int" name="NPAR">    16</i>
   <i type="int" name="NSIM">     4</i>
   <i type="int" name="NBLK">    -1</i>
   <i type="logical" name="LPLANE"> T  </i>
   <i type="logical" name="LSCALAPACK"> T  </i>
   <i type="logical" name="LSCAAWARE"> F  </i>
   <i type="logical" name="LSCALU"> F  </i>
   <i type="logical" name="LASYNC"> F  </i>
   <i type="logical" name="LORBITALREAL"> F  </i>
  </separator>
  <separator name="miscellaneous" >
   <i type="int" name="IDIOT">     3</i>
   <i type="logical" name="LMUSIC"> F  </i>
   <v name="POMASS">     63.54600000     72.61000000     32.06600000</v>
   <v name="DARWINR">      0.00000000      0.00000000      0.00000000</v>
   <v name="DARWINV">      1.00000000      1.00000000      1.00000000</v>
   <i type="logical" name="LCORR"> T  </i>
  </separator>
  <i type="logical" name="GGA_COMPAT"> T  </i>
  <i type="logical" name="LBERRY"> F  </i>
  <i type="int" name="ICORELEVEL">     0</i>
  <i type="logical" name="LDAU"> F  </i>
  <i type="int" name="I_CONSTRAINED_M">     0</i>
  <separator name="electronic exchange-correlation" >
   <i type="string" name="GGA">PE</i>
   <i type="int" name="VOSKOWN">     0</i>
   <i type="logical" name="LHFCALC"> T  </i>
   <i type="string" name="PRECFOCK">fast</i>
   <i type="logical" name="LSYMGRAD"> F  </i>
   <i type="logical" name="LHFONE"> F  </i>
   <i type="logical" name="LRHFCALC"> F  </i>
   <i type="logical" name="LTHOMAS"> F  </i>
   <i type="logical" name="LMODELHF"> F  </i>
   <i name="ENCUT4O">     -1.00000000</i>
   <i type="int" name="EXXOEP">     0</i>
   <i type="int" name="FOURORBIT">     0</i>
   <i name="AEXX">      0.25000000</i>
   <i name="HFALPHA">     -1.00000000</i>
   <i name="MCALPHA">      0.00000000</i>
   <i name="ALDAX">      0.75000000</i>
   <i name="AGGAX">      0.75000000</i>
   <i name="ALDAC">      1.00000000</i>
   <i name="AGGAC">      1.00000000</i>
   <i type="int" name="NKREDX">     1</i>
   <i type="int" name="NKREDY">     1</i>
   <i type="int" name="NKREDZ">     1</i>
   <i type="logical" name="SHIFTRED"> F  </i>
   <i type="logical" name="ODDONLY"> F  </i>
   <i type="logical" name="EVENONLY"> F  </i>
   <i type="int" name="LMAXFOCK">     4</i>
   <i type="int" name="NMAXFOCKAE">     1</i>
   <i type="logical" name="LFOCKAEDFT"> F  </i>
   <i name="HFSCREEN">      0.20000000</i>
   <i name="HFSCREENC">      0.20000000</i>
   <i type="int" name="NBANDSGWLOW">     1</i>
  </separator>
  <separator name="vdW DFT" >
   <i type="logical" name="LUSE_VDW"> F  </i>
   <i name="Zab_VDW">     -0.84910000</i>
   <i name="PARAM1">      0.12340000</i>
   <i name="PARAM2">      1.00000000</i>
   <i name="PARAM3">      0.00000000</i>
  </separator>
  <separator name="model GW" >
   <i type="int" name="MODEL_GW">     0</i>
   <i name="MODEL_EPS0">     11.09505304</i>
   <i name="MODEL_ALPHA">      1.00000000</i>
  </separator>
  <separator name="linear response parameters" >
   <i type="logical" name="LEPSILON"> F  </i>
   <i type="logical" name="LRPA"> F  </i>
   <i type="logical" name="LNABLA"> F  </i>
   <i type="logical" name="LVEL"> F  </i>
   <i type="int" name="KINTER">     0</i>
   <i name="CSHIFT">      0.10000000</i>
   <i name="OMEGAMAX">     -1.00000000</i>
   <i name="DEG_THRESHOLD">      0.00200000</i>
  </separator>
  <separator name="orbital magnetization" >
   <i type="logical" name="NUCIND"> F  </i>
   <v name="MAGPOS">      0.00000000      0.00000000      0.00000000</v>
   <i type="logical" name="LNICSALL"> T  </i>
   <i type="logical" name="ORBITALMAG"> F  </i>
   <i type="logical" name="LMAGBLOCH"> F  </i>
   <i type="logical" name="LCHIMAG"> F  </i>
   <i type="logical" name="LGAUGE"> T  </i>
   <i type="int" name="MAGATOM">     0</i>
   <v name="MAGDIPOL">      0.00000000      0.00000000      0.00000000</v>
   <v name="AVECCONST">      0.00000000      0.00000000      0.00000000</v>
  </separator>
  <separator name="response functions" >
   <i type="logical" name="LADDER"> F  </i>
   <i type="logical" name="LFXC"> F  </i>
   <i type="logical" name="LHARTREE"> T  </i>
   <i type="int" name="IBSE">     0</i>
   <i type="logical" name="LTCTE"> F  </i>
   <i type="logical" name="LTETE"> F  </i>
   <i type="logical" name="LTRIPLET"> F  </i>
   <i type="logical" name="LFXCEPS"> F  </i>
   <i type="logical" name="L2ORDER"> F  </i>
   <i type="logical" name="LUSEW"> F  </i>
   <i name="ENCUTGW">     -2.00000000</i>
   <i name="ENCUTGWSOFT">     -2.00000000</i>
   <i name="ENCUTLF">     -1.00000000</i>
   <i type="int" name="LMAXMP2">    -1</i>
   <i name="SCISSOR">      0.00000000</i>
   <i type="int" name="NOMEGA">     0</i>
   <i type="int" name="NOMEGAR">     0</i>
   <i type="int" name="NBANDSGW">    -1</i>
   <i type="int" name="NBANDSO">    -1</i>
   <i type="int" name="NBANDSV">    -1</i>
   <i type="int" name="NELM">     1</i>
   <i type="int" name="DIM">     3</i>
   <i type="int" name="ANTIRES">     0</i>
   <i name="OMEGAMAX">    -30.00000000</i>
   <i name="OMEGATL">   -200.00000000</i>
   <i type="int" name="OMEGAGRID">     0</i>
   <i name="CSHIFT">     -0.10000000</i>
   <i type="logical" name="SELFENERGY"> F  </i>
   <i type="logical" name="LSPECTRAL"> F  </i>
   <i type="logical" name="ODDONLYGW"> F  </i>
   <i type="logical" name="EVENONLYGW"> F  </i>
   <i type="int" name="NKREDLFX">     1</i>
   <i type="int" name="NKREDLFY">     1</i>
   <i type="int" name="NKREDLFZ">     1</i>
   <i type="int" name="MAXMEM">  1800</i>
   <i type="int" name="TELESCOPE">     0</i>
  </separator>
 </parameters>
 <atominfo>
  <atoms>      12 </atoms>
  <types>       3 </types>
  <array name="atoms" >
   <dimension dim="1">ion</dimension>
   <field type="string">element</field>
   <field type="int">atomtype</field>
   <set>
    <rc><c>Cu</c><c>   1</c></rc>
    <rc><c>Cu</c><c>   1</c></rc>
    <rc><c>Cu</c><c>   1</c></rc>
    <rc><c>Cu</c><c>   1</c></rc>
    <rc><c>Ge</c><c>   2</c></rc>
    <rc><c>Ge</c><c>   2</c></rc>
    <rc><c>S </c><c>   3</c></rc>
    <rc><c>S </c><c>   3</c></rc>
    <rc><c>S </c><c>   3</c></rc>
    <rc><c>S </c><c>   3</c></rc>
    <rc><c>S </c><c>   3</c></rc>
    <rc><c>S </c><c>   3</c></rc>
   </set>
  </array>
  <array name="atomtypes" >
   <dimension dim="1">type</dimension>
   <field type="int">atomspertype</field>
   <field type="string">element</field>
   <field>mass</field>
   <field>valence</field>
   <field type="string">pseudopotential</field>
   <set>
    <rc><c>   4</c><c>Cu</c><c>     63.54600000</c><c>     17.00000000</c><c>  PAW_PBE Cu_pv 06Sep2000               </c></rc>
    <rc><c>   2</c><c>Ge</c><c>     72.61000000</c><c>      4.00000000</c><c>  PAW_PBE Ge 05Jan2001                  </c></rc>
    <rc><c>   6</c><c>S </c><c>     32.06600000</c><c>      6.00000000</c><c>  PAW_PBE S 17Jan2003                   </c></rc>
   </set>
  </array>
 </atominfo>
 <structure name="initialpos" >
  <crystal>
   <varray name="basis" >
    <v>       3.22479600      -5.64383000       0.03157200 </v>
    <v>       3.22479600       5.64383000       0.03157200 </v>
    <v>      -2.10194600       0.00000000       6.07553700 </v>
   </varray>
   <i name="volume">    221.90106089 </i>
   <varray name="rec_basis" >
    <v>       0.15452516      -0.08859232       0.05346088 </v>
    <v>       0.15452516       0.08859232       0.05346088 </v>
    <v>      -0.00160600       0.00000000       0.16403888 </v>
   </varray>
  </crystal>
  <varray name="positions" >
   <v>       0.61844300       0.12117100       0.11953300 </v>
   <v>       0.12117100       0.61844300       0.61953300 </v>
   <v>       0.96295700       0.79032200       0.11881300 </v>
   <v>       0.79032200       0.96295700       0.61881300 </v>
   <v>       0.43973200       0.26728100       0.59904700 </v>
   <v>       0.26728100       0.43973200       0.09904700 </v>
   <v>       0.07949800       0.91167500       0.49736300 </v>
   <v>       0.57140300       0.41236400       0.98018400 </v>
   <v>       0.73711100       0.24852360       0.49504900 </v>
   <v>       0.41236400       0.57140300       0.48018400 </v>
   <v>       0.91167500       0.07949800       0.99736300 </v>
   <v>       0.25006200       0.73711100       0.99504900 </v>
  </varray>
 </structure>
 <calculation>
  <scstep>
   <time name="total">  250.58  250.37</time>
   <energy>
    <i name="alphaZ">    339.31929130 </i>
    <i name="ewald">  -9063.82881239 </i>
    <i name="hartreedc">  -8067.44599581 </i>
    <i name="XCdc">    369.90406456 </i>
    <i name="pawpsdc">  16899.31032796 </i>
    <i name="pawaedc"> -17392.12360411 </i>
    <i name="eentropy">     -0.00142718 </i>
    <i name="bandstr">  -1658.02815875 </i>
    <i name="atom">  18320.98302006 </i>
    <i name="e_fr_energy">     75.53988653 </i>
    <i name="e_wo_entrp">     75.54131371 </i>
    <i name="e_0_energy">     75.54036225 </i>
   </energy>
  </scstep>
  <scstep>
   <time name="total">  259.00  258.80</time>
   <energy>
    <i name="e_fr_energy">     -8.37580890 </i>
    <i name="e_wo_entrp">     -8.37502432 </i>
    <i name="e_0_energy">     -8.37554738 </i>
   </energy>
  </scstep>
  <scstep>
   <time name="total">  258.07  257.92</time>
   <energy>
    <i name="e_fr_energy">    -15.18033440 </i>
    <i name="e_wo_entrp">    -15.18048747 </i>
    <i name="e_0_energy">    -15.18038543 </i>
   </energy>
  </scstep>
  <scstep>
   <time name="total">  260.21  259.99</time>
   <energy>
    <i name="e_fr_energy">    -22.65528174 </i>
    <i name="e_wo_entrp">    -22.65563527 </i>
    <i name="e_0_energy">    -22.65539958 </i>
   </energy>
  </scstep>
  <scstep>
   <time name="total">  262.26  262.02</time>
   <energy>
    <i name="e_fr_energy">    -60.81703043 </i>
    <i name="e_wo_entrp">    -60.81766746 </i>
    <i name="e_0_energy">    -60.81724278 </i>
   </energy>
  </scstep>
  <scstep>
   <time name="total">  259.91  259.68</time>
   <energy>
    <i name="e_fr_energy">    -65.95127627 </i>
    <i name="e_wo_entrp">    -65.95190342 </i>
    <i name="e_0_energy">    -65.95148532 </i>
   </energy>
  </scstep>
  <scstep>
   <time name="total">  261.68  261.50</time>
   <energy>
    <i name="e_fr_energy">    -67.48414144 </i>
    <i name="e_wo_entrp">    -67.48456398 </i>
    <i name="e_0_energy">    -67.48428228 </i>
   </energy>
  </scstep>
  <scstep>
   <time name="total">  262.09  261.87</time>
   <energy>
    <i name="e_fr_energy">    -69.08617250 </i>
    <i name="e_wo_entrp">    -69.08689164 </i>
    <i name="e_0_energy">    -69.08641222 </i>
   </energy>
  </scstep>
  <scstep>
   <time name="total">  263.18  263.03</time>
   <energy>
    <i name="e_fr_energy">    -69.39598823 </i>
    <i name="e_wo_entrp">    -69.39683864 </i>
    <i name="e_0_energy">    -69.39627170 </i>
   </energy>
  </scstep>
  <scstep>
   <time name="total">  263.31  263.08</time>
   <energy>
    <i name="e_fr_energy">    -69.49912081 </i>
    <i name="e_wo_entrp">    -69.49983153 </i>
    <i name="e_0_energy">    -69.49935772 </i>
   </energy>
  </scstep>
  <scstep>
   <time name="total">  260.38  260.18</time>
   <energy>
    <i name="e_fr_energy">    -69.56845960 </i>
    <i name="e_wo_entrp">    -69.56906050 </i>
    <i name="e_0_energy">    -69.56865990 </i>
   </energy>
  </scstep>
  <scstep>
   <time name="total">  260.09  259.89</time>
   <energy>
    <i name="e_fr_energy">    -69.58082928 </i>
    <i name="e_wo_entrp">    -69.58137904 </i>
    <i name="e_0_energy">    -69.58101253 </i>
   </energy>
  </scstep>
  <scstep>
   <time name="total">  260.64  260.41</time>
   <energy>
    <i name="e_fr_energy">    -69.59043020 </i>
    <i name="e_wo_entrp">    -69.59096831 </i>
    <i name="e_0_energy">    -69.59060957 </i>
   </energy>
  </scstep>
  <scstep>
   <time name="total">  262.05  261.83</time>
   <energy>
    <i name="e_fr_energy">    -69.59288345 </i>
    <i name="e_wo_entrp">    -69.59344024 </i>
    <i name="e_0_energy">    -69.59306905 </i>
   </energy>
  </scstep>
  <scstep>
   <time name="total">  264.38  264.17</time>
   <energy>
    <i name="e_fr_energy">    -69.59438212 </i>
    <i name="e_wo_entrp">    -69.59495159 </i>
    <i name="e_0_energy">    -69.59457194 </i>
   </energy>
  </scstep>
  <scstep>
   <time name="total">  262.65  262.43</time>
   <energy>
    <i name="e_fr_energy">    -69.59495039 </i>
    <i name="e_wo_entrp">    -69.59552003 </i>
    <i name="e_0_energy">    -69.59514027 </i>
   </energy>
  </scstep>
  <scstep>
   <time name="total">  260.04  259.83</time>
   <energy>
    <i name="e_fr_energy">    -69.59512321 </i>
    <i name="e_wo_entrp">    -69.59568977 </i>
    <i name="e_0_energy">    -69.59531206 </i>
   </energy>
  </scstep>
  <scstep>
   <time name="total">  262.92  262.71</time>
   <energy>
    <i name="e_fr_energy">    -69.59523983 </i>
    <i name="e_wo_entrp">    -69.59580357 </i>
    <i name="e_0_energy">    -69.59542774 </i>
   </energy>
  </scstep>
  <scstep>
   <time name="total">  262.83  262.88</time>
   <energy>
    <i name="e_fr_energy">    -69.59526880 </i>
    <i name="e_wo_entrp">    -69.59583119 </i>
    <i name="e_0_energy">    -69.59545626 </i>
   </energy>
  </scstep>
  <scstep>
   <time name="total">  263.14  262.91</time>
   <energy>
    <i name="e_fr_energy">    -69.59528850 </i>
    <i name="e_wo_entrp">    -69.59585130 </i>
    <i name="e_0_energy">    -69.59547610 </i>
   </energy>
  </scstep>
  <scstep>
   <time name="total">  260.16  259.95</time>
   <energy>
    <i name="alphaZ">    339.31929130 </i>
    <i name="ewald">  -9063.82881239 </i>
    <i name="hartreedc">  -8150.21447127 </i>
    <i name="XCdc">    372.06525098 </i>
    <i name="pawpsdc">  15921.63194783 </i>
    <i name="pawaedc"> -16406.84016577 </i>
    <i name="eentropy">      0.00056343 </i>
    <i name="bandstr">  -1742.77067487 </i>
    <i name="atom">  18320.98302006 </i>
    <i name="e_fr_energy">    -69.59529590 </i>
    <i name="e_wo_entrp">    -69.59585933 </i>
    <i name="e_0_energy">    -69.59548371 </i>
   </energy>
  </scstep>
  <structure>
   <crystal>
    <varray name="basis" >
     <v>       3.22479600      -5.64383000       0.03157200 </v>
     <v>       3.22479600       5.64383000       0.03157200 </v>
     <v>      -2.10194600       0.00000000       6.07553700 </v>
    </varray>
    <i name="volume">    221.90106089 </i>
    <varray name="rec_basis" >
     <v>       0.15452516      -0.08859232       0.05346088 </v>
     <v>       0.15452516       0.08859232       0.05346088 </v>
     <v>      -0.00160600       0.00000000       0.16403888 </v>
    </varray>
   </crystal>
   <varray name="positions" >
    <v>       0.61844300       0.12117100       0.11953300 </v>
    <v>       0.12117100       0.61844300       0.61953300 </v>
    <v>       0.96295700       0.79032200       0.11881300 </v>
    <v>       0.79032200       0.96295700       0.61881300 </v>
    <v>       0.43973200       0.26728100       0.59904700 </v>
    <v>       0.26728100       0.43973200       0.09904700 </v>
    <v>       0.07949800       0.91167500       0.49736300 </v>
    <v>       0.57140300       0.41236400       0.98018400 </v>
    <v>       0.73711100       0.24852360       0.49504900 </v>
    <v>       0.41236400       0.57140300       0.48018400 </v>
    <v>       0.91167500       0.07949800       0.99736300 </v>
    <v>       0.25006200       0.73711100       0.99504900 </v>
   </varray>
  </structure>
  <varray name="forces" >
   <v>      -0.00036670      -0.00037027       0.00147769 </v>
   <v>      -0.01832852       0.00204662      -0.00605101 </v>
   <v>       0.00279188      -0.00057760       0.00105974 </v>
   <v>      -0.00936098      -0.02512814       0.00993252 </v>
   <v>       0.02081727      -0.03847527      -0.01264090 </v>
   <v>      -0.00073800      -0.00537899      -0.00128401 </v>
   <v>      -0.00764870      -0.00477567      -0.00186366 </v>
   <v>      -0.00043086      -0.01039550       0.00329495 </v>
   <v>       0.01986579       0.09913626       0.00717166 </v>
   <v>      -0.00387949      -0.00800108       0.00200392 </v>
   <v>       0.00200834      -0.00595600       0.00163395 </v>
   <v>      -0.00473002      -0.00212436      -0.00473487 </v>
  </varray>
  <energy>
   <i name="e_fr_energy">    -69.59529590 </i>
   <i name="e_wo_entrp">    -69.59548371 </i>
   <i name="e_0_energy">      0.00056343 </i>
  </energy>
  <time name="totalsc"> 5991.38 5988.15</time>
  <eigenvalues>
   <array>
    <dimension dim="1">band</dimension>
    <dimension dim="2">kpoint</dimension>
    <dimension dim="3">spin</dimension>
    <field>eigene</field>
    <field>occ</field>
    <set>
     <set comment="spin 1">
      <set comment="kpoint 1">
       <r>  -68.6456    1.0000 </r>
       <r>  -68.6422    1.0000 </r>
       <r>  -68.6420    1.0000 </r>
       <r>  -68.6335    1.0000 </r>
       <r>  -68.6130    1.0000 </r>
       <r>  -68.6091    1.0000 </r>
       <r>  -68.5959    1.0000 </r>
       <r>  -68.5918    1.0000 </r>
       <r>  -68.5853    1.0000 </r>
       <r>  -68.5777    1.0000 </r>
       <r>  -68.5703    1.0000 </r>
       <r>  -68.5608    1.0000 </r>
       <r>  -12.7196    1.0000 </r>
       <r>  -11.1271    1.0000 </r>
       <r>  -10.9170    1.0000 </r>
       <r>  -10.6041    1.0000 </r>
       <r>  -10.2484    1.0000 </r>
       <r>  -10.2335    1.0000 </r>
       <r>   -5.9858    1.0000 </r>
       <r>   -4.9824    1.0000 </r>
       <r>   -2.7601    1.0000 </r>
       <r>   -2.2088    1.0000 </r>
       <r>   -2.0664    1.0000 </r>
       <r>   -1.9218    1.0000 </r>
       <r>   -1.5774    1.0000 </r>
       <r>   -0.9895    1.0000 </r>
       <r>   -0.9518    1.0000 </r>
       <r>   -0.6827    1.0000 </r>
       <r>   -0.4039    1.0000 </r>
       <r>   -0.2774    1.0000 </r>
       <r>   -0.2590    1.0000 </r>
       <r>   -0.2358    1.0000 </r>
       <r>   -0.1908    1.0000 </r>
       <r>   -0.1582    1.0000 </r>
       <r>   -0.0450    1.0000 </r>
       <r>    0.0336    1.0000 </r>
       <r>    1.3505    1.0000 </r>
       <r>    1.3624    1.0000 </r>
       <r>    1.4137    1.0000 </r>
       <r>    1.4544    1.0000 </r>
       <r>    1.4702    1.0000 </r>
       <r>    1.4715    1.0000 </r>
       <r>    1.5205    1.0000 </r>
       <r>    1.5301    1.0000 </r>
       <r>    1.5753    1.0000 </r>
       <r>    1.7116    1.0000 </r>
       <r>    1.8916    1.0000 </r>
       <r>    1.9278    1.0000 </r>
       <r>    2.0578    1.0000 </r>
       <r>    2.6525    1.0000 </r>
       <r>    2.7263    1.0000 </r>
       <r>    3.0919    1.0000 </r>
       <r>    3.2179    1.0000 </r>
       <r>    4.0089    1.0049 </r>
       <r>    4.0389    1.0127 </r>
       <r>    4.1748    0.8622 </r>
       <r>    5.5347   -0.0000 </r>
       <r>    6.3538   -0.0000 </r>
       <r>    7.6280    0.0000 </r>
       <r>    7.9872    0.0000 </r>
       <r>    8.6141    0.0000 </r>
       <r>    8.7908    0.0000 </r>
       <r>    9.5655    0.0000 </r>
       <r>    9.7401    0.0000 </r>
       <r>    9.8152    0.0000 </r>
       <r>   10.4235    0.0000 </r>
       <r>   10.5808    0.0000 </r>
       <r>   10.6941    0.0000 </r>
       <r>   10.7188    0.0000 </r>
       <r>   11.2929    0.0000 </r>
       <r>   11.7094    0.0000 </r>
       <r>   12.3858    0.0000 </r>
       <r>   12.4506    0.0000 </r>
       <r>   12.7262    0.0000 </r>
       <r>   13.3216    0.0000 </r>
       <r>   13.3901    0.0000 </r>
       <r>   13.8293    0.0000 </r>
       <r>   13.8879    0.0000 </r>
       <r>   14.1457    0.0000 </r>
       <r>   14.1781    0.0000 </r>
      </set>
      <set comment="kpoint 2">
       <r>  -68.6456    1.0000 </r>
       <r>  -68.6422    1.0000 </r>
       <r>  -68.6419    1.0000 </r>
       <r>  -68.6335    1.0000 </r>
       <r>  -68.6129    1.0000 </r>
       <r>  -68.6090    1.0000 </r>
       <r>  -68.5959    1.0000 </r>
       <r>  -68.5919    1.0000 </r>
       <r>  -68.5853    1.0000 </r>
       <r>  -68.5777    1.0000 </r>
       <r>  -68.5703    1.0000 </r>
       <r>  -68.5607    1.0000 </r>
       <r>  -12.5948    1.0000 </r>
       <r>  -11.1238    1.0000 </r>
       <r>  -10.9834    1.0000 </r>
       <r>  -10.6773    1.0000 </r>
       <r>  -10.3655    1.0000 </r>
       <r>  -10.2741    1.0000 </r>
       <r>   -5.9345    1.0000 </r>
       <r>   -4.7728    1.0000 </r>
       <r>   -2.6464    1.0000 </r>
       <r>   -2.2510    1.0000 </r>
       <r>   -2.0849    1.0000 </r>
       <r>   -1.6872    1.0000 </r>
       <r>   -1.3437    1.0000 </r>
       <r>   -1.0001    1.0000 </r>
       <r>   -0.7689    1.0000 </r>
       <r>   -0.6248    1.0000 </r>
       <r>   -0.5535    1.0000 </r>
       <r>   -0.4397    1.0000 </r>
       <r>   -0.3588    1.0000 </r>
       <r>   -0.2435    1.0000 </r>
       <r>   -0.1965    1.0000 </r>
       <r>   -0.1678    1.0000 </r>
       <r>   -0.0508    1.0000 </r>
       <r>    0.0388    1.0000 </r>
       <r>    1.2779    1.0000 </r>
       <r>    1.3336    1.0000 </r>
       <r>    1.3529    1.0000 </r>
       <r>    1.3927    1.0000 </r>
       <r>    1.4274    1.0000 </r>
       <r>    1.4707    1.0000 </r>
       <r>    1.4954    1.0000 </r>
       <r>    1.5307    1.0000 </r>
       <r>    1.7243    1.0000 </r>
       <r>    1.8593    1.0000 </r>
       <r>    2.0550    1.0000 </r>
       <r>    2.0922    1.0000 </r>
       <r>    2.2314    1.0000 </r>
       <r>    2.4132    1.0000 </r>
       <r>    2.5564    1.0000 </r>
       <r>    2.8266    1.0000 </r>
       <r>    2.9473    1.0000 </r>
       <r>    3.2436    1.0000 </r>
       <r>    3.6645    1.0000 </r>
       <r>    4.0426    1.0141 </r>
       <r>    6.1663   -0.0000 </r>
       <r>    6.9019   -0.0000 </r>
       <r>    8.1365    0.0000 </r>
       <r>    8.2670    0.0000 </r>
       <r>    8.5914    0.0000 </r>
       <r>    9.0184    0.0000 </r>
       <r>    9.2424    0.0000 </r>
       <r>    9.5302    0.0000 </r>
       <r>    9.8589    0.0000 </r>
       <r>   10.3797    0.0000 </r>
       <r>   10.6343    0.0000 </r>
       <r>   10.8155    0.0000 </r>
       <r>   10.9433    0.0000 </r>
       <r>   11.1873    0.0000 </r>
       <r>   11.6510    0.0000 </r>
       <r>   11.7694    0.0000 </r>
       <r>   12.1167    0.0000 </r>
       <r>   12.4445    0.0000 </r>
       <r>   12.6231    0.0000 </r>
       <r>   13.0076    0.0000 </r>
       <r>   13.5074    0.0000 </r>
       <r>   13.8743    0.0000 </r>
       <r>   14.2102    0.0000 </r>
       <r>   14.7101    0.0000 </r>
      </set>
      <set comment="kpoint 3">
       <r>  -68.6454    1.0000 </r>
       <r>  -68.6421    1.0000 </r>
       <r>  -68.6418    1.0000 </r>
       <r>  -68.6334    1.0000 </r>
       <r>  -68.6129    1.0000 </r>
       <r>  -68.6089    1.0000 </r>
       <r>  -68.5959    1.0000 </r>
       <r>  -68.5918    1.0000 </r>
       <r>  -68.5853    1.0000 </r>
       <r>  -68.5776    1.0000 </r>
       <r>  -68.5701    1.0000 </r>
       <r>  -68.5606    1.0000 </r>
       <r>  -12.4356    1.0000 </r>
       <r>  -11.2461    1.0000 </r>
       <r>  -10.9574    1.0000 </r>
       <r>  -10.7643    1.0000 </r>
       <r>  -10.4276    1.0000 </r>
       <r>  -10.3538    1.0000 </r>
       <r>   -5.8727    1.0000 </r>
       <r>   -4.5488    1.0000 </r>
       <r>   -2.4951    1.0000 </r>
       <r>   -2.2428    1.0000 </r>
       <r>   -1.9446    1.0000 </r>
       <r>   -1.4631    1.0000 </r>
       <r>   -1.2234    1.0000 </r>
       <r>   -1.0978    1.0000 </r>
       <r>   -0.9014    1.0000 </r>
       <r>   -0.8661    1.0000 </r>
       <r>   -0.6020    1.0000 </r>
       <r>   -0.5358    1.0000 </r>
       <r>   -0.2753    1.0000 </r>
       <r>   -0.2105    1.0000 </r>
       <r>   -0.2000    1.0000 </r>
       <r>   -0.1452    1.0000 </r>
       <r>   -0.0332    1.0000 </r>
       <r>    0.0796    1.0000 </r>
       <r>    1.2516    1.0000 </r>
       <r>    1.3257    1.0000 </r>
       <r>    1.3481    1.0000 </r>
       <r>    1.3966    1.0000 </r>
       <r>    1.4702    1.0000 </r>
       <r>    1.4758    1.0000 </r>
       <r>    1.4997    1.0000 </r>
       <r>    1.5540    1.0000 </r>
       <r>    1.7527    1.0000 </r>
       <r>    1.7891    1.0000 </r>
       <r>    1.9662    1.0000 </r>
       <r>    2.1454    1.0000 </r>
       <r>    2.3189    1.0000 </r>
       <r>    2.3604    1.0000 </r>
       <r>    2.5576    1.0000 </r>
       <r>    2.6715    1.0000 </r>
       <r>    2.9378    1.0000 </r>
       <r>    3.0812    1.0000 </r>
       <r>    3.2483    1.0000 </r>
       <r>    3.8646    1.0000 </r>
       <r>    6.3809   -0.0000 </r>
       <r>    7.0941    0.0000 </r>
       <r>    7.9824    0.0000 </r>
       <r>    8.2053    0.0000 </r>
       <r>    8.5189    0.0000 </r>
       <r>    8.8186    0.0000 </r>
       <r>    9.3270    0.0000 </r>
       <r>    9.8937    0.0000 </r>
       <r>   10.0011    0.0000 </r>
       <r>   10.5154    0.0000 </r>
       <r>   10.6880    0.0000 </r>
       <r>   10.7913    0.0000 </r>
       <r>   11.1476    0.0000 </r>
       <r>   11.4074    0.0000 </r>
       <r>   11.6070    0.0000 </r>
       <r>   11.7760    0.0000 </r>
       <r>   11.9495    0.0000 </r>
       <r>   12.5033    0.0000 </r>
       <r>   12.7784    0.0000 </r>
       <r>   13.0024    0.0000 </r>
       <r>   13.3923    0.0000 </r>
       <r>   13.5443    0.0000 </r>
       <r>   13.9421    0.0000 </r>
       <r>   14.2738    0.0000 </r>
      </set>
      <set comment="kpoint 4">
       <r>  -68.6456    1.0000 </r>
       <r>  -68.6422    1.0000 </r>
       <r>  -68.6419    1.0000 </r>
       <r>  -68.6334    1.0000 </r>
       <r>  -68.6129    1.0000 </r>
       <r>  -68.6090    1.0000 </r>
       <r>  -68.5959    1.0000 </r>
       <r>  -68.5918    1.0000 </r>
       <r>  -68.5853    1.0000 </r>
       <r>  -68.5777    1.0000 </r>
       <r>  -68.5703    1.0000 </r>
       <r>  -68.5607    1.0000 </r>
       <r>  -12.5945    1.0000 </r>
       <r>  -11.1247    1.0000 </r>
       <r>  -10.9838    1.0000 </r>
       <r>  -10.6774    1.0000 </r>
       <r>  -10.3626    1.0000 </r>
       <r>  -10.2759    1.0000 </r>
       <r>   -5.9346    1.0000 </r>
       <r>   -4.7724    1.0000 </r>
       <r>   -2.6453    1.0000 </r>
       <r>   -2.2527    1.0000 </r>
       <r>   -2.0844    1.0000 </r>
       <r>   -1.6879    1.0000 </r>
       <r>   -1.3455    1.0000 </r>
       <r>   -1.0008    1.0000 </r>
       <r>   -0.7678    1.0000 </r>
       <r>   -0.6249    1.0000 </r>
       <r>   -0.5525    1.0000 </r>
       <r>   -0.4408    1.0000 </r>
       <r>   -0.3600    1.0000 </r>
       <r>   -0.2413    1.0000 </r>
       <r>   -0.1958    1.0000 </r>
       <r>   -0.1692    1.0000 </r>
       <r>   -0.0500    1.0000 </r>
       <r>    0.0389    1.0000 </r>
       <r>    1.2789    1.0000 </r>
       <r>    1.3340    1.0000 </r>
       <r>    1.3535    1.0000 </r>
       <r>    1.3909    1.0000 </r>
       <r>    1.4276    1.0000 </r>
       <r>    1.4714    1.0000 </r>
       <r>    1.4973    1.0000 </r>
       <r>    1.5276    1.0000 </r>
       <r>    1.7241    1.0000 </r>
       <r>    1.8596    1.0000 </r>
       <r>    2.0556    1.0000 </r>
       <r>    2.0935    1.0000 </r>
       <r>    2.2304    1.0000 </r>
       <r>    2.4132    1.0000 </r>
       <r>    2.5548    1.0000 </r>
       <r>    2.8275    1.0000 </r>
       <r>    2.9486    1.0000 </r>
       <r>    3.2437    1.0000 </r>
       <r>    3.6640    1.0000 </r>
       <r>    4.0424    1.0141 </r>
       <r>    6.1672   -0.0000 </r>
       <r>    6.9012   -0.0000 </r>
       <r>    8.1369    0.0000 </r>
       <r>    8.2665    0.0000 </r>
       <r>    8.5929    0.0000 </r>
       <r>    9.0130    0.0000 </r>
       <r>    9.2387    0.0000 </r>
       <r>    9.5295    0.0000 </r>
       <r>    9.8661    0.0000 </r>
       <r>   10.3785    0.0000 </r>
       <r>   10.6345    0.0000 </r>
       <r>   10.8145    0.0000 </r>
       <r>   10.9409    0.0000 </r>
       <r>   11.1974    0.0000 </r>
       <r>   11.6529    0.0000 </r>
       <r>   11.7698    0.0000 </r>
       <r>   12.1155    0.0000 </r>
       <r>   12.4397    0.0000 </r>
       <r>   12.6185    0.0000 </r>
       <r>   13.0100    0.0000 </r>
       <r>   13.5147    0.0000 </r>
       <r>   13.8995    0.0000 </r>
       <r>   14.2740    0.0000 </r>
       <r>   14.8424    0.0000 </r>
      </set>
      <set comment="kpoint 5">
       <r>  -68.6456    1.0000 </r>
       <r>  -68.6422    1.0000 </r>
       <r>  -68.6419    1.0000 </r>
       <r>  -68.6333    1.0000 </r>
       <r>  -68.6131    1.0000 </r>
       <r>  -68.6091    1.0000 </r>
       <r>  -68.5958    1.0000 </r>
       <r>  -68.5917    1.0000 </r>
       <r>  -68.5854    1.0000 </r>
       <r>  -68.5778    1.0000 </r>
       <r>  -68.5703    1.0000 </r>
       <r>  -68.5608    1.0000 </r>
       <r>  -12.4391    1.0000 </r>
       <r>  -11.1887    1.0000 </r>
       <r>  -10.9430    1.0000 </r>
       <r>  -10.8785    1.0000 </r>
       <r>  -10.3885    1.0000 </r>
       <r>  -10.3479    1.0000 </r>
       <r>   -5.8777    1.0000 </r>
       <r>   -4.5217    1.0000 </r>
       <r>   -2.4182    1.0000 </r>
       <r>   -2.2449    1.0000 </r>
       <r>   -1.7910    1.0000 </r>
       <r>   -1.6803    1.0000 </r>
       <r>   -1.3561    1.0000 </r>
       <r>   -1.2976    1.0000 </r>
       <r>   -1.0828    1.0000 </r>
       <r>   -0.6801    1.0000 </r>
       <r>   -0.5245    1.0000 </r>
       <r>   -0.2976    1.0000 </r>
       <r>   -0.2829    1.0000 </r>
       <r>   -0.2285    1.0000 </r>
       <r>   -0.1842    1.0000 </r>
       <r>   -0.1320    1.0000 </r>
       <r>   -0.0923    1.0000 </r>
       <r>    0.0782    1.0000 </r>
       <r>    1.2921    1.0000 </r>
       <r>    1.3102    1.0000 </r>
       <r>    1.4143    1.0000 </r>
       <r>    1.4268    1.0000 </r>
       <r>    1.4640    1.0000 </r>
       <r>    1.4810    1.0000 </r>
       <r>    1.4939    1.0000 </r>
       <r>    1.5677    1.0000 </r>
       <r>    1.6697    1.0000 </r>
       <r>    1.8785    1.0000 </r>
       <r>    1.9383    1.0000 </r>
       <r>    2.1343    1.0000 </r>
       <r>    2.2783    1.0000 </r>
       <r>    2.3212    1.0000 </r>
       <r>    2.5608    1.0000 </r>
       <r>    2.6526    1.0000 </r>
       <r>    2.9049    1.0000 </r>
       <r>    2.9442    1.0000 </r>
       <r>    3.6989    1.0000 </r>
       <r>    3.8353    1.0000 </r>
       <r>    6.1663   -0.0000 </r>
       <r>    6.9855    0.0000 </r>
       <r>    8.0033    0.0000 </r>
       <r>    8.3302    0.0000 </r>
       <r>    8.4309    0.0000 </r>
       <r>    8.5734    0.0000 </r>
       <r>    9.1443    0.0000 </r>
       <r>    9.2488    0.0000 </r>
       <r>   10.3573    0.0000 </r>
       <r>   10.4903    0.0000 </r>
       <r>   10.9236    0.0000 </r>
       <r>   11.1887    0.0000 </r>
       <r>   11.3291    0.0000 </r>
       <r>   11.5535    0.0000 </r>
       <r>   11.8195    0.0000 </r>
       <r>   11.9651    0.0000 </r>
       <r>   12.3132    0.0000 </r>
       <r>   12.5012    0.0000 </r>
       <r>   12.7148    0.0000 </r>
       <r>   12.9111    0.0000 </r>
       <r>   13.3419    0.0000 </r>
       <r>   13.4465    0.0000 </r>
       <r>   14.2539    0.0000 </r>
       <r>   14.3709    0.0000 </r>
      </set>
      <set comment="kpoint 6">
       <r>  -68.6453    1.0000 </r>
       <r>  -68.6421    1.0000 </r>
       <r>  -68.6419    1.0000 </r>
       <r>  -68.6334    1.0000 </r>
       <r>  -68.6128    1.0000 </r>
       <r>  -68.6089    1.0000 </r>
       <r>  -68.5959    1.0000 </r>
       <r>  -68.5918    1.0000 </r>
       <r>  -68.5852    1.0000 </r>
       <r>  -68.5776    1.0000 </r>
       <r>  -68.5702    1.0000 </r>
       <r>  -68.5606    1.0000 </r>
       <r>  -12.4397    1.0000 </r>
       <r>  -11.3510    1.0000 </r>
       <r>  -10.9384    1.0000 </r>
       <r>  -10.7381    1.0000 </r>
       <r>  -10.3878    1.0000 </r>
       <r>  -10.2694    1.0000 </r>
       <r>   -5.9485    1.0000 </r>
       <r>   -4.6421    1.0000 </r>
       <r>   -2.3919    1.0000 </r>
       <r>   -2.2254    1.0000 </r>
       <r>   -2.0575    1.0000 </r>
       <r>   -1.6384    1.0000 </r>
       <r>   -1.3595    1.0000 </r>
       <r>   -1.2827    1.0000 </r>
       <r>   -1.0224    1.0000 </r>
       <r>   -0.5107    1.0000 </r>
       <r>   -0.4852    1.0000 </r>
       <r>   -0.3311    1.0000 </r>
       <r>   -0.2847    1.0000 </r>
       <r>   -0.2150    1.0000 </r>
       <r>   -0.1529    1.0000 </r>
       <r>   -0.1338    1.0000 </r>
       <r>   -0.0127    1.0000 </r>
       <r>    0.1084    1.0000 </r>
       <r>    1.2447    1.0000 </r>
       <r>    1.3143    1.0000 </r>
       <r>    1.3823    1.0000 </r>
       <r>    1.4354    1.0000 </r>
       <r>    1.4608    1.0000 </r>
       <r>    1.4913    1.0000 </r>
       <r>    1.4951    1.0000 </r>
       <r>    1.5493    1.0000 </r>
       <r>    1.7492    1.0000 </r>
       <r>    1.8249    1.0000 </r>
       <r>    1.9203    1.0000 </r>
       <r>    2.1343    1.0000 </r>
       <r>    2.2206    1.0000 </r>
       <r>    2.3833    1.0000 </r>
       <r>    2.5604    1.0000 </r>
       <r>    2.7919    1.0000 </r>
       <r>    2.9785    1.0000 </r>
       <r>    3.3131    1.0000 </r>
       <r>    3.6065    1.0000 </r>
       <r>    3.7510    1.0000 </r>
       <r>    6.0833   -0.0000 </r>
       <r>    6.9354   -0.0000 </r>
       <r>    7.6100    0.0000 </r>
       <r>    8.0703    0.0000 </r>
       <r>    8.4121    0.0000 </r>
       <r>    8.6158    0.0000 </r>
       <r>    8.9807    0.0000 </r>
       <r>    9.1514    0.0000 </r>
       <r>   10.0872    0.0000 </r>
       <r>   10.3362    0.0000 </r>
       <r>   10.7343    0.0000 </r>
       <r>   11.1061    0.0000 </r>
       <r>   11.4547    0.0000 </r>
       <r>   11.6004    0.0000 </r>
       <r>   11.7972    0.0000 </r>
       <r>   12.0960    0.0000 </r>
       <r>   12.4777    0.0000 </r>
       <r>   12.9162    0.0000 </r>
       <r>   13.0342    0.0000 </r>
       <r>   13.8399    0.0000 </r>
       <r>   14.2150    0.0000 </r>
       <r>   14.6525    0.0000 </r>
       <r>   15.4355    0.0000 </r>
       <r>   15.6438    0.0000 </r>
      </set>
      <set comment="kpoint 7">
       <r>  -68.6456    1.0000 </r>
       <r>  -68.6422    1.0000 </r>
       <r>  -68.6419    1.0000 </r>
       <r>  -68.6334    1.0000 </r>
       <r>  -68.6129    1.0000 </r>
       <r>  -68.6089    1.0000 </r>
       <r>  -68.5959    1.0000 </r>
       <r>  -68.5918    1.0000 </r>
       <r>  -68.5852    1.0000 </r>
       <r>  -68.5776    1.0000 </r>
       <r>  -68.5703    1.0000 </r>
       <r>  -68.5607    1.0000 </r>
       <r>  -12.5976    1.0000 </r>
       <r>  -11.2481    1.0000 </r>
       <r>  -10.9924    1.0000 </r>
       <r>  -10.5703    1.0000 </r>
       <r>  -10.3652    1.0000 </r>
       <r>  -10.1782    1.0000 </r>
       <r>   -6.0105    1.0000 </r>
       <r>   -4.8936    1.0000 </r>
       <r>   -2.6464    1.0000 </r>
       <r>   -2.3128    1.0000 </r>
       <r>   -1.9722    1.0000 </r>
       <r>   -1.6445    1.0000 </r>
       <r>   -1.4964    1.0000 </r>
       <r>   -1.1820    1.0000 </r>
       <r>   -0.7904    1.0000 </r>
       <r>   -0.5853    1.0000 </r>
       <r>   -0.4480    1.0000 </r>
       <r>   -0.3368    1.0000 </r>
       <r>   -0.2957    1.0000 </r>
       <r>   -0.2318    1.0000 </r>
       <r>   -0.1754    1.0000 </r>
       <r>   -0.1335    1.0000 </r>
       <r>   -0.0089    1.0000 </r>
       <r>    0.0672    1.0000 </r>
       <r>    1.2584    1.0000 </r>
       <r>    1.3186    1.0000 </r>
       <r>    1.3663    1.0000 </r>
       <r>    1.4208    1.0000 </r>
       <r>    1.4291    1.0000 </r>
       <r>    1.4746    1.0000 </r>
       <r>    1.5016    1.0000 </r>
       <r>    1.5451    1.0000 </r>
       <r>    1.7253    1.0000 </r>
       <r>    1.8111    1.0000 </r>
       <r>    1.9934    1.0000 </r>
       <r>    2.0706    1.0000 </r>
       <r>    2.4149    1.0000 </r>
       <r>    2.4624    1.0000 </r>
       <r>    2.5313    1.0000 </r>
       <r>    2.8726    1.0000 </r>
       <r>    3.1426    1.0000 </r>
       <r>    3.2282    1.0000 </r>
       <r>    3.7850    1.0000 </r>
       <r>    4.0724    1.0272 </r>
       <r>    5.9772   -0.0000 </r>
       <r>    6.6873   -0.0000 </r>
       <r>    7.5305    0.0000 </r>
       <r>    8.2245    0.0000 </r>
       <r>    8.6156    0.0000 </r>
       <r>    8.9130    0.0000 </r>
       <r>    9.3018    0.0000 </r>
       <r>    9.4343    0.0000 </r>
       <r>    9.8020    0.0000 </r>
       <r>   10.2711    0.0000 </r>
       <r>   10.5457    0.0000 </r>
       <r>   10.8307    0.0000 </r>
       <r>   10.9777    0.0000 </r>
       <r>   11.3795    0.0000 </r>
       <r>   11.4805    0.0000 </r>
       <r>   11.7303    0.0000 </r>
       <r>   12.0995    0.0000 </r>
       <r>   12.6634    0.0000 </r>
       <r>   12.9400    0.0000 </r>
       <r>   13.0986    0.0000 </r>
       <r>   13.3535    0.0000 </r>
       <r>   13.5169    0.0000 </r>
       <r>   14.4770    0.0000 </r>
       <r>   14.7553    0.0000 </r>
      </set>
      <set comment="kpoint 8">
       <r>  -68.6454    1.0000 </r>
       <r>  -68.6420    1.0000 </r>
       <r>  -68.6419    1.0000 </r>
       <r>  -68.6334    1.0000 </r>
       <r>  -68.6129    1.0000 </r>
       <r>  -68.6090    1.0000 </r>
       <r>  -68.5959    1.0000 </r>
       <r>  -68.5918    1.0000 </r>
       <r>  -68.5852    1.0000 </r>
       <r>  -68.5777    1.0000 </r>
       <r>  -68.5702    1.0000 </r>
       <r>  -68.5606    1.0000 </r>
       <r>  -12.4349    1.0000 </r>
       <r>  -11.2490    1.0000 </r>
       <r>  -10.9570    1.0000 </r>
       <r>  -10.7639    1.0000 </r>
       <r>  -10.4226    1.0000 </r>
       <r>  -10.3572    1.0000 </r>
       <r>   -5.8726    1.0000 </r>
       <r>   -4.5479    1.0000 </r>
       <r>   -2.4939    1.0000 </r>
       <r>   -2.2443    1.0000 </r>
       <r>   -1.9434    1.0000 </r>
       <r>   -1.4655    1.0000 </r>
       <r>   -1.2268    1.0000 </r>
       <r>   -1.1018    1.0000 </r>
       <r>   -0.8998    1.0000 </r>
       <r>   -0.8651    1.0000 </r>
       <r>   -0.6004    1.0000 </r>
       <r>   -0.5362    1.0000 </r>
       <r>   -0.2752    1.0000 </r>
       <r>   -0.2049    1.0000 </r>
       <r>   -0.2001    1.0000 </r>
       <r>   -0.1515    1.0000 </r>
       <r>   -0.0284    1.0000 </r>
       <r>    0.0782    1.0000 </r>
       <r>    1.2539    1.0000 </r>
       <r>    1.3272    1.0000 </r>
       <r>    1.3457    1.0000 </r>
       <r>    1.3970    1.0000 </r>
       <r>    1.4691    1.0000 </r>
       <r>    1.4776    1.0000 </r>
       <r>    1.4996    1.0000 </r>
       <r>    1.5502    1.0000 </r>
       <r>    1.7518    1.0000 </r>
       <r>    1.7884    1.0000 </r>
       <r>    1.9667    1.0000 </r>
       <r>    2.1485    1.0000 </r>
       <r>    2.3206    1.0000 </r>
       <r>    2.3611    1.0000 </r>
       <r>    2.5582    1.0000 </r>
       <r>    2.6716    1.0000 </r>
       <r>    2.9357    1.0000 </r>
       <r>    3.0825    1.0000 </r>
       <r>    3.2490    1.0000 </r>
       <r>    3.8640    1.0000 </r>
       <r>    6.3817   -0.0000 </r>
       <r>    7.0932    0.0000 </r>
       <r>    7.9810    0.0000 </r>
       <r>    8.2013    0.0000 </r>
       <r>    8.5164    0.0000 </r>
       <r>    8.8158    0.0000 </r>
       <r>    9.3307    0.0000 </r>
       <r>    9.8818    0.0000 </r>
       <r>   10.0090    0.0000 </r>
       <r>   10.5220    0.0000 </r>
       <r>   10.6931    0.0000 </r>
       <r>   10.7972    0.0000 </r>
       <r>   11.1400    0.0000 </r>
       <r>   11.4081    0.0000 </r>
       <r>   11.6132    0.0000 </r>
       <r>   11.7763    0.0000 </r>
       <r>   11.9453    0.0000 </r>
       <r>   12.5073    0.0000 </r>
       <r>   12.8252    0.0000 </r>
       <r>   13.0305    0.0000 </r>
       <r>   13.5485    0.0000 </r>
       <r>   13.6904    0.0000 </r>
       <r>   14.5477    0.0000 </r>
       <r>   15.2440    0.0000 </r>
      </set>
      <set comment="kpoint 9">
       <r>  -68.6453    1.0000 </r>
       <r>  -68.6419    1.0000 </r>
       <r>  -68.6420    1.0000 </r>
       <r>  -68.6334    1.0000 </r>
       <r>  -68.6128    1.0000 </r>
       <r>  -68.6089    1.0000 </r>
       <r>  -68.5959    1.0000 </r>
       <r>  -68.5918    1.0000 </r>
       <r>  -68.5852    1.0000 </r>
       <r>  -68.5776    1.0000 </r>
       <r>  -68.5702    1.0000 </r>
       <r>  -68.5606    1.0000 </r>
       <r>  -12.4393    1.0000 </r>
       <r>  -11.3522    1.0000 </r>
       <r>  -10.9383    1.0000 </r>
       <r>  -10.7379    1.0000 </r>
       <r>  -10.3868    1.0000 </r>
       <r>  -10.2697    1.0000 </r>
       <r>   -5.9485    1.0000 </r>
       <r>   -4.6417    1.0000 </r>
       <r>   -2.3912    1.0000 </r>
       <r>   -2.2249    1.0000 </r>
       <r>   -2.0575    1.0000 </r>
       <r>   -1.6405    1.0000 </r>
       <r>   -1.3627    1.0000 </r>
       <r>   -1.2807    1.0000 </r>
       <r>   -1.0228    1.0000 </r>
       <r>   -0.5123    1.0000 </r>
       <r>   -0.4834    1.0000 </r>
       <r>   -0.3319    1.0000 </r>
       <r>   -0.2843    1.0000 </r>
       <r>   -0.2147    1.0000 </r>
       <r>   -0.1521    1.0000 </r>
       <r>   -0.1345    1.0000 </r>
       <r>   -0.0121    1.0000 </r>
       <r>    0.1091    1.0000 </r>
       <r>    1.2458    1.0000 </r>
       <r>    1.3148    1.0000 </r>
       <r>    1.3817    1.0000 </r>
       <r>    1.4366    1.0000 </r>
       <r>    1.4616    1.0000 </r>
       <r>    1.4911    1.0000 </r>
       <r>    1.4953    1.0000 </r>
       <r>    1.5462    1.0000 </r>
       <r>    1.7486    1.0000 </r>
       <r>    1.8257    1.0000 </r>
       <r>    1.9212    1.0000 </r>
       <r>    2.1337    1.0000 </r>
       <r>    2.2203    1.0000 </r>
       <r>    2.3851    1.0000 </r>
       <r>    2.5608    1.0000 </r>
       <r>    2.7914    1.0000 </r>
       <r>    2.9798    1.0000 </r>
       <r>    3.3121    1.0000 </r>
       <r>    3.6064    1.0000 </r>
       <r>    3.7502    1.0000 </r>
       <r>    6.0839   -0.0000 </r>
       <r>    6.9355   -0.0000 </r>
       <r>    7.6103    0.0000 </r>
       <r>    8.0681    0.0000 </r>
       <r>    8.4109    0.0000 </r>
       <r>    8.6171    0.0000 </r>
       <r>    8.9837    0.0000 </r>
       <r>    9.1479    0.0000 </r>
       <r>   10.0847    0.0000 </r>
       <r>   10.3355    0.0000 </r>
       <r>   10.7344    0.0000 </r>
       <r>   11.1058    0.0000 </r>
       <r>   11.4605    0.0000 </r>
       <r>   11.5842    0.0000 </r>
       <r>   11.7857    0.0000 </r>
       <r>   12.0294    0.0000 </r>
       <r>   12.5064    0.0000 </r>
       <r>   12.6697    0.0000 </r>
       <r>   12.9129    0.0000 </r>
       <r>   13.2032    0.0000 </r>
       <r>   14.2201    0.0000 </r>
       <r>   14.7180    0.0000 </r>
       <r>   15.1700    0.0000 </r>
       <r>   15.8969    0.0000 </r>
      </set>
      <set comment="kpoint 10">
       <r>  -68.6452    1.0000 </r>
       <r>  -68.6417    1.0000 </r>
       <r>  -68.6418    1.0000 </r>
       <r>  -68.6332    1.0000 </r>
       <r>  -68.6127    1.0000 </r>
       <r>  -68.6088    1.0000 </r>
       <r>  -68.5957    1.0000 </r>
       <r>  -68.5916    1.0000 </r>
       <r>  -68.5851    1.0000 </r>
       <r>  -68.5775    1.0000 </r>
       <r>  -68.5700    1.0000 </r>
       <r>  -68.5604    1.0000 </r>
       <r>  -12.4314    1.0000 </r>
       <r>  -11.4987    1.0000 </r>
       <r>  -10.9135    1.0000 </r>
       <r>  -10.6175    1.0000 </r>
       <r>  -10.3964    1.0000 </r>
       <r>  -10.1979    1.0000 </r>
       <r>   -6.0262    1.0000 </r>
       <r>   -4.8092    1.0000 </r>
       <r>   -2.3109    1.0000 </r>
       <r>   -2.2650    1.0000 </r>
       <r>   -2.0925    1.0000 </r>
       <r>   -1.7046    1.0000 </r>
       <r>   -1.2455    1.0000 </r>
       <r>   -1.1098    1.0000 </r>
       <r>   -0.8420    1.0000 </r>
       <r>   -0.7768    1.0000 </r>
       <r>   -0.7283    1.0000 </r>
       <r>   -0.2441    1.0000 </r>
       <r>   -0.2017    1.0000 </r>
       <r>   -0.1812    1.0000 </r>
       <r>   -0.1531    1.0000 </r>
       <r>   -0.0430    1.0000 </r>
       <r>   -0.0011    1.0000 </r>
       <r>    0.1781    1.0000 </r>
       <r>    1.2632    1.0000 </r>
       <r>    1.3186    1.0000 </r>
       <r>    1.3767    1.0000 </r>
       <r>    1.4110    1.0000 </r>
       <r>    1.4295    1.0000 </r>
       <r>    1.4930    1.0000 </r>
       <r>    1.5064    1.0000 </r>
       <r>    1.5506    1.0000 </r>
       <r>    1.7831    1.0000 </r>
       <r>    1.8471    1.0000 </r>
       <r>    1.9946    1.0000 </r>
       <r>    2.1499    1.0000 </r>
       <r>    2.2507    1.0000 </r>
       <r>    2.3386    1.0000 </r>
       <r>    2.5591    1.0000 </r>
       <r>    2.7617    1.0000 </r>
       <r>    2.7745    1.0000 </r>
       <r>    3.3702    1.0000 </r>
       <r>    3.7659    1.0000 </r>
       <r>    4.0109    1.0053 </r>
       <r>    5.8501   -0.0000 </r>
       <r>    6.7666   -0.0000 </r>
       <r>    7.0762    0.0000 </r>
       <r>    8.4146    0.0000 </r>
       <r>    8.5613    0.0000 </r>
       <r>    8.7744    0.0000 </r>
       <r>    9.1398    0.0000 </r>
       <r>    9.2405    0.0000 </r>
       <r>    9.9574    0.0000 </r>
       <r>   10.2867    0.0000 </r>
       <r>   10.7247    0.0000 </r>
       <r>   10.8321    0.0000 </r>
       <r>   10.8735    0.0000 </r>
       <r>   11.2742    0.0000 </r>
       <r>   11.7596    0.0000 </r>
       <r>   11.9150    0.0000 </r>
       <r>   11.9694    0.0000 </r>
       <r>   12.3694    0.0000 </r>
       <r>   12.5398    0.0000 </r>
       <r>   13.4523    0.0000 </r>
       <r>   14.2830    0.0000 </r>
       <r>   14.6707    0.0000 </r>
       <r>   16.7459    0.0000 </r>
       <r>   16.7567    0.0000 </r>
      </set>
      <set comment="kpoint 11">
       <r>  -68.6456    1.0000 </r>
       <r>  -68.6422    1.0000 </r>
       <r>  -68.6419    1.0000 </r>
       <r>  -68.6335    1.0000 </r>
       <r>  -68.6129    1.0000 </r>
       <r>  -68.6090    1.0000 </r>
       <r>  -68.5959    1.0000 </r>
       <r>  -68.5919    1.0000 </r>
       <r>  -68.5853    1.0000 </r>
       <r>  -68.5777    1.0000 </r>
       <r>  -68.5703    1.0000 </r>
       <r>  -68.5608    1.0000 </r>
       <r>  -12.6164    1.0000 </r>
       <r>  -11.4237    1.0000 </r>
       <r>  -10.7777    1.0000 </r>
       <r>  -10.6090    1.0000 </r>
       <r>  -10.2473    1.0000 </r>
       <r>  -10.2353    1.0000 </r>
       <r>   -5.8323    1.0000 </r>
       <r>   -5.0461    1.0000 </r>
       <r>   -2.5997    1.0000 </r>
       <r>   -2.3709    1.0000 </r>
       <r>   -1.9611    1.0000 </r>
       <r>   -1.7729    1.0000 </r>
       <r>   -1.4450    1.0000 </r>
       <r>   -1.1264    1.0000 </r>
       <r>   -1.0676    1.0000 </r>
       <r>   -0.7728    1.0000 </r>
       <r>   -0.4713    1.0000 </r>
       <r>   -0.2935    1.0000 </r>
       <r>   -0.2385    1.0000 </r>
       <r>   -0.2367    1.0000 </r>
       <r>   -0.1912    1.0000 </r>
       <r>   -0.1483    1.0000 </r>
       <r>   -0.0228    1.0000 </r>
       <r>    0.0254    1.0000 </r>
       <r>    1.3331    1.0000 </r>
       <r>    1.3813    1.0000 </r>
       <r>    1.4169    1.0000 </r>
       <r>    1.4381    1.0000 </r>
       <r>    1.4618    1.0000 </r>
       <r>    1.4652    1.0000 </r>
       <r>    1.5141    1.0000 </r>
       <r>    1.5430    1.0000 </r>
       <r>    1.6325    1.0000 </r>
       <r>    1.7591    1.0000 </r>
       <r>    1.7867    1.0000 </r>
       <r>    1.9495    1.0000 </r>
       <r>    2.0874    1.0000 </r>
       <r>    2.6583    1.0000 </r>
       <r>    2.7209    1.0000 </r>
       <r>    3.1956    1.0000 </r>
       <r>    3.2535    1.0000 </r>
       <r>    3.5233    1.0000 </r>
       <r>    3.8971    1.0000 </r>
       <r>    3.9774    1.0014 </r>
       <r>    6.0411   -0.0000 </r>
       <r>    6.4118   -0.0000 </r>
       <r>    7.8239    0.0000 </r>
       <r>    7.9081    0.0000 </r>
       <r>    8.3627    0.0000 </r>
       <r>    8.8173    0.0000 </r>
       <r>    9.7756    0.0000 </r>
       <r>    9.7927    0.0000 </r>
       <r>   10.0608    0.0000 </r>
       <r>   10.5839    0.0000 </r>
       <r>   10.6450    0.0000 </r>
       <r>   10.8198    0.0000 </r>
       <r>   10.8576    0.0000 </r>
       <r>   11.4956    0.0000 </r>
       <r>   11.5586    0.0000 </r>
       <r>   12.0292    0.0000 </r>
       <r>   12.5750    0.0000 </r>
       <r>   12.7713    0.0000 </r>
       <r>   12.9153    0.0000 </r>
       <r>   13.2068    0.0000 </r>
       <r>   13.5356    0.0000 </r>
       <r>   13.8251    0.0000 </r>
       <r>   14.1948    0.0000 </r>
       <r>   14.7035    0.0000 </r>
      </set>
      <set comment="kpoint 12">
       <r>  -68.6455    1.0000 </r>
       <r>  -68.6422    1.0000 </r>
       <r>  -68.6419    1.0000 </r>
       <r>  -68.6334    1.0000 </r>
       <r>  -68.6130    1.0000 </r>
       <r>  -68.6091    1.0000 </r>
       <r>  -68.5959    1.0000 </r>
       <r>  -68.5918    1.0000 </r>
       <r>  -68.5853    1.0000 </r>
       <r>  -68.5777    1.0000 </r>
       <r>  -68.5703    1.0000 </r>
       <r>  -68.5607    1.0000 </r>
       <r>  -12.4574    1.0000 </r>
       <r>  -11.4654    1.0000 </r>
       <r>  -10.8631    1.0000 </r>
       <r>  -10.6890    1.0000 </r>
       <r>  -10.3727    1.0000 </r>
       <r>  -10.2424    1.0000 </r>
       <r>   -5.7682    1.0000 </r>
       <r>   -4.8042    1.0000 </r>
       <r>   -2.4443    1.0000 </r>
       <r>   -2.2324    1.0000 </r>
       <r>   -1.8489    1.0000 </r>
       <r>   -1.7141    1.0000 </r>
       <r>   -1.4302    1.0000 </r>
       <r>   -1.1887    1.0000 </r>
       <r>   -0.8917    1.0000 </r>
       <r>   -0.7471    1.0000 </r>
       <r>   -0.6048    1.0000 </r>
       <r>   -0.5224    1.0000 </r>
       <r>   -0.3117    1.0000 </r>
       <r>   -0.2454    1.0000 </r>
       <r>   -0.1762    1.0000 </r>
       <r>   -0.1213    1.0000 </r>
       <r>   -0.0584    1.0000 </r>
       <r>    0.0606    1.0000 </r>
       <r>    1.3011    1.0000 </r>
       <r>    1.3361    1.0000 </r>
       <r>    1.3699    1.0000 </r>
       <r>    1.4278    1.0000 </r>
       <r>    1.4455    1.0000 </r>
       <r>    1.4783    1.0000 </r>
       <r>    1.5201    1.0000 </r>
       <r>    1.5447    1.0000 </r>
       <r>    1.6419    1.0000 </r>
       <r>    1.8702    1.0000 </r>
       <r>    1.9755    1.0000 </r>
       <r>    2.0481    1.0000 </r>
       <r>    2.1947    1.0000 </r>
       <r>    2.4749    1.0000 </r>
       <r>    2.5969    1.0000 </r>
       <r>    2.8410    1.0000 </r>
       <r>    2.9634    1.0000 </r>
       <r>    3.1342    1.0000 </r>
       <r>    3.5698    1.0000 </r>
       <r>    3.7270    1.0000 </r>
       <r>    6.4355   -0.0000 </r>
       <r>    6.9533    0.0000 </r>
       <r>    8.1701    0.0000 </r>
       <r>    8.2447    0.0000 </r>
       <r>    8.8328    0.0000 </r>
       <r>    9.1292    0.0000 </r>
       <r>    9.4641    0.0000 </r>
       <r>    9.7968    0.0000 </r>
       <r>   10.0878    0.0000 </r>
       <r>   10.2956    0.0000 </r>
       <r>   10.7419    0.0000 </r>
       <r>   11.0770    0.0000 </r>
       <r>   11.2902    0.0000 </r>
       <r>   11.4231    0.0000 </r>
       <r>   11.6305    0.0000 </r>
       <r>   11.7275    0.0000 </r>
       <r>   12.0855    0.0000 </r>
       <r>   12.2660    0.0000 </r>
       <r>   12.5421    0.0000 </r>
       <r>   12.6666    0.0000 </r>
       <r>   12.9563    0.0000 </r>
       <r>   13.0566    0.0000 </r>
       <r>   13.6389    0.0000 </r>
       <r>   14.6897    0.0000 </r>
      </set>
      <set comment="kpoint 13">
       <r>  -68.6453    1.0000 </r>
       <r>  -68.6421    1.0000 </r>
       <r>  -68.6418    1.0000 </r>
       <r>  -68.6334    1.0000 </r>
       <r>  -68.6128    1.0000 </r>
       <r>  -68.6089    1.0000 </r>
       <r>  -68.5958    1.0000 </r>
       <r>  -68.5917    1.0000 </r>
       <r>  -68.5852    1.0000 </r>
       <r>  -68.5776    1.0000 </r>
       <r>  -68.5702    1.0000 </r>
       <r>  -68.5607    1.0000 </r>
       <r>  -12.3553    1.0000 </r>
       <r>  -11.4119    1.0000 </r>
       <r>  -10.9522    1.0000 </r>
       <r>  -10.6838    1.0000 </r>
       <r>  -10.4770    1.0000 </r>
       <r>  -10.3320    1.0000 </r>
       <r>   -5.7541    1.0000 </r>
       <r>   -4.7232    1.0000 </r>
       <r>   -2.5223    1.0000 </r>
       <r>   -2.1853    1.0000 </r>
       <r>   -1.9506    1.0000 </r>
       <r>   -1.5329    1.0000 </r>
       <r>   -1.2984    1.0000 </r>
       <r>   -1.0951    1.0000 </r>
       <r>   -0.8724    1.0000 </r>
       <r>   -0.7568    1.0000 </r>
       <r>   -0.5507    1.0000 </r>
       <r>   -0.4467    1.0000 </r>
       <r>   -0.2929    1.0000 </r>
       <r>   -0.1778    1.0000 </r>
       <r>   -0.1469    1.0000 </r>
       <r>   -0.1060    1.0000 </r>
       <r>   -0.0491    1.0000 </r>
       <r>    0.0222    1.0000 </r>
       <r>    1.2705    1.0000 </r>
       <r>    1.2963    1.0000 </r>
       <r>    1.3523    1.0000 </r>
       <r>    1.4267    1.0000 </r>
       <r>    1.4519    1.0000 </r>
       <r>    1.4802    1.0000 </r>
       <r>    1.4995    1.0000 </r>
       <r>    1.5880    1.0000 </r>
       <r>    1.7184    1.0000 </r>
       <r>    1.9311    1.0000 </r>
       <r>    2.0741    1.0000 </r>
       <r>    2.1470    1.0000 </r>
       <r>    2.2674    1.0000 </r>
       <r>    2.4019    1.0000 </r>
       <r>    2.5697    1.0000 </r>
       <r>    2.5974    1.0000 </r>
       <r>    2.8986    1.0000 </r>
       <r>    3.0114    1.0000 </r>
       <r>    3.3576    1.0000 </r>
       <r>    3.9018    1.0000 </r>
       <r>    6.3596   -0.0000 </r>
       <r>    6.8945   -0.0000 </r>
       <r>    7.5752    0.0000 </r>
       <r>    8.0841    0.0000 </r>
       <r>    8.5470    0.0000 </r>
       <r>    8.7977    0.0000 </r>
       <r>    9.2794    0.0000 </r>
       <r>    9.6231    0.0000 </r>
       <r>    9.9307    0.0000 </r>
       <r>   10.2739    0.0000 </r>
       <r>   10.6570    0.0000 </r>
       <r>   10.9290    0.0000 </r>
       <r>   10.9707    0.0000 </r>
       <r>   11.2830    0.0000 </r>
       <r>   11.5180    0.0000 </r>
       <r>   11.7879    0.0000 </r>
       <r>   12.2476    0.0000 </r>
       <r>   12.5569    0.0000 </r>
       <r>   13.0977    0.0000 </r>
       <r>   13.5182    0.0000 </r>
       <r>   14.2930    0.0000 </r>
       <r>   14.5734    0.0000 </r>
       <r>   15.1160    0.0000 </r>
       <r>   16.2689    0.0000 </r>
      </set>
      <set comment="kpoint 14">
       <r>  -68.6456    1.0000 </r>
       <r>  -68.6422    1.0000 </r>
       <r>  -68.6419    1.0000 </r>
       <r>  -68.6334    1.0000 </r>
       <r>  -68.6130    1.0000 </r>
       <r>  -68.6090    1.0000 </r>
       <r>  -68.5959    1.0000 </r>
       <r>  -68.5918    1.0000 </r>
       <r>  -68.5853    1.0000 </r>
       <r>  -68.5777    1.0000 </r>
       <r>  -68.5703    1.0000 </r>
       <r>  -68.5608    1.0000 </r>
       <r>  -12.5402    1.0000 </r>
       <r>  -11.3356    1.0000 </r>
       <r>  -10.8730    1.0000 </r>
       <r>  -10.6066    1.0000 </r>
       <r>  -10.3959    1.0000 </r>
       <r>  -10.2809    1.0000 </r>
       <r>   -5.8264    1.0000 </r>
       <r>   -4.9748    1.0000 </r>
       <r>   -2.6665    1.0000 </r>
       <r>   -2.4521    1.0000 </r>
       <r>   -2.0361    1.0000 </r>
       <r>   -1.5743    1.0000 </r>
       <r>   -1.1709    1.0000 </r>
       <r>   -0.9823    1.0000 </r>
       <r>   -0.7936    1.0000 </r>
       <r>   -0.6594    1.0000 </r>
       <r>   -0.5170    1.0000 </r>
       <r>   -0.3910    1.0000 </r>
       <r>   -0.2695    1.0000 </r>
       <r>   -0.2559    1.0000 </r>
       <r>   -0.1915    1.0000 </r>
       <r>   -0.1469    1.0000 </r>
       <r>   -0.0507    1.0000 </r>
       <r>    0.0155    1.0000 </r>
       <r>    1.2876    1.0000 </r>
       <r>    1.3097    1.0000 </r>
       <r>    1.3871    1.0000 </r>
       <r>    1.4089    1.0000 </r>
       <r>    1.4336    1.0000 </r>
       <r>    1.4562    1.0000 </r>
       <r>    1.4909    1.0000 </r>
       <r>    1.5651    1.0000 </r>
       <r>    1.6881    1.0000 </r>
       <r>    1.9164    1.0000 </r>
       <r>    1.9854    1.0000 </r>
       <r>    2.1440    1.0000 </r>
       <r>    2.3357    1.0000 </r>
       <r>    2.5638    1.0000 </r>
       <r>    2.6156    1.0000 </r>
       <r>    2.8295    1.0000 </r>
       <r>    2.9727    1.0000 </r>
       <r>    3.2476    1.0000 </r>
       <r>    3.6857    1.0000 </r>
       <r>    3.9466    1.0003 </r>
       <r>    6.1738   -0.0000 </r>
       <r>    6.6347   -0.0000 </r>
       <r>    7.7652    0.0000 </r>
       <r>    7.9719    0.0000 </r>
       <r>    8.2150    0.0000 </r>
       <r>    8.5606    0.0000 </r>
       <r>    9.3770    0.0000 </r>
       <r>    9.5771    0.0000 </r>
       <r>    9.9099    0.0000 </r>
       <r>   10.2495    0.0000 </r>
       <r>   10.5429    0.0000 </r>
       <r>   10.7891    0.0000 </r>
       <r>   10.8443    0.0000 </r>
       <r>   11.0674    0.0000 </r>
       <r>   11.5645    0.0000 </r>
       <r>   12.0199    0.0000 </r>
       <r>   12.5274    0.0000 </r>
       <r>   12.7417    0.0000 </r>
       <r>   12.9595    0.0000 </r>
       <r>   13.3140    0.0000 </r>
       <r>   13.4178    0.0000 </r>
       <r>   13.7411    0.0000 </r>
       <r>   13.8459    0.0000 </r>
       <r>   14.7274    0.0000 </r>
      </set>
      <set comment="kpoint 15">
       <r>  -68.6455    1.0000 </r>
       <r>  -68.6422    1.0000 </r>
       <r>  -68.6419    1.0000 </r>
       <r>  -68.6334    1.0000 </r>
       <r>  -68.6130    1.0000 </r>
       <r>  -68.6090    1.0000 </r>
       <r>  -68.5959    1.0000 </r>
       <r>  -68.5918    1.0000 </r>
       <r>  -68.5853    1.0000 </r>
       <r>  -68.5777    1.0000 </r>
       <r>  -68.5703    1.0000 </r>
       <r>  -68.5607    1.0000 </r>
       <r>  -12.4572    1.0000 </r>
       <r>  -11.4656    1.0000 </r>
       <r>  -10.8646    1.0000 </r>
       <r>  -10.6887    1.0000 </r>
       <r>  -10.3708    1.0000 </r>
       <r>  -10.2430    1.0000 </r>
       <r>   -5.7681    1.0000 </r>
       <r>   -4.8038    1.0000 </r>
       <r>   -2.4440    1.0000 </r>
       <r>   -2.2315    1.0000 </r>
       <r>   -1.8510    1.0000 </r>
       <r>   -1.7144    1.0000 </r>
       <r>   -1.4325    1.0000 </r>
       <r>   -1.1897    1.0000 </r>
       <r>   -0.8886    1.0000 </r>
       <r>   -0.7465    1.0000 </r>
       <r>   -0.6052    1.0000 </r>
       <r>   -0.5228    1.0000 </r>
       <r>   -0.3118    1.0000 </r>
       <r>   -0.2500    1.0000 </r>
       <r>   -0.1740    1.0000 </r>
       <r>   -0.1221    1.0000 </r>
       <r>   -0.0556    1.0000 </r>
       <r>    0.0608    1.0000 </r>
       <r>    1.3014    1.0000 </r>
       <r>    1.3344    1.0000 </r>
       <r>    1.3682    1.0000 </r>
       <r>    1.4312    1.0000 </r>
       <r>    1.4468    1.0000 </r>
       <r>    1.4796    1.0000 </r>
       <r>    1.5193    1.0000 </r>
       <r>    1.5457    1.0000 </r>
       <r>    1.6406    1.0000 </r>
       <r>    1.8706    1.0000 </r>
       <r>    1.9786    1.0000 </r>
       <r>    2.0452    1.0000 </r>
       <r>    2.1943    1.0000 </r>
       <r>    2.4762    1.0000 </r>
       <r>    2.5934    1.0000 </r>
       <r>    2.8406    1.0000 </r>
       <r>    2.9670    1.0000 </r>
       <r>    3.1350    1.0000 </r>
       <r>    3.5695    1.0000 </r>
       <r>    3.7251    1.0000 </r>
       <r>    6.4366   -0.0000 </r>
       <r>    6.9516   -0.0000 </r>
       <r>    8.1701    0.0000 </r>
       <r>    8.2466    0.0000 </r>
       <r>    8.8305    0.0000 </r>
       <r>    9.1289    0.0000 </r>
       <r>    9.4666    0.0000 </r>
       <r>    9.7891    0.0000 </r>
       <r>   10.0850    0.0000 </r>
       <r>   10.3022    0.0000 </r>
       <r>   10.7421    0.0000 </r>
       <r>   11.0768    0.0000 </r>
       <r>   11.2954    0.0000 </r>
       <r>   11.4224    0.0000 </r>
       <r>   11.6336    0.0000 </r>
       <r>   11.7282    0.0000 </r>
       <r>   12.0807    0.0000 </r>
       <r>   12.2659    0.0000 </r>
       <r>   12.5426    0.0000 </r>
       <r>   12.6598    0.0000 </r>
       <r>   12.9534    0.0000 </r>
       <r>   13.0568    0.0000 </r>
       <r>   13.6581    0.0000 </r>
       <r>   14.6971    0.0000 </r>
      </set>
      <set comment="kpoint 16">
       <r>  -68.6454    1.0000 </r>
       <r>  -68.6420    1.0000 </r>
       <r>  -68.6418    1.0000 </r>
       <r>  -68.6333    1.0000 </r>
       <r>  -68.6128    1.0000 </r>
       <r>  -68.6089    1.0000 </r>
       <r>  -68.5958    1.0000 </r>
       <r>  -68.5917    1.0000 </r>
       <r>  -68.5852    1.0000 </r>
       <r>  -68.5776    1.0000 </r>
       <r>  -68.5702    1.0000 </r>
       <r>  -68.5606    1.0000 </r>
       <r>  -12.3255    1.0000 </r>
       <r>  -11.4743    1.0000 </r>
       <r>  -10.8639    1.0000 </r>
       <r>  -10.8547    1.0000 </r>
       <r>  -10.4056    1.0000 </r>
       <r>  -10.2843    1.0000 </r>
       <r>   -5.7499    1.0000 </r>
       <r>   -4.6923    1.0000 </r>
       <r>   -2.2398    1.0000 </r>
       <r>   -2.1386    1.0000 </r>
       <r>   -1.9288    1.0000 </r>
       <r>   -1.8497    1.0000 </r>
       <r>   -1.4519    1.0000 </r>
       <r>   -1.3964    1.0000 </r>
       <r>   -1.0389    1.0000 </r>
       <r>   -0.5202    1.0000 </r>
       <r>   -0.4604    1.0000 </r>
       <r>   -0.3491    1.0000 </r>
       <r>   -0.2486    1.0000 </r>
       <r>   -0.2232    1.0000 </r>
       <r>   -0.1634    1.0000 </r>
       <r>   -0.1125    1.0000 </r>
       <r>   -0.0894    1.0000 </r>
       <r>    0.0782    1.0000 </r>
       <r>    1.2606    1.0000 </r>
       <r>    1.3472    1.0000 </r>
       <r>    1.3947    1.0000 </r>
       <r>    1.4352    1.0000 </r>
       <r>    1.4523    1.0000 </r>
       <r>    1.5089    1.0000 </r>
       <r>    1.5355    1.0000 </r>
       <r>    1.5444    1.0000 </r>
       <r>    1.7510    1.0000 </r>
       <r>    1.8173    1.0000 </r>
       <r>    2.0379    1.0000 </r>
       <r>    2.1334    1.0000 </r>
       <r>    2.2874    1.0000 </r>
       <r>    2.3087    1.0000 </r>
       <r>    2.5238    1.0000 </r>
       <r>    2.7675    1.0000 </r>
       <r>    2.9003    1.0000 </r>
       <r>    3.2644    1.0000 </r>
       <r>    3.4971    1.0000 </r>
       <r>    3.8016    1.0000 </r>
       <r>    6.1775   -0.0000 </r>
       <r>    6.8366   -0.0000 </r>
       <r>    7.8297    0.0000 </r>
       <r>    8.0450    0.0000 </r>
       <r>    8.1845    0.0000 </r>
       <r>    8.7252    0.0000 </r>
       <r>    9.1529    0.0000 </r>
       <r>    9.3020    0.0000 </r>
       <r>   10.2245    0.0000 </r>
       <r>   10.4410    0.0000 </r>
       <r>   10.5896    0.0000 </r>
       <r>   11.0077    0.0000 </r>
       <r>   11.2414    0.0000 </r>
       <r>   11.4871    0.0000 </r>
       <r>   11.8142    0.0000 </r>
       <r>   12.1708    0.0000 </r>
       <r>   12.2081    0.0000 </r>
       <r>   12.5787    0.0000 </r>
       <r>   12.6902    0.0000 </r>
       <r>   13.1106    0.0000 </r>
       <r>   13.4163    0.0000 </r>
       <r>   13.8836    0.0000 </r>
       <r>   14.0042    0.0000 </r>
       <r>   14.5214    0.0000 </r>
      </set>
      <set comment="kpoint 17">
       <r>  -68.6453    1.0000 </r>
       <r>  -68.6419    1.0000 </r>
       <r>  -68.6419    1.0000 </r>
       <r>  -68.6334    1.0000 </r>
       <r>  -68.6128    1.0000 </r>
       <r>  -68.6090    1.0000 </r>
       <r>  -68.5959    1.0000 </r>
       <r>  -68.5917    1.0000 </r>
       <r>  -68.5852    1.0000 </r>
       <r>  -68.5776    1.0000 </r>
       <r>  -68.5702    1.0000 </r>
       <r>  -68.5606    1.0000 </r>
       <r>  -12.3724    1.0000 </r>
       <r>  -11.4716    1.0000 </r>
       <r>  -10.9361    1.0000 </r>
       <r>  -10.6533    1.0000 </r>
       <r>  -10.4169    1.0000 </r>
       <r>  -10.3036    1.0000 </r>
       <r>   -5.8018    1.0000 </r>
       <r>   -4.8366    1.0000 </r>
       <r>   -2.5268    1.0000 </r>
       <r>   -2.2447    1.0000 </r>
       <r>   -1.8708    1.0000 </r>
       <r>   -1.6402    1.0000 </r>
       <r>   -1.5037    1.0000 </r>
       <r>   -1.3082    1.0000 </r>
       <r>   -0.8998    1.0000 </r>
       <r>   -0.5346    1.0000 </r>
       <r>   -0.3819    1.0000 </r>
       <r>   -0.3488    1.0000 </r>
       <r>   -0.2249    1.0000 </r>
       <r>   -0.1798    1.0000 </r>
       <r>   -0.1607    1.0000 </r>
       <r>   -0.0772    1.0000 </r>
       <r>   -0.0255    1.0000 </r>
       <r>    0.0753    1.0000 </r>
       <r>    1.1877    1.0000 </r>
       <r>    1.3619    1.0000 </r>
       <r>    1.3980    1.0000 </r>
       <r>    1.4402    1.0000 </r>
       <r>    1.4622    1.0000 </r>
       <r>    1.5070    1.0000 </r>
       <r>    1.5196    1.0000 </r>
       <r>    1.5838    1.0000 </r>
       <r>    1.7408    1.0000 </r>
       <r>    1.8168    1.0000 </r>
       <r>    2.0355    1.0000 </r>
       <r>    2.2358    1.0000 </r>
       <r>    2.2666    1.0000 </r>
       <r>    2.3624    1.0000 </r>
       <r>    2.4870    1.0000 </r>
       <r>    2.6721    1.0000 </r>
       <r>    3.0519    1.0000 </r>
       <r>    3.4107    1.0000 </r>
       <r>    3.7301    1.0000 </r>
       <r>    3.8680    1.0000 </r>
       <r>    5.9269   -0.0000 </r>
       <r>    6.6109   -0.0000 </r>
       <r>    7.3508    0.0000 </r>
       <r>    7.9451    0.0000 </r>
       <r>    8.0641    0.0000 </r>
       <r>    8.7212    0.0000 </r>
       <r>    8.9053    0.0000 </r>
       <r>    9.1363    0.0000 </r>
       <r>    9.8461    0.0000 </r>
       <r>   10.3286    0.0000 </r>
       <r>   10.5553    0.0000 </r>
       <r>   10.9281    0.0000 </r>
       <r>   11.2228    0.0000 </r>
       <r>   11.4136    0.0000 </r>
       <r>   11.7521    0.0000 </r>
       <r>   12.0022    0.0000 </r>
       <r>   12.4955    0.0000 </r>
       <r>   12.8344    0.0000 </r>
       <r>   13.2062    0.0000 </r>
       <r>   14.0866    0.0000 </r>
       <r>   14.7145    0.0000 </r>
       <r>   15.0547    0.0000 </r>
       <r>   15.9198    0.0000 </r>
       <r>   16.5698    0.0000 </r>
      </set>
      <set comment="kpoint 18">
       <r>  -68.6455    1.0000 </r>
       <r>  -68.6421    1.0000 </r>
       <r>  -68.6420    1.0000 </r>
       <r>  -68.6335    1.0000 </r>
       <r>  -68.6129    1.0000 </r>
       <r>  -68.6090    1.0000 </r>
       <r>  -68.5960    1.0000 </r>
       <r>  -68.5919    1.0000 </r>
       <r>  -68.5852    1.0000 </r>
       <r>  -68.5777    1.0000 </r>
       <r>  -68.5703    1.0000 </r>
       <r>  -68.5607    1.0000 </r>
       <r>  -12.4985    1.0000 </r>
       <r>  -11.4233    1.0000 </r>
       <r>  -10.9481    1.0000 </r>
       <r>  -10.5815    1.0000 </r>
       <r>  -10.3726    1.0000 </r>
       <r>  -10.2061    1.0000 </r>
       <r>   -5.8291    1.0000 </r>
       <r>   -4.9396    1.0000 </r>
       <r>   -2.5720    1.0000 </r>
       <r>   -2.3649    1.0000 </r>
       <r>   -1.9185    1.0000 </r>
       <r>   -1.5929    1.0000 </r>
       <r>   -1.4172    1.0000 </r>
       <r>   -1.1194    1.0000 </r>
       <r>   -0.8156    1.0000 </r>
       <r>   -0.6749    1.0000 </r>
       <r>   -0.5378    1.0000 </r>
       <r>   -0.4704    1.0000 </r>
       <r>   -0.2539    1.0000 </r>
       <r>   -0.1977    1.0000 </r>
       <r>   -0.1694    1.0000 </r>
       <r>   -0.1179    1.0000 </r>
       <r>   -0.0377    1.0000 </r>
       <r>    0.0568    1.0000 </r>
       <r>    1.2798    1.0000 </r>
       <r>    1.3237    1.0000 </r>
       <r>    1.3437    1.0000 </r>
       <r>    1.4338    1.0000 </r>
       <r>    1.4515    1.0000 </r>
       <r>    1.4682    1.0000 </r>
       <r>    1.4910    1.0000 </r>
       <r>    1.5547    1.0000 </r>
       <r>    1.7265    1.0000 </r>
       <r>    1.8431    1.0000 </r>
       <r>    1.9694    1.0000 </r>
       <r>    2.0967    1.0000 </r>
       <r>    2.3345    1.0000 </r>
       <r>    2.4491    1.0000 </r>
       <r>    2.5428    1.0000 </r>
       <r>    2.8500    1.0000 </r>
       <r>    3.0532    1.0000 </r>
       <r>    3.2638    1.0000 </r>
       <r>    3.6756    1.0000 </r>
       <r>    3.7835    1.0000 </r>
       <r>    6.2574   -0.0000 </r>
       <r>    6.7963   -0.0000 </r>
       <r>    7.8126    0.0000 </r>
       <r>    8.1356    0.0000 </r>
       <r>    8.3387    0.0000 </r>
       <r>    8.9297    0.0000 </r>
       <r>    9.3348    0.0000 </r>
[...]
       <r>   11.7030    0.0000 </r>
       <r>   11.8939    0.0000 </r>
       <r>   12.3020    0.0000 </r>
       <r>   12.6663    0.0000 </r>
       <r>   13.0123    0.0000 </r>
       <r>   13.2286    0.0000 </r>
       <r>   13.6734    0.0000 </r>
       <r>   14.0738    0.0000 </r>
       <r>   14.3953    0.0000 </r>
       <r>   16.5153    0.0000 </r>
      </set>
      <set comment="kpoint 42">
       <r>  -68.6455    1.0000 </r>
       <r>  -68.6420    1.0000 </r>
       <r>  -68.6418    1.0000 </r>
       <r>  -68.6332    1.0000 </r>
       <r>  -68.6128    1.0000 </r>
       <r>  -68.6090    1.0000 </r>
       <r>  -68.5957    1.0000 </r>
       <r>  -68.5916    1.0000 </r>
       <r>  -68.5852    1.0000 </r>
       <r>  -68.5776    1.0000 </r>
       <r>  -68.5702    1.0000 </r>
       <r>  -68.5607    1.0000 </r>
       <r>  -12.1778    1.0000 </r>
       <r>  -11.7047    1.0000 </r>
       <r>  -10.7168    1.0000 </r>
       <r>  -10.6926    1.0000 </r>
       <r>  -10.5844    1.0000 </r>
       <r>  -10.3890    1.0000 </r>
       <r>   -5.4479    1.0000 </r>
       <r>   -5.0733    1.0000 </r>
       <r>   -2.5079    1.0000 </r>
       <r>   -2.3807    1.0000 </r>
       <r>   -1.9624    1.0000 </r>
       <r>   -1.3679    1.0000 </r>
       <r>   -1.3298    1.0000 </r>
       <r>   -1.0521    1.0000 </r>
       <r>   -0.8311    1.0000 </r>
       <r>   -0.7655    1.0000 </r>
       <r>   -0.4235    1.0000 </r>
       <r>   -0.3415    1.0000 </r>
       <r>   -0.2738    1.0000 </r>
       <r>   -0.2112    1.0000 </r>
       <r>   -0.1436    1.0000 </r>
       <r>   -0.1368    1.0000 </r>
       <r>   -0.0138    1.0000 </r>
       <r>    0.0254    1.0000 </r>
       <r>    1.1714    1.0000 </r>
       <r>    1.3707    1.0000 </r>
       <r>    1.3966    1.0000 </r>
       <r>    1.4507    1.0000 </r>
       <r>    1.4551    1.0000 </r>
       <r>    1.4962    1.0000 </r>
       <r>    1.5163    1.0000 </r>
       <r>    1.5507    1.0000 </r>
       <r>    1.7439    1.0000 </r>
       <r>    1.8210    1.0000 </r>
       <r>    1.9774    1.0000 </r>
       <r>    2.2277    1.0000 </r>
       <r>    2.3960    1.0000 </r>
       <r>    2.6107    1.0000 </r>
       <r>    2.6571    1.0000 </r>
       <r>    2.9153    1.0000 </r>
       <r>    3.0682    1.0000 </r>
       <r>    3.1157    1.0000 </r>
       <r>    3.2887    1.0000 </r>
       <r>    3.5827    1.0000 </r>
       <r>    6.2865   -0.0000 </r>
       <r>    6.3747   -0.0000 </r>
       <r>    7.3546    0.0000 </r>
       <r>    7.5252    0.0000 </r>
       <r>    8.3031    0.0000 </r>
       <r>    8.3305    0.0000 </r>
       <r>    9.1079    0.0000 </r>
       <r>    9.3608    0.0000 </r>
       <r>    9.7182    0.0000 </r>
       <r>    9.9456    0.0000 </r>
       <r>   10.5233    0.0000 </r>
       <r>   10.9888    0.0000 </r>
       <r>   11.4275    0.0000 </r>
       <r>   11.5669    0.0000 </r>
       <r>   12.0108    0.0000 </r>
       <r>   12.2810    0.0000 </r>
       <r>   12.4273    0.0000 </r>
       <r>   12.4798    0.0000 </r>
       <r>   13.0389    0.0000 </r>
       <r>   13.1556    0.0000 </r>
       <r>   14.1450    0.0000 </r>
       <r>   14.4385    0.0000 </r>
       <r>   15.1658    0.0000 </r>
       <r>   15.8656    0.0000 </r>
      </set>
     </set>
    </set>
   </array>
  </eigenvalues>
  <separator name="orbital magnetization" >
   <v name="MAGDIPOLOUT">      0.00000000      0.00000000      0.00000000</v>
  </separator>
  <dos>
   <i name="efermi">      4.22335500 </i>
   <total>
    <array>
     <dimension dim="1">gridpoints</dimension>
     <dimension dim="2">spin</dimension>
     <field>energy</field>
     <field>total</field>
     <field>integrated</field>
     <set>
      <set comment="spin 1">
       <r>   -72.8301     0.0000     0.0000 </r>
       <r>   -72.5238     0.0000     0.0000 </r>
       <r>   -72.2174     0.0000     0.0000 </r>
       <r>   -71.9110     0.0000     0.0000 </r>
       <r>   -71.6046     0.0000     0.0000 </r>
       <r>   -71.2982     0.0000     0.0000 </r>
       <r>   -70.9918     0.0000     0.0000 </r>
       <r>   -70.6855     0.0000     0.0000 </r>
       <r>   -70.3791     0.0000     0.0000 </r>
       <r>   -70.0727     0.0000     0.0000 </r>
       <r>   -69.7663     0.0000     0.0000 </r>
       <r>   -69.4599    -0.0000    -0.0000 </r>
       <r>   -69.1536    -0.0000    -0.0000 </r>
       <r>   -68.8472    -0.2209    -0.0677 </r>
       <r>   -68.5408    70.8401    21.6364 </r>
       <r>   -68.2344     7.7150    24.0001 </r>
       <r>   -67.9280    -0.0003    24.0000 </r>
       <r>   -67.6217     0.0000    24.0000 </r>
       <r>   -67.3153     0.0000    24.0000 </r>
       <r>   -67.0089     0.0000    24.0000 </r>
       <r>   -66.7025     0.0000    24.0000 </r>
       <r>   -66.3961     0.0000    24.0000 </r>
       <r>   -66.0898     0.0000    24.0000 </r>
       <r>   -65.7834     0.0000    24.0000 </r>
       <r>   -65.4770     0.0000    24.0000 </r>
       <r>   -65.1706     0.0000    24.0000 </r>
       <r>   -64.8642     0.0000    24.0000 </r>
       <r>   -64.5578     0.0000    24.0000 </r>
       <r>   -64.2515     0.0000    24.0000 </r>
       <r>   -63.9451     0.0000    24.0000 </r>
       <r>   -63.6387     0.0000    24.0000 </r>
       <r>   -63.3323     0.0000    24.0000 </r>
       <r>   -63.0259     0.0000    24.0000 </r>
       <r>   -62.7196     0.0000    24.0000 </r>
       <r>   -62.4132     0.0000    24.0000 </r>
       <r>   -62.1068     0.0000    24.0000 </r>
       <r>   -61.8004     0.0000    24.0000 </r>
       <r>   -61.4940     0.0000    24.0000 </r>
       <r>   -61.1877     0.0000    24.0000 </r>
       <r>   -60.8813     0.0000    24.0000 </r>
       <r>   -60.5749     0.0000    24.0000 </r>
       <r>   -60.2685     0.0000    24.0000 </r>
       <r>   -59.9621     0.0000    24.0000 </r>
       <r>   -59.6557     0.0000    24.0000 </r>
       <r>   -59.3494     0.0000    24.0000 </r>
       <r>   -59.0430     0.0000    24.0000 </r>
       <r>   -58.7366     0.0000    24.0000 </r>
       <r>   -58.4302     0.0000    24.0000 </r>
       <r>   -58.1238     0.0000    24.0000 </r>
       <r>   -57.8175     0.0000    24.0000 </r>
       <r>   -57.5111     0.0000    24.0000 </r>
       <r>   -57.2047     0.0000    24.0000 </r>
       <r>   -56.8983     0.0000    24.0000 </r>
       <r>   -56.5919     0.0000    24.0000 </r>
       <r>   -56.2856     0.0000    24.0000 </r>
       <r>   -55.9792     0.0000    24.0000 </r>
       <r>   -55.6728     0.0000    24.0000 </r>
       <r>   -55.3664     0.0000    24.0000 </r>
       <r>   -55.0600     0.0000    24.0000 </r>
       <r>   -54.7537     0.0000    24.0000 </r>
       <r>   -54.4473     0.0000    24.0000 </r>
       <r>   -54.1409     0.0000    24.0000 </r>
       <r>   -53.8345     0.0000    24.0000 </r>
       <r>   -53.5281     0.0000    24.0000 </r>
       <r>   -53.2217     0.0000    24.0000 </r>
       <r>   -52.9154     0.0000    24.0000 </r>
       <r>   -52.6090     0.0000    24.0000 </r>
       <r>   -52.3026     0.0000    24.0000 </r>
       <r>   -51.9962     0.0000    24.0000 </r>
       <r>   -51.6898     0.0000    24.0000 </r>
       <r>   -51.3835     0.0000    24.0000 </r>
       <r>   -51.0771     0.0000    24.0000 </r>
       <r>   -50.7707     0.0000    24.0000 </r>
       <r>   -50.4643     0.0000    24.0000 </r>
       <r>   -50.1579     0.0000    24.0000 </r>
       <r>   -49.8516     0.0000    24.0000 </r>
       <r>   -49.5452     0.0000    24.0000 </r>
       <r>   -49.2388     0.0000    24.0000 </r>
       <r>   -48.9324     0.0000    24.0000 </r>
       <r>   -48.6260     0.0000    24.0000 </r>
       <r>   -48.3197     0.0000    24.0000 </r>
       <r>   -48.0133     0.0000    24.0000 </r>
       <r>   -47.7069     0.0000    24.0000 </r>
       <r>   -47.4005     0.0000    24.0000 </r>
       <r>   -47.0941     0.0000    24.0000 </r>
       <r>   -46.7877     0.0000    24.0000 </r>
       <r>   -46.4814     0.0000    24.0000 </r>
       <r>   -46.1750     0.0000    24.0000 </r>
       <r>   -45.8686     0.0000    24.0000 </r>
       <r>   -45.5622     0.0000    24.0000 </r>
       <r>   -45.2558     0.0000    24.0000 </r>
       <r>   -44.9495     0.0000    24.0000 </r>
       <r>   -44.6431     0.0000    24.0000 </r>
       <r>   -44.3367     0.0000    24.0000 </r>
       <r>   -44.0303     0.0000    24.0000 </r>
       <r>   -43.7239     0.0000    24.0000 </r>
       <r>   -43.4176     0.0000    24.0000 </r>
       <r>   -43.1112     0.0000    24.0000 </r>
       <r>   -42.8048     0.0000    24.0000 </r>
       <r>   -42.4984     0.0000    24.0000 </r>
       <r>   -42.1920     0.0000    24.0000 </r>
       <r>   -41.8856     0.0000    24.0000 </r>
       <r>   -41.5793     0.0000    24.0000 </r>
       <r>   -41.2729     0.0000    24.0000 </r>
       <r>   -40.9665     0.0000    24.0000 </r>
       <r>   -40.6601     0.0000    24.0000 </r>
       <r>   -40.3537     0.0000    24.0000 </r>
       <r>   -40.0474     0.0000    24.0000 </r>
       <r>   -39.7410     0.0000    24.0000 </r>
       <r>   -39.4346     0.0000    24.0000 </r>
       <r>   -39.1282     0.0000    24.0000 </r>
       <r>   -38.8218     0.0000    24.0000 </r>
       <r>   -38.5155     0.0000    24.0000 </r>
       <r>   -38.2091     0.0000    24.0000 </r>
       <r>   -37.9027     0.0000    24.0000 </r>
       <r>   -37.5963     0.0000    24.0000 </r>
       <r>   -37.2899     0.0000    24.0000 </r>
       <r>   -36.9836     0.0000    24.0000 </r>
       <r>   -36.6772     0.0000    24.0000 </r>
       <r>   -36.3708     0.0000    24.0000 </r>
       <r>   -36.0644     0.0000    24.0000 </r>
       <r>   -35.7580     0.0000    24.0000 </r>
       <r>   -35.4516     0.0000    24.0000 </r>
       <r>   -35.1453     0.0000    24.0000 </r>
       <r>   -34.8389     0.0000    24.0000 </r>
       <r>   -34.5325     0.0000    24.0000 </r>
       <r>   -34.2261     0.0000    24.0000 </r>
       <r>   -33.9197     0.0000    24.0000 </r>
       <r>   -33.6134     0.0000    24.0000 </r>
       <r>   -33.3070     0.0000    24.0000 </r>
       <r>   -33.0006     0.0000    24.0000 </r>
       <r>   -32.6942     0.0000    24.0000 </r>
       <r>   -32.3878     0.0000    24.0000 </r>
       <r>   -32.0815     0.0000    24.0000 </r>
       <r>   -31.7751     0.0000    24.0000 </r>
       <r>   -31.4687     0.0000    24.0000 </r>
       <r>   -31.1623     0.0000    24.0000 </r>
       <r>   -30.8559     0.0000    24.0000 </r>
       <r>   -30.5496     0.0000    24.0000 </r>
       <r>   -30.2432     0.0000    24.0000 </r>
       <r>   -29.9368     0.0000    24.0000 </r>
       <r>   -29.6304     0.0000    24.0000 </r>
       <r>   -29.3240     0.0000    24.0000 </r>
       <r>   -29.0176     0.0000    24.0000 </r>
       <r>   -28.7113     0.0000    24.0000 </r>
       <r>   -28.4049     0.0000    24.0000 </r>
       <r>   -28.0985     0.0000    24.0000 </r>
       <r>   -27.7921     0.0000    24.0000 </r>
       <r>   -27.4857     0.0000    24.0000 </r>
       <r>   -27.1794     0.0000    24.0000 </r>
       <r>   -26.8730     0.0000    24.0000 </r>
       <r>   -26.5666     0.0000    24.0000 </r>
       <r>   -26.2602     0.0000    24.0000 </r>
       <r>   -25.9538     0.0000    24.0000 </r>
       <r>   -25.6475     0.0000    24.0000 </r>
       <r>   -25.3411     0.0000    24.0000 </r>
       <r>   -25.0347     0.0000    24.0000 </r>
       <r>   -24.7283     0.0000    24.0000 </r>
       <r>   -24.4219     0.0000    24.0000 </r>
       <r>   -24.1155     0.0000    24.0000 </r>
       <r>   -23.8092     0.0000    24.0000 </r>
       <r>   -23.5028     0.0000    24.0000 </r>
       <r>   -23.1964     0.0000    24.0000 </r>
       <r>   -22.8900     0.0000    24.0000 </r>
       <r>   -22.5836     0.0000    24.0000 </r>
       <r>   -22.2773     0.0000    24.0000 </r>
       <r>   -21.9709     0.0000    24.0000 </r>
       <r>   -21.6645     0.0000    24.0000 </r>
       <r>   -21.3581     0.0000    24.0000 </r>
       <r>   -21.0517     0.0000    24.0000 </r>
       <r>   -20.7454     0.0000    24.0000 </r>
       <r>   -20.4390     0.0000    24.0000 </r>
       <r>   -20.1326     0.0000    24.0000 </r>
       <r>   -19.8262     0.0000    24.0000 </r>
       <r>   -19.5198     0.0000    24.0000 </r>
       <r>   -19.2135     0.0000    24.0000 </r>
       <r>   -18.9071     0.0000    24.0000 </r>
       <r>   -18.6007     0.0000    24.0000 </r>
       <r>   -18.2943     0.0000    24.0000 </r>
       <r>   -17.9879     0.0000    24.0000 </r>
       <r>   -17.6815     0.0000    24.0000 </r>
       <r>   -17.3752     0.0000    24.0000 </r>
       <r>   -17.0688     0.0000    24.0000 </r>
       <r>   -16.7624     0.0000    24.0000 </r>
       <r>   -16.4560     0.0000    24.0000 </r>
       <r>   -16.1496     0.0000    24.0000 </r>
       <r>   -15.8433     0.0000    24.0000 </r>
       <r>   -15.5369     0.0000    24.0000 </r>
       <r>   -15.2305     0.0000    24.0000 </r>
       <r>   -14.9241     0.0000    24.0000 </r>
       <r>   -14.6177     0.0000    24.0000 </r>
       <r>   -14.3114     0.0000    24.0000 </r>
       <r>   -14.0050     0.0000    24.0000 </r>
       <r>   -13.6986    -0.0000    24.0000 </r>
       <r>   -13.3922    -0.0000    24.0000 </r>
       <r>   -13.0858    -0.0000    24.0000 </r>
       <r>   -12.7795    -0.0040    23.9988 </r>
       <r>   -12.4731     1.5328    24.4684 </r>
       <r>   -12.1667     3.5709    25.5624 </r>
       <r>   -11.8603     1.9115    26.1481 </r>
       <r>   -11.5539     2.1526    26.8076 </r>
       <r>   -11.2475     3.1871    27.7841 </r>
       <r>   -10.9412     2.5420    28.5629 </r>
       <r>   -10.6348     9.3000    31.4122 </r>
       <r>   -10.3284     9.2906    34.2587 </r>
       <r>   -10.0220     5.7027    36.0059 </r>
       <r>    -9.7156    -0.0192    36.0000 </r>
       <r>    -9.4093    -0.0000    36.0000 </r>
       <r>    -9.1029     0.0000    36.0000 </r>
       <r>    -8.7965     0.0000    36.0000 </r>
       <r>    -8.4901     0.0000    36.0000 </r>
       <r>    -8.1837     0.0000    36.0000 </r>
       <r>    -7.8774     0.0000    36.0000 </r>
       <r>    -7.5710     0.0000    36.0000 </r>
       <r>    -7.2646     0.0000    36.0000 </r>
       <r>    -6.9582    -0.0000    36.0000 </r>
       <r>    -6.6518    -0.0000    36.0000 </r>
       <r>    -6.3454    -0.0000    36.0000 </r>
       <r>    -6.0391     0.0583    36.0179 </r>
       <r>    -5.7327     3.5104    37.0934 </r>
       <r>    -5.4263     2.0542    37.7227 </r>
       <r>    -5.1199     1.8609    38.2929 </r>
       <r>    -4.8135     3.2898    39.3008 </r>
       <r>    -4.5072     2.2167    39.9800 </r>
       <r>    -4.2008     0.0654    40.0000 </r>
       <r>    -3.8944    -0.0000    40.0000 </r>
       <r>    -3.5880    -0.0000    40.0000 </r>
       <r>    -3.2816    -0.0000    40.0000 </r>
       <r>    -2.9753    -0.0004    39.9999 </r>
       <r>    -2.6689     0.3762    40.1151 </r>
       <r>    -2.3625     6.1357    41.9950 </r>
       <r>    -2.0561     6.6964    44.0467 </r>
       <r>    -1.7497     7.3600    46.3016 </r>
       <r>    -1.4434     6.4134    48.2666 </r>
       <r>    -1.1370     8.7078    50.9345 </r>
       <r>    -0.8306     9.1174    53.7279 </r>
       <r>    -0.5242    11.3897    57.2175 </r>
       <r>    -0.2178    18.2859    62.8199 </r>
       <r>     0.0886    28.8750    71.6667 </r>
       <r>     0.3949     1.0884    72.0002 </r>
       <r>     0.7013    -0.0005    72.0000 </r>
       <r>     1.0077    -0.0211    71.9935 </r>
       <r>     1.3141     7.5021    74.2920 </r>
       <r>     1.6205    44.7909    88.0151 </r>
       <r>     1.9268    13.7998    92.2431 </r>
       <r>     2.2332    13.1330    96.2668 </r>
       <r>     2.5396    12.8325   100.1985 </r>
       <r>     2.8460    11.1721   103.6214 </r>
       <r>     3.1524     9.0666   106.3992 </r>
       <r>     3.4587     7.9054   108.8213 </r>
       <r>     3.7651     6.9336   110.9456 </r>
       <r>     4.0715     3.1836   111.9210 </r>
       <r>     4.3779     0.2585   112.0002 </r>
       <r>     4.6843    -0.0006   112.0000 </r>
       <r>     4.9907    -0.0000   112.0000 </r>
       <r>     5.2970    -0.0002   112.0000 </r>
       <r>     5.6034     0.0780   112.0238 </r>
       <r>     5.9098     0.1821   112.0796 </r>
       <r>     6.2162     2.6726   112.8985 </r>
       <r>     6.5226     4.3971   114.2457 </r>
       <r>     6.8289     3.4051   115.2889 </r>
       <r>     7.1353     2.3929   116.0221 </r>
       <r>     7.4417     1.4413   116.4636 </r>
       <r>     7.7481     3.1721   117.4355 </r>
       <r>     8.0545     5.5771   119.1442 </r>
       <r>     8.3608     5.5653   120.8493 </r>
       <r>     8.6672     4.6036   122.2598 </r>
       <r>     8.9736     4.4270   123.6161 </r>
       <r>     9.2800     5.6344   125.3424 </r>
       <r>     9.5864     5.6732   127.0806 </r>
       <r>     9.8927     4.7860   128.5469 </r>
       <r>    10.1991     4.4447   129.9087 </r>
       <r>    10.5055     6.5128   131.9041 </r>
       <r>    10.8119     8.2287   134.4252 </r>
       <r>    11.1183     8.2972   136.9673 </r>
       <r>    11.4247     7.9543   139.4043 </r>
       <r>    11.7310     7.9124   141.8285 </r>
       <r>    12.0374     6.5823   143.8452 </r>
       <r>    12.3438     5.8941   145.6511 </r>
       <r>    12.6502     6.5791   147.6668 </r>
       <r>    12.9566     5.8113   149.4473 </r>
       <r>    13.2629     6.2342   151.3573 </r>
       <r>    13.5693     5.3788   153.0053 </r>
       <r>    13.8757     4.0025   154.2316 </r>
       <r>    14.1821     3.2757   155.2352 </r>
       <r>    14.4885     4.4929   156.6117 </r>
       <r>    14.7948     3.5275   157.6925 </r>
       <r>    15.1012     1.5156   158.1568 </r>
       <r>    15.4076     1.4419   158.5986 </r>
       <r>    15.7140     1.2231   158.9733 </r>
       <r>    16.0204     1.6875   159.4904 </r>
       <r>    16.3267     0.3345   159.5928 </r>
       <r>    16.6331     0.6856   159.8029 </r>
       <r>    16.9395     0.5259   159.9640 </r>
       <r>    17.2459     0.1175   160.0000 </r>
       <r>    17.5523    -0.0000   160.0000 </r>
       <r>    17.8587     0.0000   160.0000 </r>
       <r>    18.1650     0.0000   160.0000 </r>
       <r>    18.4714     0.0000   160.0000 </r>
       <r>    18.7778     0.0000   160.0000 </r>
       <r>    19.0842     0.0000   160.0000 </r>
      </set>
     </set>
    </array>
   </total>
  </dos>
 </calculation>
 <structure name="finalpos" >
  <crystal>
   <varray name="basis" >
    <v>       3.22479600      -5.64383000       0.03157200 </v>
    <v>       3.22479600       5.64383000       0.03157200 </v>
    <v>      -2.10194600       0.00000000       6.07553700 </v>
   </varray>
   <i name="volume">    221.90106089 </i>
   <varray name="rec_basis" >
    <v>       0.15452516      -0.08859232       0.05346088 </v>
    <v>       0.15452516       0.08859232       0.05346088 </v>
    <v>      -0.00160600       0.00000000       0.16403888 </v>
   </varray>
  </crystal>
  <varray name="positions" >
   <v>       0.61844300       0.12117100       0.11953300 </v>
   <v>       0.12117100       0.61844300       0.61953300 </v>
   <v>       0.96295700       0.79032200       0.11881300 </v>
   <v>       0.79032200       0.96295700       0.61881300 </v>
   <v>       0.43973200       0.26728100       0.59904700 </v>
   <v>       0.26728100       0.43973200       0.09904700 </v>
   <v>       0.07949800       0.91167500       0.49736300 </v>
   <v>       0.57140300       0.41236400       0.98018400 </v>
   <v>       0.73711100       0.24852360       0.49504900 </v>
   <v>       0.41236400       0.57140300       0.48018400 </v>
   <v>       0.91167500       0.07949800       0.99736300 </v>
   <v>       0.25006200       0.73711100       0.99504900 </v>
  </varray>
 </structure>
</modeling>
