   12   12    1    1
  0.1849176E+02  0.6500240E-09  0.6500240E-09  0.6428867E-09  0.5000000E-15
  1.000000000000000E-004
  CAR 
 CGS                                     
  112   42   80
 
  0.0000000E+00  0.0000000E+00  0.0000000E+00  0.1250000E-01
   1      -68.645198
   2      -68.638728
   3      -68.635393
   4      -68.633697
   5      -68.613092
   6      -68.604669
   7      -68.595744
   8      -68.585928
   9      -68.582706
  10      -68.577999
  11      -68.564840
  12      -68.561138
  13      -12.724203
  14      -11.132783
  15      -10.914305
  16      -10.605329
  17      -10.251176
  18      -10.235168
  19       -5.990157
  20       -4.982983
  21       -2.761424
  22       -2.207702
  23       -2.068586
  24       -1.924742
  25       -1.579224
  26       -0.981489
  27       -0.947435
  28       -0.681537
  29       -0.403212
  30       -0.275062
  31       -0.258371
  32       -0.234175
  33       -0.187062
  34       -0.155731
  35       -0.040009
  36        0.033225
  37        1.351586
  38        1.363662
  39        1.414985
  40        1.456520
  41        1.470740
  42        1.473798
  43        1.522635
  44        1.532675
  45        1.576242
  46        1.711448
  47        1.893110
  48        1.929919
  49        2.059038
  50        2.651282
  51        2.729665
  52        3.091311
  53        3.216484
  54        4.005113
  55        4.037772
  56        4.169845
  57        5.539455
  58        6.360085
  59        7.626946
  60        7.983168
  61        8.625617
  62        8.792015
  63        9.569343
  64        9.735307
  65        9.824779
  66       10.422584
  67       10.573663
  68       10.696000
  69       10.713394
  70       11.287736
  71       11.703186
  72       12.389700
  73       12.459855
  74       12.733862
  75       13.318953
  76       13.377374
  77       13.832384
  78       13.883901
  79       14.143914
  80       14.179447
 
  0.2500000E+00  0.7372575E-17  0.1387779E-16  0.2500000E-01
   1      -68.645152
   2      -68.638701
   3      -68.635370
   4      -68.633657
   5      -68.612982
   6      -68.604565
   7      -68.595772
   8      -68.585928
   9      -68.582639
  10      -68.577946
  11      -68.564805
  12      -68.561103
  13      -12.599444
  14      -11.127613
  15      -10.983515
  16      -10.678263
  17      -10.365797
  18      -10.278051
  19       -5.938379
  20       -4.770793
  21       -2.645288
  22       -2.251344
  23       -2.086062
  24       -1.692979
  25       -1.347019
  26       -0.997612
  27       -0.763800
  28       -0.622966
  29       -0.553872
  30       -0.440614
  31       -0.359970
  32       -0.237830
  33       -0.192474
  34       -0.164751
  35       -0.046764
  36        0.041229
  37        1.280630
  38        1.335464
  39        1.354614
  40        1.393434
  41        1.429651
  42        1.472965
  43        1.498640
  44        1.529982
  45        1.726619
  46        1.859101
  47        2.056671
  48        2.094913
  49        2.231350
  50        2.413213
  51        2.556370
  52        2.825835
  53        2.947732
  54        3.243431
  55        3.661852
  56        4.038100
  57        6.171827
  58        6.910263
  59        8.132311
  60        8.269963
  61        8.598329
  62        9.014614
  63        9.238635
  64        9.538460
  65        9.861142
  66       10.375047
  67       10.629896
  68       10.813239
  69       10.938678
  70       11.194814
  71       11.660628
  72       11.770812
  73       12.116398
  74       12.440021
  75       12.617096
  76       13.006987
  77       13.506629
  78       13.873287
  79       14.211372
  80       14.708439
 
  0.5000000E+00  0.1474515E-16  0.2775558E-16  0.1250000E-01
   1      -68.645037
   2      -68.638619
   3      -68.635204
   4      -68.633574
   5      -68.612929
   6      -68.604552
   7      -68.595686
   8      -68.585865
   9      -68.582587
  10      -68.577934
  11      -68.564686
  12      -68.560933
  13      -12.440513
  14      -11.247725
  15      -10.959473
  16      -10.766142
  17      -10.426160
  18      -10.359023
  19       -5.875954
  20       -4.543675
  21       -2.492935
  22       -2.243660
  23       -1.946610
  24       -1.466911
  25       -1.227567
  26       -1.103856
  27       -0.903334
  28       -0.864211
  29       -0.597256
  30       -0.535360
  31       -0.270566
  32       -0.205290
  33       -0.201120
  34       -0.140025
  35       -0.030718
  36        0.083194
  37        1.255525
  38        1.327390
  39        1.348899
  40        1.400382
  41        1.470923
  42        1.478453
  43        1.501376
  44        1.552996
  45        1.752939
  46        1.788887
  47        1.967291
  48        2.147378
  49        2.321095
  50        2.362486
  51        2.556519
  52        2.671046
  53        2.940724
  54        3.077671
  55        3.250146
  56        3.861212
  57        6.386220
  58        7.102340
  59        7.979450
  60        8.201269
  61        8.516566
  62        8.822244
  63        9.338778
  64        9.889713
  65       10.006926
  66       10.510146
  67       10.700012
  68       10.790207
  69       11.144343
  70       11.404583
  71       11.609957
  72       11.776036
  73       11.945033
  74       12.504236
  75       12.774920
  76       13.002579
  77       13.392995
  78       13.542415
  79       13.937121
  80       14.269717
 
  0.7372575E-17  0.2500000E+00  0.1387779E-16  0.2500000E-01
   1      -68.645174
   2      -68.638686
   3      -68.635344
   4      -68.633672
   5      -68.612986
   6      -68.604560
   7      -68.595745
   8      -68.585960
   9      -68.582652
  10      -68.577931
  11      -68.564806
  12      -68.561104
  13      -12.599474
  14      -11.129503
  15      -10.980901
  16      -10.678933
  17      -10.366255
  18      -10.277475
  19       -5.938362
  20       -4.771497
  21       -2.647064
  22       -2.252177
  23       -2.086088
  24       -1.687673
  25       -1.348283
  26       -0.994918
  27       -0.768477
  28       -0.621033
  29       -0.551539
  30       -0.439853
  31       -0.357922
  32       -0.240825
  33       -0.193977
  34       -0.168288
  35       -0.044702
  36        0.041873
  37        1.280189
  38        1.335225
  39        1.355432
  40        1.393503
  41        1.428686
  42        1.473193
  43        1.498623
  44        1.531412
  45        1.724591
  46        1.860969
  47        2.056482
  48        2.092923
  49        2.232227
  50        2.413926
  51        2.557478
  52        2.825572
  53        2.945682
  54        3.242887
  55        3.662003
  56        4.038513
  57        6.171694
  58        6.910777
  59        8.141911
  60        8.265346
  61        8.592151
  62        9.017574
  63        9.235512
  64        9.535148
  65        9.864928
  66       10.373103
  67       10.634709
  68       10.815526
  69       10.937494
  70       11.189436
  71       11.657759
  72       11.771163
  73       12.118555
  74       12.440045
  75       12.616750
  76       13.011696
  77       13.520091
  78       13.899882
  79       14.273270
  80       14.834030
 
  0.2500000E+00  0.2500000E+00  0.0000000E+00  0.2500000E-01
   1      -68.645175
   2      -68.638586
   3      -68.635373
   4      -68.633554
   5      -68.613118
   6      -68.604696
   7      -68.595648
   8      -68.585835
   9      -68.582769
  10      -68.578062
  11      -68.564823
  12      -68.561121
  13      -12.444345
  14      -11.189565
  15      -10.944897
  16      -10.879899
  17      -10.390949
  18      -10.350208
  19       -5.881020
  20       -4.518059
  21       -2.418605
  22       -2.244940
  23       -1.792679
  24       -1.681197
  25       -1.353530
  26       -1.299975
  27       -1.082613
  28       -0.683373
  29       -0.526978
  30       -0.295702
  31       -0.280912
  32       -0.222629
  33       -0.186000
  34       -0.123195
  35       -0.092230
  36        0.083273
  37        1.294288
  38        1.312136
  39        1.416184
  40        1.428214
  41        1.465585
  42        1.483082
  43        1.495091
  44        1.569565
  45        1.670646
  46        1.879637
  47        1.939676
  48        2.134225
  49        2.278740
  50        2.320556
  51        2.560669
  52        2.653097
  53        2.902561
  54        2.947125
  55        3.697710
  56        3.830506
  57        6.174435
  58        6.997657
  59        8.002953
  60        8.326862
  61        8.433345
  62        8.568904
  63        9.152279
  64        9.246827
  65       10.363008
  66       10.494059
  67       10.918453
  68       11.183170
  69       11.331366
  70       11.559639
  71       11.812854
  72       11.960180
  73       12.313198
  74       12.502818
  75       12.711689
  76       12.912364
  77       13.335722
  78       13.447813
  79       14.252951
  80       14.366464
 
  0.5000000E+00  0.2500000E+00 -0.2775558E-16  0.2500000E-01
   1      -68.644952
   2      -68.638488
   3      -68.635302
   4      -68.633654
   5      -68.612891
   6      -68.604451
   7      -68.595711
   8      -68.585872
   9      -68.582534
  10      -68.577908
  11      -68.564689
  12      -68.560969
  13      -12.445169
  14      -11.352400
  15      -10.940500
  16      -10.739029
  17      -10.388913
  18      -10.271598
  19       -5.952528
  20       -4.641143
  21       -2.391163
  22       -2.223286
  23       -2.056847
  24       -1.644371
  25       -1.363547
  26       -1.282058
  27       -1.023110
  28       -0.510593
  29       -0.483743
  30       -0.329334
  31       -0.283113
  32       -0.210821
  33       -0.148717
  34       -0.133224
  35       -0.009821
  36        0.113893
  37        1.248206
  38        1.317466
  39        1.382610
  40        1.438259
  41        1.463871
  42        1.492804
  43        1.497835
  44        1.548938
  45        1.749095
  46        1.829392
  47        1.922731
  48        2.132948
  49        2.221233
  50        2.386121
  51        2.561834
  52        2.791711
  53        2.977685
  54        3.310851
  55        3.603737
  56        3.747447
  57        6.088079
  58        6.943747
  59        7.609868
  60        8.066933
  61        8.413026
  62        8.615552
  63        8.987168
  64        9.150422
  65       10.090426
  66       10.333319
  67       10.735956
  68       11.105914
  69       11.454514
  70       11.593926
  71       11.798140
  72       12.081517
  73       12.481395
  74       12.923408
  75       13.028589
  76       13.828256
  77       14.195803
  78       14.651978
  79       15.437393
  80       15.646787
 
 -0.2500000E+00  0.2500000E+00  0.0000000E+00  0.2500000E-01
   1      -68.645164
   2      -68.638665
   3      -68.635359
   4      -68.633637
   5      -68.612917
   6      -68.604495
   7      -68.595743
   8      -68.585928
   9      -68.582596
  10      -68.577886
  11      -68.564807
  12      -68.561105
  13      -12.602697
  14      -11.251309
  15      -10.992707
  16      -10.571004
  17      -10.366683
  18      -10.180235
  19       -6.014987
  20       -4.895171
  21       -2.647269
  22       -2.311544
  23       -1.972321
  24       -1.647515
  25       -1.495879
  26       -1.184985
  27       -0.786655
  28       -0.585329
  29       -0.444971
  30       -0.329635
  31       -0.292816
  32       -0.231559
  33       -0.175420
  34       -0.129062
  35       -0.008343
  36        0.071352
  37        1.260612
  38        1.321584
  39        1.367670
  40        1.422684
  41        1.431123
  42        1.476460
  43        1.503887
  44        1.546437
  45        1.726496
  46        1.812868
  47        1.995685
  48        2.072645
  49        2.416564
  50        2.463666
  51        2.527812
  52        2.872992
  53        3.142617
  54        3.227158
  55        3.784427
  56        4.068631
  57        5.977407
  58        6.687920
  59        7.538531
  60        8.218311
  61        8.621211
  62        8.919561
  63        9.305657
  64        9.433771
  65        9.800579
  66       10.269786
  67       10.534607
  68       10.828683
  69       10.977728
  70       11.378746
  71       11.469450
  72       11.737519
  73       12.103881
  74       12.663892
  75       12.942342
  76       13.107875
  77       13.350995
  78       13.520621
  79       14.472938
  80       14.754263
 
  0.1474515E-16  0.5000000E+00  0.2775558E-16  0.1250000E-01
   1      -68.645002
   2      -68.638596
   3      -68.635240
   4      -68.633591
   5      -68.612972
   6      -68.604506
   7      -68.595680
   8      -68.585873
   9      -68.582640
  10      -68.577874
  11      -68.564638
  12      -68.560995
  13      -12.440590
  14      -11.248676
  15      -10.958197
  16      -10.766147
  17      -10.427774
  18      -10.357347
  19       -5.875997
  20       -4.545436
  21       -2.496142
  22       -2.245209
  23       -1.943658
  24       -1.463634
  25       -1.223600
  26       -1.102170
  27       -0.899675
  28       -0.864577
  29       -0.600868
  30       -0.536824
  31       -0.272090
  32       -0.208209
  33       -0.200871
  34       -0.142744
  35       -0.027220
  36        0.084384
  37        1.254834
  38        1.329107
  39        1.349157
  40        1.397602
  41        1.472983
  42        1.478408
  43        1.501193
  44        1.554237
  45        1.751973
  46        1.791920
  47        1.967925
  48        2.146374
  49        2.318144
  50        2.361533
  51        2.555783
  52        2.671852
  53        2.936354
  54        3.078622
  55        3.250609
  56        3.860739
  57        6.386115
  58        7.104301
  59        7.980659
  60        8.209512
  61        8.518825
  62        8.819954
  63        9.331521
  64        9.885560
  65       10.010023
  66       10.518509
  67       10.687387
  68       10.786391
  69       11.144890
  70       11.407309
  71       11.608779
  72       11.774559
  73       11.939782
  74       12.511808
  75       12.819989
  76       13.033765
  77       13.547521
  78       13.686476
  79       14.548730
  80       15.250555
 
  0.2500000E+00  0.5000000E+00 -0.2775558E-16  0.2500000E-01
   1      -68.644949
   2      -68.638486
   3      -68.635276
   4      -68.633657
   5      -68.612912
   6      -68.604449
   7      -68.595723
   8      -68.585878
   9      -68.582569
  10      -68.577868
  11      -68.564640
  12      -68.561016
  13      -12.445213
  14      -11.352656
  15      -10.940132
  16      -10.739168
  17      -10.388419
  18      -10.271888
  19       -5.952547
  20       -4.641760
  21       -2.393489
  22       -2.225085
  23       -2.057013
  24       -1.637950
  25       -1.362348
  26       -1.282930
  27       -1.022785
  28       -0.509694
  29       -0.482475
  30       -0.331604
  31       -0.279611
  32       -0.215089
  33       -0.152242
  34       -0.132821
  35       -0.006904
  36        0.113626
  37        1.248364
  38        1.315618
  39        1.385567
  40        1.437570
  41        1.463115
  42        1.493201
  43        1.496687
  44        1.549895
  45        1.749714
  46        1.828470
  47        1.922630
  48        2.133636
  49        2.221286
  50        2.384708
  51        2.561474
  52        2.789723
  53        2.979709
  54        3.310595
  55        3.603895
  56        3.747630
  57        6.087785
  58        6.944164
  59        7.612333
  60        8.067984
  61        8.409429
  62        8.616247
  63        8.986608
  64        9.151911
  65       10.085252
  66       10.332678
  67       10.738472
  68       11.099487
  69       11.457806
  70       11.578060
  71       11.785723
  72       12.029671
  73       12.530184
  74       12.691227
  75       12.918934
  76       13.200589
  77       14.226940
  78       14.767614
  79       15.252622
  80       15.906903
 
  0.5000000E+00  0.5000000E+00  0.0000000E+00  0.1250000E-01
   1      -68.644778
   2      -68.638378
   3      -68.634956
   4      -68.633557
   5      -68.612778
   6      -68.604376
   7      -68.595509
   8      -68.585688
   9      -68.582479
  10      -68.577769
  11      -68.564474
  12      -68.560778
  13      -12.437704
  14      -11.499339
  15      -10.915942
  16      -10.618029
  17      -10.397400
  18      -10.199421
  19       -6.030940
  20       -4.811969
  21       -2.313829
  22       -2.260382
  23       -2.090769
  24       -1.703902
  25       -1.246735
  26       -1.113374
  27       -0.842106
  28       -0.781558
  29       -0.727508
  30       -0.242761
  31       -0.194587
  32       -0.178402
  33       -0.149542
  34       -0.038007
  35       -0.003184
  36        0.184098
  37        1.265352
  38        1.319659
  39        1.380209
  40        1.414226
  41        1.431524
  42        1.494363
  43        1.508891
  44        1.551944
  45        1.788742
  46        1.848614
  47        1.996855
  48        2.150523
  49        2.253446
  50        2.337974
  51        2.560721
  52        2.762830
  53        2.773891
  54        3.366572
  55        3.762612
  56        4.007071
  57        5.853216
  58        6.760903
  59        7.094688
  60        8.409780
  61        8.560398
  62        8.767333
  63        9.141985
  64        9.240336
  65        9.962490
  66       10.272497
  67       10.724863
  68       10.826747
  69       10.882851
  70       11.272751
  71       11.754294
  72       11.923788
  73       11.974262
  74       12.365017
  75       12.540852
  76       13.467965
  77       14.284007
  78       14.679258
  79       16.748204
  80       16.757766
 
 -0.2168404E-18 -0.2168404E-18  0.2000000E+00  0.2500000E-01
   1      -68.645200
   2      -68.638694
   3      -68.635393
   4      -68.633666
   5      -68.613012
   6      -68.604590
   7      -68.595767
   8      -68.585952
   9      -68.582681
  10      -68.577972
  11      -68.564842
  12      -68.561140
  13      -12.620939
  14      -11.427474
  15      -10.777290
  16      -10.610066
  17      -10.249976
  18      -10.237155
  19       -5.835648
  20       -5.046387
  21       -2.601323
  22       -2.372159
  23       -1.964662
  24       -1.773922
  25       -1.446088
  26       -1.122948
  27       -1.060341
  28       -0.771295
  29       -0.472056
  30       -0.292968
  31       -0.236921
  32       -0.231334
  33       -0.189105
  34       -0.145172
  35       -0.017973
  36        0.025081
  37        1.334607
  38        1.382632
  39        1.418638
  40        1.440644
  41        1.464238
  42        1.466149
  43        1.515485
  44        1.545060
  45        1.633221
  46        1.759966
  47        1.788247
  48        1.951094
  49        2.088220
  50        2.660307
  51        2.719052
  52        3.195140
  53        3.252227
  54        3.519833
  55        3.893623
  56        3.976369
  57        6.047982
  58        6.420807
  59        7.821222
  60        7.907781
  61        8.368631
  62        8.818961
  63        9.773954
  64        9.802367
  65       10.061075
  66       10.581153
  67       10.645559
  68       10.811337
  69       10.853442
  70       11.494063
  71       11.556739
  72       12.027592
  73       12.581135
  74       12.779247
  75       12.912459
  76       13.203279
  77       13.532128
  78       13.820999
  79       14.196609
  80       14.703797
 
  0.2500000E+00  0.1517883E-17  0.2000000E+00  0.2500000E-01
   1      -68.645136
   2      -68.638683
   3      -68.635330
   4      -68.633651
   5      -68.613057
   6      -68.604630
   7      -68.595720
   8      -68.585912
   9      -68.582694
  10      -68.577977
  11      -68.564773
  12      -68.561083
  13      -12.462196
  14      -11.467902
  15      -10.865764
  16      -10.689045
  17      -10.373634
  18      -10.245411
  19       -5.770939
  20       -4.801875
  21       -2.444472
  22       -2.233816
  23       -1.850518
  24       -1.716901
  25       -1.434291
  26       -1.188423
  27       -0.888671
  28       -0.745637
  29       -0.605299
  30       -0.522268
  31       -0.309590
  32       -0.239983
  33       -0.170814
  34       -0.121597
  35       -0.052825
  36        0.062364
  37        1.302440
  38        1.337966
  39        1.370801
  40        1.431478
  41        1.449174
  42        1.480344
  43        1.521657
  44        1.547509
  45        1.641717
  46        1.870503
  47        1.978859
  48        2.047756
  49        2.195913
  50        2.474926
  51        2.595914
  52        2.839652
  53        2.963177
  54        3.133215
  55        3.567313
  56        3.723462
  57        6.443650
  58        6.964771
  59        8.172419
  60        8.249117
  61        8.829498
  62        9.126619
  63        9.465680
  64        9.800200
  65       10.086637
  66       10.290730
  67       10.740721
  68       11.075616
  69       11.293217
  70       11.425237
  71       11.636232
  72       11.721314
  73       12.081941
  74       12.263466
  75       12.548751
  76       12.651983
  77       12.952842
  78       13.064125
  79       13.634156
  80       14.691331
 
  0.5000000E+00  0.9107298E-17  0.2000000E+00  0.2500000E-01
   1      -68.644982
   2      -68.638357
   3      -68.635357
   4      -68.633594
   5      -68.612909
   6      -68.604489
   7      -68.595628
   8      -68.585823
   9      -68.582572
  10      -68.577912
  11      -68.564716
  12      -68.561006
  13      -12.359990
  14      -11.414645
  15      -10.953440
  16      -10.686052
  17      -10.478283
  18      -10.334199
  19       -5.755819
  20       -4.718247
  21       -2.522933
  22       -2.185021
  23       -1.954794
  24       -1.538035
  25       -1.301824
  26       -1.097093
  27       -0.869195
  28       -0.755356
  29       -0.548086
  30       -0.445777
  31       -0.289244
  32       -0.177645
  33       -0.145541
  34       -0.102059
  35       -0.044075
  36        0.022648
  37        1.273112
  38        1.299240
  39        1.353725
  40        1.429553
  41        1.454308
  42        1.480528
  43        1.502591
  44        1.587243
  45        1.719580
  46        1.929899
  47        2.076179
  48        2.146794
  49        2.267217
  50        2.404105
  51        2.569543
  52        2.597161
  53        2.901217
  54        3.009552
  55        3.360579
  56        3.898450
  57        6.365198
  58        6.904049
  59        7.575448
  60        8.081760
  61        8.548058
  62        8.794629
  63        9.286911
  64        9.628546
  65        9.929529
  66       10.277320
  67       10.659753
  68       10.924324
  69       10.971238
  70       11.277531
  71       11.522473
  72       11.788359
  73       12.250467
  74       12.544849
  75       13.102616
  76       13.514299
  77       14.303137
  78       14.665034
  79       15.124545
  80       16.263167
 
 -0.2500000E+00 -0.4098284E-16  0.2000000E+00  0.2500000E-01
   1      -68.645196
   2      -68.638674
   3      -68.635378
   4      -68.633641
   5      -68.613014
   6      -68.604600
   7      -68.595753
   8      -68.585940
   9      -68.582691
  10      -68.577996
  11      -68.564840
  12      -68.561128
  13      -12.544624
  14      -11.339796
  15      -10.872011
  16      -10.608555
  17      -10.398484
  18      -10.282775
  19       -5.828899
  20       -4.972881
  21       -2.665310
  22       -2.455142
  23       -2.038158
  24       -1.577908
  25       -1.172443
  26       -0.983917
  27       -0.787855
  28       -0.654935
  29       -0.517269
  30       -0.389421
  31       -0.270312
  32       -0.250842
  33       -0.190392
  34       -0.143220
  35       -0.045003
  36        0.014328
  37        1.290272
  38        1.311621
  39        1.390068
  40        1.409411
  41        1.436363
  42        1.455702
  43        1.493043
  44        1.566176
  45        1.688961
  46        1.916578
  47        1.987432
  48        2.145742
  49        2.334913
  50        2.564202
  51        2.615788
  52        2.828885
  53        2.974218
  54        3.249283
  55        3.683650
  56        3.941862
  57        6.179462
  58        6.642298
  59        7.765664
  60        7.974298
  61        8.214932
  62        8.565121
  63        9.381387
  64        9.575233
  65        9.910489
  66       10.249117
  67       10.544246
  68       10.786336
  69       10.836343
  70       11.066453
  71       11.567960
  72       12.022607
  73       12.536824
  74       12.746594
  75       12.956011
  76       13.305571
  77       13.412116
  78       13.738229
  79       13.850120
  80       14.724764
 
  0.1517883E-17  0.2500000E+00  0.2000000E+00  0.2500000E-01
   1      -68.645138
   2      -68.638680
   3      -68.635332
   4      -68.633652
   5      -68.613051
   6      -68.604637
   7      -68.595727
   8      -68.585902
   9      -68.582685
  10      -68.577987
  11      -68.564783
  12      -68.561072
  13      -12.462048
  14      -11.469324
  15      -10.862966
  16      -10.690291
  17      -10.373542
  18      -10.245549
  19       -5.771748
  20       -4.801975
  21       -2.445511
  22       -2.233601
  23       -1.850271
  24       -1.714725
  25       -1.433636
  26       -1.186924
  27       -0.891508
  28       -0.747558
  29       -0.605197
  30       -0.515269
  31       -0.311127
  32       -0.243546
  33       -0.173178
  34       -0.119713
  35       -0.052203
  36        0.062498
  37        1.303696
  38        1.337351
  39        1.371445
  40        1.431041
  41        1.446862
  42        1.481200
  43        1.521584
  44        1.546589
  45        1.642670
  46        1.872432
  47        1.976535
  48        2.048132
  49        2.196329
  50        2.475395
  51        2.595445
  52        2.839934
  53        2.963436
  54        3.131592
  55        3.566010
  56        3.724927
  57        6.445521
  58        6.963882
  59        8.172345
  60        8.247782
  61        8.835384
  62        9.125913
  63        9.462210
  64        9.797546
  65       10.078232
  66       10.300625
  67       10.740369
  68       11.074639
  69       11.288838
  70       11.429002
  71       11.631937
  72       11.721750
  73       12.086366
  74       12.266870
  75       12.542767
  76       12.658270
  77       12.953567
  78       13.060352
  79       13.654631
  80       14.695998
 
  0.2500000E+00  0.2500000E+00  0.2000000E+00  0.2500000E-01
   1      -68.645046
   2      -68.638529
   3      -68.635245
   4      -68.633495
   5      -68.612894
   6      -68.604472
   7      -68.595601
   8      -68.585790
   9      -68.582561
  10      -68.577849
  11      -68.564692
  12      -68.560985
  13      -12.330789
  14      -11.476042
  15      -10.865524
  16      -10.856191
  17      -10.407619
  18      -10.286448
  19       -5.752241
  20       -4.688579
  21       -2.241288
  22       -2.140417
  23       -1.930963
  24       -1.849456
  25       -1.450045
  26       -1.396385
  27       -1.040999
  28       -0.523066
  29       -0.456821
  30       -0.350819
  31       -0.248638
  32       -0.215867
  33       -0.158648
  34       -0.108890
  35       -0.089834
  36        0.080567
  37        1.263713
  38        1.349184
  39        1.396538
  40        1.437039
  41        1.453347
  42        1.511172
  43        1.536773
  44        1.545732
  45        1.752431
  46        1.817843
  47        2.039227
  48        2.133596
  49        2.285559
  50        2.310076
  51        2.521453
  52        2.769673
  53        2.899652
  54        3.262836
  55        3.496116
  56        3.800226
  57        6.186323
  58        6.847467
  59        7.829717
  60        8.043019
  61        8.190185
  62        8.725196
  63        9.155213
  64        9.308617
  65       10.221506
  66       10.436234
  67       10.592414
  68       11.002071
  69       11.238941
  70       11.490678
  71       11.811803
  72       12.172932
  73       12.206185
  74       12.573245
  75       12.690881
  76       13.114536
  77       13.416711
  78       13.881167
  79       13.999923
  80       14.524838
 
  0.5000000E+00  0.2500000E+00  0.2000000E+00  0.2500000E-01
   1      -68.644913
   2      -68.638477
   3      -68.635202
   4      -68.633690
   5      -68.612907
   6      -68.604473
   7      -68.595687
   8      -68.585829
   9      -68.582560
  10      -68.577928
  11      -68.564636
  12      -68.560990
  13      -12.377606
  14      -11.474554
  15      -10.936842
  16      -10.654583
  17      -10.419764
  18      -10.304120
  19       -5.804823
  20       -4.835336
  21       -2.525762
  22       -2.245835
  23       -1.872525
  24       -1.644810
  25       -1.503138
  26       -1.310563
  27       -0.899914
  28       -0.528535
  29       -0.378286
  30       -0.351353
  31       -0.223377
  32       -0.177783
  33       -0.153323
  34       -0.077606
  35       -0.025749
  36        0.079139
  37        1.191731
  38        1.365483
  39        1.399108
  40        1.443234
  41        1.463107
  42        1.507168
  43        1.521206
  44        1.585481
  45        1.742617
  46        1.818282
  47        2.037772
  48        2.234427
  49        2.269372
  50        2.362037
  51        2.487735
  52        2.672543
  53        3.051230
  54        3.410997
  55        3.727172
  56        3.865254
  57        5.931244
  58        6.616158
  59        7.355733
  60        7.942423
  61        8.067159
  62        8.723655
  63        8.909496
  64        9.137217
  65        9.846967
  66       10.328463
  67       10.552539
  68       10.924875
  69       11.225826
  70       11.410601
  71       11.750539
  72       11.997007
  73       12.501781
  74       12.836846
  75       13.205121
  76       14.178504
  77       14.716264
  78       15.159106
  79       15.923059
  80       16.569113
 
 -0.2500000E+00  0.2500000E+00  0.2000000E+00  0.2500000E-01
   1      -68.645101
   2      -68.638731
   3      -68.635335
   4      -68.633689
   5      -68.612990