 vasp.5.3.3 18Dez12 (build Nov 13 2015 09:58:40) complex                        
  
 executed on             LinuxIFC date 2017.10.18  13:13:22
 running on   48 total cores
 distrk:  each k-point on   16 cores,    3 groups
 distr:  one band on NCORES_PER_BAND=   1 cores,   16 groups


--------------------------------------------------------------------------------------------------------


 INCAR:
 POTCAR:    PAW_PBE Cu_pv 06Sep2000               
 POTCAR:    PAW_PBE Ge 05Jan2001                  
 POTCAR:    PAW_PBE S 17Jan2003                   

 ----------------------------------------------------------------------------- 
|                                                                             |
|           W    W    AA    RRRRR   N    N  II  N    N   GGGG   !!!           |
|           W    W   A  A   R    R  NN   N  II  NN   N  G    G  !!!           |
|           W    W  A    A  R    R  N N  N  II  N N  N  G       !!!           |
|           W WW W  AAAAAA  RRRRR   N  N N  II  N  N N  G  GGG   !            |
|           WW  WW  A    A  R   R   N   NN  II  N   NN  G    G                |
|           W    W  A    A  R    R  N    N  II  N    N   GGGG   !!!           |
|                                                                             |
|      For optimal performance we recommend that you set                      |
|        NPAR = 4 - approx SQRT( number of cores)                             |
|      (number of cores/NPAR must be integer)                                 |
|      This setting will greatly improve the performance of VASP for DFT.     |
|      The default NPAR=number of cores might be grossly inefficient          |
|      on modern multi-core architectures or massively parallel machines.     |
|      Do your own testing.                                                   |
|      Unfortunately you need to use the default for hybrid, GW and RPA       |
|      calculations.                                                          |
|                                                                             |
 ----------------------------------------------------------------------------- 


 ----------------------------------------------------------------------------- 
|                                                                             |
|           W    W    AA    RRRRR   N    N  II  N    N   GGGG   !!!           |
|           W    W   A  A   R    R  NN   N  II  NN   N  G    G  !!!           |
|           W    W  A    A  R    R  N N  N  II  N N  N  G       !!!           |
|           W WW W  AAAAAA  RRRRR   N  N N  II  N  N N  G  GGG   !            |
|           WW  WW  A    A  R   R   N   NN  II  N   NN  G    G                |
|           W    W  A    A  R    R  N    N  II  N    N   GGGG   !!!           |
|                                                                             |
|      You have enabled k-point parallelism (KPAR>1).                         |
|      This developmental code was originally  written by Paul Kent at ORNL,  |
|      and carefully double checked in Vienna.                                |
|      GW as well as linear response parallelism added by Martijn Marsman     |
|      and Georg Kresse.                                                      |
|      Carefully verify results versus KPAR=1.                                |
|      Report problems to Paul Kent and Vienna.                               |
|                                                                             |
 ----------------------------------------------------------------------------- 

 POTCAR:    PAW_PBE Cu_pv 06Sep2000               
   VRHFIN =Cu: d10 p1                                                           
   LEXCH  = PE                                                                  
   EATOM  =  4120.1201 eV,  302.8203 Ry                                         
                                                                                
   TITEL  = PAW_PBE Cu_pv 06Sep2000                                             
   LULTRA =        F    use ultrasoft PP ?                                      
   IUNSCR =        1    unscreen: 0-lin 1-nonlin 2-no                           
   RPACOR =    1.500    partial core radius                                     
   POMASS =   63.546; ZVAL   =   17.000    mass and valenz                      
   RCORE  =    2.000    outmost cutoff radius                                   
   RWIGS  =    2.000; RWIGS  =    1.058    wigner-seitz radius (au A)           
   ENMAX  =  368.648; ENMIN  =  276.486 eV                                      
   RCLOC  =    1.304    cutoff for local pot                                    
   LCOR   =        T    correct aug charges                                     
   LPAW   =        T    paw PP                                                  
   EAUG   =  758.233                                                            
   DEXC   =    0.000                                                            
   RMAX   =    2.046    core radius for proj-oper                               
   RAUG   =    1.300    factor for augmentation sphere                          
   RDEP   =    2.025    radius for radial grids                                 
   RDEPT  =    1.558    core radius for aug-charge                              
                                                                                
   Atomic configuration                                                         
    8 entries                                                                   
     n  l   j            E        occ.                                          
     1  0  0.50     -8850.2467   2.0000                                         
     2  0  0.50     -1062.3498   2.0000                                         
     2  1  1.50      -916.8226   6.0000                                         
     3  0  0.50      -114.6929   2.0000                                         
     3  1  1.50       -72.1325   6.0000                                         
     3  2  2.50        -5.0394  10.0000                                         
     4  0  0.50        -4.6097   1.0000                                         
     4  3  2.50        -1.3606   0.0000                                         
   Description                                                                  
     l       E           TYP  RCUT    TYP  RCUT                                 
     1    -72.1324777     23  1.700                                             
     1     -1.3605826     23  1.700                                             
     2     -5.0393776     23  2.000                                             
     2     -6.3999602     23  2.000                                             
     0     -4.6097062     23  1.800                                             
     0     14.1620818     23  1.800                                             
  local pseudopotential read in
  partial core-charges read in
  partial kinetic energy density read in
  atomic valenz-charges read in
  non local Contribution for L=           1  read in
    real space projection operators read in
  non local Contribution for L=           1  read in
    real space projection operators read in
  non local Contribution for L=           2  read in
    real space projection operators read in
  non local Contribution for L=           2  read in
    real space projection operators read in
  non local Contribution for L=           0  read in
    real space projection operators read in
  non local Contribution for L=           0  read in
    real space projection operators read in
    PAW grid and wavefunctions read in
 
   number of l-projection  operators is LMAX  =           6
   number of lm-projection operators is LMMAX =          18
 
 POTCAR:    PAW_PBE Ge 05Jan2001                  
   VRHFIN =Ge: s2p2                                                             
   LEXCH  = PE                                                                  
   EATOM  =   104.9960 eV,    7.7170 Ry                                         
                                                                                
   TITEL  = PAW_PBE Ge 05Jan2001                                                
   LULTRA =        F    use ultrasoft PP ?                                      
   IUNSCR =        1    unscreen: 0-lin 1-nonlin 2-no                           
   RPACOR =    2.170    partial core radius                                     
   POMASS =   72.610; ZVAL   =    4.000    mass and valenz                      
   RCORE  =    2.300    outmost cutoff radius                                   
   RWIGS  =    2.300; RWIGS  =    1.217    wigner-seitz radius (au A)           
   ENMAX  =  173.807; ENMIN  =  130.355 eV                                      
   ICORE  =        3    local potential                                         
   LCOR   =        T    correct aug charges                                     
   LPAW   =        T    paw PP                                                  
   EAUG   =  385.843                                                            
   DEXC   =    0.000                                                            
   RMAX   =    2.342    core radius for proj-oper                               
   RAUG   =    1.300    factor for augmentation sphere                          
   RDEP   =    2.318    radius for radial grids                                 
   RDEPT  =    2.103    core radius for aug-charge                              
                                                                                
   Atomic configuration                                                         
   10 entries                                                                   
     n  l   j            E        occ.                                          
     1  0  0.50    -10959.8463   2.0000                                         
     2  0  0.50     -1371.6056   2.0000                                         
     2  1  1.50     -1198.4791   6.0000                                         
     3  0  0.50      -168.4733   2.0000                                         
     3  1  1.50      -115.6019   6.0000                                         
     3  2  2.50       -29.3106  10.0000                                         
     4  0  0.50       -11.7309   2.0000                                         
     4  1  0.50        -3.8952   2.0000                                         
     4  2  1.50        -4.0817   0.0000                                         
     4  3  2.50        -4.0817   0.0000                                         
   Description                                                                  
     l       E           TYP  RCUT    TYP  RCUT                                 
     0    -11.7309493     23  2.300                                             
     0     -7.4578696     23  2.300                                             
     1     -3.8952261     23  2.300                                             
     1      6.1178114     23  2.300                                             
     2     -4.0817478     23  2.300                                             
     3     -1.3605826      7  2.300                                             
  local pseudopotential read in
  partial core-charges read in
  partial kinetic energy density read in
  atomic valenz-charges read in
  non local Contribution for L=           0  read in
    real space projection operators read in
  non local Contribution for L=           0  read in
    real space projection operators read in
  non local Contribution for L=           1  read in
    real space projection operators read in
  non local Contribution for L=           1  read in
    real space projection operators read in
  non local Contribution for L=           2  read in
    real space projection operators read in
    PAW grid and wavefunctions read in
 
   number of l-projection  operators is LMAX  =           5
   number of lm-projection operators is LMMAX =          13
 
 POTCAR:    PAW_PBE S 17Jan2003                   
   VRHFIN =S : s2p4                                                             
   LEXCH  = PE                                                                  
   EATOM  =   276.8230 eV,   20.3459 Ry                                         
                                                                                
   TITEL  = PAW_PBE S 17Jan2003                                                 
   LULTRA =        F    use ultrasoft PP ?                                      
   IUNSCR =        1    unscreen: 0-lin 1-nonlin 2-no                           
   RPACOR =    1.500    partial core radius                                     
   POMASS =   32.066; ZVAL   =    6.000    mass and valenz                      
   RCORE  =    1.900    outmost cutoff radius                                   
   RWIGS  =    2.200; RWIGS  =    1.164    wigner-seitz radius (au A)           
   ENMAX  =  280.000; ENMIN  =  194.016 eV                                      
   ICORE  =        2    local potential                                         
   LCOR   =        T    correct aug charges                                     
   LPAW   =        T    paw PP                                                  
   EAUG   =  335.092                                                            
   DEXC   =     .000                                                            
   RMAX   =    2.867    core radius for proj-oper                               
   RAUG   =    1.300    factor for augmentation sphere                          
   RDEP   =    1.954    radius for radial grids                                 
   QCUT   =   -4.360; QGAM   =    8.721    optimization parameters              
                                                                                
   Description                                                                  
     l     E      TYP  RCUT    TYP  RCUT                                        
     0   .000     23  1.900                                                     
     0   .000     23  1.900                                                     
     1   .000     23  1.900                                                     
     1   .000     23  1.900                                                     
     2   .000     23  1.900                                                     
  local pseudopotential read in
  partial core-charges read in
  atomic valenz-charges read in
  non local Contribution for L=           0  read in
    real space projection operators read in
  non local Contribution for L=           0  read in
    real space projection operators read in
  non local Contribution for L=           1  read in
    real space projection operators read in
  non local Contribution for L=           1  read in
    real space projection operators read in
    PAW grid and wavefunctions read in
 
   number of l-projection  operators is LMAX  =           4
   number of lm-projection operators is LMMAX =           8
 
  PAW_PBE Cu_pv 06Sep2000               :
 energy of atom  1       EATOM=-4120.1201
 kinetic energy error for atom=    0.0996 (will be added to EATOM!!)
  PAW_PBE Ge 05Jan2001                  :
 energy of atom  2       EATOM= -104.9960
 kinetic energy error for atom=    0.0003 (will be added to EATOM!!)
  PAW_PBE S 17Jan2003                   :
 energy of atom  3       EATOM= -276.8230
 kinetic energy error for atom=    0.0046 (will be added to EATOM!!)
 
 
 POSCAR: Cu Ge S                                 
  positions in direct lattice
  No initial velocities read in
 exchange correlation table for  LEXCH =        8
   RHO(1)=    0.500       N(1)  =     2000
   RHO(2)=  100.500       N(2)  =     4000
 


--------------------------------------------------------------------------------------------------------


 ion  position               nearest neighbor table
   1  0.618  0.121  0.120-   9 2.29  11 2.29  12 2.30   8 2.36
   2  0.121  0.618  0.620-  12 2.29   7 2.29   9 2.30  10 2.35
   3  0.963  0.790  0.119-  11 2.30  12 2.30   7 2.31   8 2.35
   4  0.790  0.963  0.619-   7 2.30   9 2.30  11 2.31  10 2.36
   5  0.440  0.267  0.599-   7 2.19   9 2.19  10 2.31   8 2.33
   6  0.267  0.440  0.099-  11 2.19  12 2.19   8 2.30  10 2.33
   7  0.079  0.912  0.497-   5 2.19   2 2.29   4 2.30   3 2.31
   8  0.571  0.414  0.980-   6 2.30   5 2.33   3 2.35   1 2.36
   9  0.737  0.250  0.495-   5 2.19   1 2.29   4 2.30   2 2.30
  10  0.412  0.571  0.480-   5 2.31   6 2.33   2 2.35   4 2.36
  11  0.912  0.079  0.997-   6 2.19   1 2.29   3 2.30   4 2.31
  12  0.250  0.737  0.995-   6 2.19   2 2.29   3 2.30   1 2.30
 
  Warning from LATTYP: Got some problem with cell dimensions!
  Tried to take original basis but could not verify dimensions!
  LATTYP: Found a base centered monoclinic cell.
 ALAT       =     6.4499010947
 B/A-ratio  =     1.7500516418
 C/A-ratio  =     1.9305142024
 COS(beta)  =    -0.4326083233
  
  Lattice vectors:
  
 A1 = (   3.2247960000,   5.6438300000,   0.0315720000)
 A2 = (   3.2247960000,  -5.6438300000,   0.0315720000)
 A3 = ( -10.7972380000,   0.0000000000,  -6.2018250000)


Analysis of symmetry for initial positions (statically):
=====================================================================
 Subroutine PRICEL returns:
 Original cell was already a primitive cell.
 

 Routine SETGRP: Setting up the symmetry group for a 
 base centered monoclinic supercell.


 Subroutine GETGRP returns: Found  1 space group operations
 (whereof  1 operations were pure point group operations)
 out of a pool of  4 trial point group operations.


The static configuration has the point symmetry C_1 .


Analysis of symmetry for dynamics (positions and initial velocities):
=====================================================================
 Subroutine PRICEL returns:
 Original cell was already a primitive cell.
 

 Routine SETGRP: Setting up the symmetry group for a 
 base centered monoclinic supercell.


 Subroutine GETGRP returns: Found  1 space group operations
 (whereof  1 operations were pure point group operations)
 out of a pool of  4 trial point group operations.


The dynamic configuration has the point symmetry C_1 .


 irot  :   1
 --------------------------------------------------------------------
 isymop:   1   0   0
           0   1   0
           0   0   1

 gtrans:     0.0000000     0.0000000     0.0000000

 ptrans:     0.0000000     0.0000000     0.0000000
 rotmap:
 (   1->   1)  (   2->   2)  (   3->   3)  (   4->   4)  (   5->   5) 
 (   6->   6)  (   7->   7)  (   8->   8)  (   9->   9)  (  10->  10) 
 (  11->  11)  (  12->  12) 
 
 
 KPOINTS: pymatgen 4.7.6+ generated KPOINTS with g

Automatic generation of k-mesh.
Space group operators:
 irot       det(A)        alpha          n_x          n_y          n_z        tau_x        tau_y        tau_z
    1     1.000000     0.000000     1.000000     0.000000     0.000000     0.000000     0.000000     0.000000
 
 Subroutine IBZKPT returns following result:
 ===========================================
 
 Found     42 irreducible k-points:
 
 Following reciprocal coordinates:
            Coordinates               Weight
  0.000000  0.000000  0.000000      1.000000
  0.250000  0.000000  0.000000      2.000000
  0.500000  0.000000  0.000000      1.000000
  0.000000  0.250000  0.000000      2.000000
  0.250000  0.250000  0.000000      2.000000
  0.500000  0.250000 -0.000000      2.000000
 -0.250000  0.250000  0.000000      2.000000
  0.000000  0.500000  0.000000      1.000000
  0.250000  0.500000 -0.000000      2.000000
  0.500000  0.500000  0.000000      1.000000
 -0.000000 -0.000000  0.200000      2.000000
  0.250000  0.000000  0.200000      2.000000
  0.500000  0.000000  0.200000      2.000000
 -0.250000 -0.000000  0.200000      2.000000
  0.000000  0.250000  0.200000      2.000000
  0.250000  0.250000  0.200000      2.000000
  0.500000  0.250000  0.200000      2.000000
 -0.250000  0.250000  0.200000      2.000000
  0.000000  0.500000  0.200000      2.000000
  0.250000  0.500000  0.200000      2.000000
  0.500000  0.500000  0.200000      2.000000
 -0.250000  0.500000  0.200000      2.000000
 -0.000000 -0.250000  0.200000      2.000000
  0.250000 -0.250000  0.200000      2.000000
  0.500000 -0.250000  0.200000      2.000000
 -0.250000 -0.250000  0.200000      2.000000
 -0.000000 -0.000000  0.400000      2.000000
  0.250000  0.000000  0.400000      2.000000
  0.500000  0.000000  0.400000      2.000000
 -0.250000  0.000000  0.400000      2.000000
  0.000000  0.250000  0.400000      2.000000
  0.250000  0.250000  0.400000      2.000000
  0.500000  0.250000  0.400000      2.000000
 -0.250000  0.250000  0.400000      2.000000
  0.000000  0.500000  0.400000      2.000000
  0.250000  0.500000  0.400000      2.000000
  0.500000  0.500000  0.400000      2.000000
 -0.250000  0.500000  0.400000      2.000000
  0.000000 -0.250000  0.400000      2.000000
  0.250000 -0.250000  0.400000      2.000000
  0.500000 -0.250000  0.400000      2.000000
 -0.250000 -0.250000  0.400000      2.000000
 
 Following cartesian coordinates:
            Coordinates               Weight
  0.000000  0.000000  0.000000      1.000000
  0.038631 -0.022148  0.013365      2.000000
  0.077263 -0.044296  0.026730      1.000000
  0.038631  0.022148  0.013365      2.000000
  0.077263  0.000000  0.026730      2.000000
  0.115894 -0.022148  0.040096      2.000000
  0.000000  0.044296  0.000000      2.000000
  0.077263  0.044296  0.026730      1.000000
  0.115894  0.022148  0.040096      2.000000
  0.154525  0.000000  0.053461      1.000000
 -0.000321  0.000000  0.032808      2.000000
  0.038310 -0.022148  0.046173      2.000000
  0.076941 -0.044296  0.059538      2.000000
 -0.038952  0.022148  0.019443      2.000000
  0.038310  0.022148  0.046173      2.000000
  0.076941  0.000000  0.059538      2.000000
  0.115573 -0.022148  0.072903      2.000000
 -0.000321  0.044296  0.032808      2.000000
  0.076941  0.044296  0.059538      2.000000
  0.115573  0.022148  0.072903      2.000000
  0.154204  0.000000  0.086269      2.000000
  0.038310  0.066444  0.046173      2.000000
 -0.038952 -0.022148  0.019443      2.000000
 -0.000321 -0.044296  0.032808      2.000000
  0.038310 -0.066444  0.046173      2.000000
 -0.077584  0.000000  0.006077      2.000000
 -0.000642  0.000000  0.065616      2.000000
  0.037989 -0.022148  0.078981      2.000000
  0.076620 -0.044296  0.092346      2.000000
 -0.039274  0.022148  0.052250      2.000000
  0.037989  0.022148  0.078981      2.000000
  0.076620  0.000000  0.092346      2.000000
  0.115251 -0.022148  0.105711      2.000000
 -0.000642  0.044296  0.065616      2.000000
  0.076620  0.044296  0.092346      2.000000
  0.115251  0.022148  0.105711      2.000000
  0.153883  0.000000  0.119076      2.000000
  0.037989  0.066444  0.078981      2.000000
 -0.039274 -0.022148  0.052250      2.000000
 -0.000642 -0.044296  0.065616      2.000000
  0.037989 -0.066444  0.078981      2.000000
 -0.077905  0.000000  0.038885      2.000000
 
 
 Subroutine IBZKPT_HF returns following result:
 ==============================================
 
 Found     80 k-points in 1st BZ
 the following     80 k-points will be used (e.g. in the exchange kernel)
 Following reciprocal coordinates:   # in IRBZ
  0.000000  0.000000  0.000000       1 t-inv F
  0.250000  0.000000  0.000000       2 t-inv F
  0.500000  0.000000  0.000000       3 t-inv F
  0.000000  0.250000  0.000000       4 t-inv F
  0.250000  0.250000  0.000000       5 t-inv F
  0.500000  0.250000 -0.000000       6 t-inv F
 -0.250000  0.250000  0.000000       7 t-inv F
  0.000000  0.500000  0.000000       8 t-inv F
  0.250000  0.500000 -0.000000       9 t-inv F
  0.500000  0.500000  0.000000      10 t-inv F
 -0.000000 -0.000000  0.200000      11 t-inv F
  0.250000  0.000000  0.200000      12 t-inv F
  0.500000  0.000000  0.200000      13 t-inv F
 -0.250000 -0.000000  0.200000      14 t-inv F
  0.000000  0.250000  0.200000      15 t-inv F
  0.250000  0.250000  0.200000      16 t-inv F
  0.500000  0.250000  0.200000      17 t-inv F
 -0.250000  0.250000  0.200000      18 t-inv F
  0.000000  0.500000  0.200000      19 t-inv F
  0.250000  0.500000  0.200000      20 t-inv F
  0.500000  0.500000  0.200000      21 t-inv F
 -0.250000  0.500000  0.200000      22 t-inv F
 -0.000000 -0.250000  0.200000      23 t-inv F
  0.250000 -0.250000  0.200000      24 t-inv F
  0.500000 -0.250000  0.200000      25 t-inv F
 -0.250000 -0.250000  0.200000      26 t-inv F
 -0.000000 -0.000000  0.400000      27 t-inv F
  0.250000  0.000000  0.400000      28 t-inv F
  0.500000  0.000000  0.400000      29 t-inv F
 -0.250000  0.000000  0.400000      30 t-inv F
  0.000000  0.250000  0.400000      31 t-inv F
  0.250000  0.250000  0.400000      32 t-inv F
  0.500000  0.250000  0.400000      33 t-inv F
 -0.250000  0.250000  0.400000      34 t-inv F
  0.000000  0.500000  0.400000      35 t-inv F
  0.250000  0.500000  0.400000      36 t-inv F
  0.500000  0.500000  0.400000      37 t-inv F
 -0.250000  0.500000  0.400000      38 t-inv F
  0.000000 -0.250000  0.400000      39 t-inv F
  0.250000 -0.250000  0.400000      40 t-inv F
  0.500000 -0.250000  0.400000      41 t-inv F
 -0.250000 -0.250000  0.400000      42 t-inv F
 -0.250000 -0.000000 -0.000000       2 t-inv T
 -0.000000 -0.250000 -0.000000       4 t-inv T
 -0.250000 -0.250000  0.000000       5 t-inv T
 -0.500000 -0.250000  0.000000       6 t-inv T
  0.250000 -0.250000  0.000000       7 t-inv T
 -0.250000 -0.500000  0.000000       9 t-inv T
  0.000000  0.000000 -0.200000      11 t-inv T
 -0.250000 -0.000000 -0.200000      12 t-inv T
 -0.500000 -0.000000 -0.200000      13 t-inv T
  0.250000  0.000000 -0.200000      14 t-inv T
 -0.000000 -0.250000 -0.200000      15 t-inv T
 -0.250000 -0.250000 -0.200000      16 t-inv T
 -0.500000 -0.250000 -0.200000      17 t-inv T
  0.250000 -0.250000 -0.200000      18 t-inv T
 -0.000000 -0.500000 -0.200000      19 t-inv T
 -0.250000 -0.500000 -0.200000      20 t-inv T
 -0.500000 -0.500000 -0.200000      21 t-inv T
  0.250000 -0.500000 -0.200000      22 t-inv T
  0.000000  0.250000 -0.200000      23 t-inv T
 -0.250000  0.250000 -0.200000      24 t-inv T
 -0.500000  0.250000 -0.200000      25 t-inv T
  0.250000  0.250000 -0.200000      26 t-inv T
  0.000000  0.000000 -0.400000      27 t-inv T
 -0.250000 -0.000000 -0.400000      28 t-inv T
 -0.500000 -0.000000 -0.400000      29 t-inv T
  0.250000 -0.000000 -0.400000      30 t-inv T
 -0.000000 -0.250000 -0.400000      31 t-inv T
 -0.250000 -0.250000 -0.400000      32 t-inv T
 -0.500000 -0.250000 -0.400000      33 t-inv T
  0.250000 -0.250000 -0.400000      34 t-inv T
 -0.000000 -0.500000 -0.400000      35 t-inv T
 -0.250000 -0.500000 -0.400000      36 t-inv T
 -0.500000 -0.500000 -0.400000      37 t-inv T
  0.250000 -0.500000 -0.400000      38 t-inv T
 -0.000000  0.250000 -0.400000      39 t-inv T
 -0.250000  0.250000 -0.400000      40 t-inv T
 -0.500000  0.250000 -0.400000      41 t-inv T
  0.250000  0.250000 -0.400000      42 t-inv T


--------------------------------------------------------------------------------------------------------




 Dimension of arrays:
   k-points           NKPTS =     42   k-points in BZ     NKDIM =     80   number of bands    NBANDS=     80
   number of dos      NEDOS =    301   number of ions     NIONS =     12
   non local maximal  LDIM  =      6   non local SUM 2l+1 LMDIM =     18
   total plane-waves  NPLWV =  32768
   max r-space proj   IRMAX =      1   max aug-charges    IRDMAX=   8224
   dimension x,y,z NGX =    32 NGY =   32 NGZ =   32
   dimension x,y,z NGXF=    64 NGYF=   64 NGZF=   64
   support grid    NGXF=    64 NGYF=   64 NGZF=   64
   ions per type =               4   2   6
 NGX,Y,Z   is equivalent  to a cutoff of   8.18,  8.18,  8.27 a.u.
 NGXF,Y,Z  is equivalent  to a cutoff of  16.37, 16.37, 16.55 a.u.


 I would recommend the setting:
   dimension x,y,z NGX =    32 NGY =   32 NGZ =   31
 SYSTEM =  CGS                                     
 POSCAR =  Cu Ge S                                 

 Startparameter for this run:
   NWRITE =      2    write-flag & timer
   PREC   = normal    normal or accurate (medium, high low for compatibility)
   ISTART =      1    job   : 0-new  1-cont  2-samecut
   ICHARG =      0    charge: 1-file 2-atom 10-const
   ISPIN  =      1    spin polarized calculation?
   LNONCOLLINEAR =      F non collinear calculations
   LSORBIT =      F    spin-orbit coupling
   INIWAV =      1    electr: 0-lowe 1-rand  2-diag
   LASPH  =      F    aspherical Exc in radial PAW
   METAGGA=      F    non-selfconsistent MetaGGA calc.

 Electronic Relaxation 1
   ENCUT  =  400.0 eV  29.40 Ry    5.42 a.u.  10.60 10.60 10.48*2*pi/ulx,y,z
   ENINI  =  400.0     initial cutoff
   ENAUG  =  758.2 eV  augmentation charge cutoff
   NELM   =     60;   NELMIN=  2; NELMDL=  0     # of ELM steps 
   EDIFF  = 0.1E-04   stopping-criterion for ELM
   LREAL  =      F    real-space projection
   NLSPLINE    = F    spline interpolate recip. space projectors
   LCOMPAT=      F    compatible to vasp.4.4
   GGA_COMPAT  = T    GGA compatible to vasp.4.4-vasp.4.6
   LMAXPAW     = -100 max onsite density
   LMAXMIX     =    2 max onsite mixed and CHGCAR
   VOSKOWN=      0    Vosko Wilk Nusair interpolation
   ROPT   =    0.00000   0.00000   0.00000
 Ionic relaxation
   EDIFFG = 0.1E-03   stopping-criterion for IOM
   NSW    =      0    number of steps for IOM
   NBLOCK =      1;   KBLOCK =      1    inner block; outer block 
   IBRION =     -1    ionic relax: 0-MD 1-quasi-New 2-CG
   NFREE  =      0    steps in history (QN), initial steepest desc. (CG)
   ISIF   =      0    stress and relaxation
   IWAVPR =     10    prediction:  0-non 1-charg 2-wave 3-comb
   ISYM   =      3    0-nonsym 1-usesym 2-fastsym
   LCORR  =      T    Harris-Foulkes like correction to forces

   POTIM  = 0.5000    time-step for ionic-motion
   TEIN   =    0.0    initial temperature
   TEBEG  =    0.0;   TEEND  =   0.0 temperature during run
   SMASS  =  -3.00    Nose mass-parameter (am)
   estimated Nose-frequenzy (Omega)   =  0.10E-29 period in steps =****** mass=  -0.966E-27a.u.
   SCALEE = 1.0000    scale energy and forces
   NPACO  =    256;   APACO  = 16.0  distance and # of slots for P.C.
   PSTRESS=    0.0 pullay stress

  Mass of Ions in am
   POMASS =  63.55 72.61 32.07
  Ionic Valenz
   ZVAL   =  17.00  4.00  6.00
  Atomic Wigner-Seitz radii
   RWIGS  =  -1.00 -1.00 -1.00
  virtual crystal weights 
   VCA    =   1.00  1.00  1.00
   NELECT =     112.0000    total number of electrons
   NUPDOWN=      -1.0000    fix difference up-down

 DOS related values:
   EMIN   =  10.00;   EMAX   =-10.00  energy-range for DOS
   EFERMI =   0.00
   ISMEAR =     1;   SIGMA  =   0.10  broadening in eV -4-tet -1-fermi 0-gaus

 Electronic relaxation 2 (details)
   IALGO  =     53    algorithm
   LDIAG  =      T    sub-space diagonalisation (order eigenvalues)
   LSUBROT=      T    optimize rotation matrix (better conditioning)
   TURBO    =      0    0=normal 1=particle mesh
   IRESTART =      0    0=no restart 2=restart with 2 vectors
   NREBOOT  =      0    no. of reboots
   NMIN     =      0    reboot dimension
   EREF     =   0.00    reference energy to select bands
   IMIX   =      4    mixing-type and parameters
     AMIX     =   0.40;   BMIX     =  1.00
     AMIX_MAG =   1.60;   BMIX_MAG =  1.00
     AMIN     =   0.10
     WC   =   100.;   INIMIX=   1;  MIXPRE=   1;  MAXMIX= -45

 Intra band minimization:
   WEIMIN = 0.0000     energy-eigenvalue tresh-hold
   EBREAK =  0.31E-07  absolut break condition
   DEPER  =   0.30     relativ break condition  

   TIME   =   0.40     timestep for ELM

  volume/ion in A,a.u.               =      18.49       124.79
  Fermi-wavevector in a.u.,A,eV,Ry     =   1.303450  2.463163 23.116052  1.698982
  Thomas-Fermi vector in A             =   2.434451
 
 Write flags
   LWAVE  =      T    write WAVECAR
   LCHARG =      T    write CHGCAR
   LVTOT  =      F    write LOCPOT, total local potential
   LVHAR  =      F    write LOCPOT, Hartree potential only
   LELF   =      F    write electronic localiz. function (ELF)
   LORBIT =      0    0 simple, 1 ext, 2 COOP (PROOUT)


 Dipole corrections
   LMONO  =      F    monopole corrections only (constant potential shift)
   LDIPOL =      F    correct potential (dipole corrections)
   IDIPOL =      0    1-x, 2-y, 3-z, 4-all directions 
   EPSILON=  1.0000000 bulk dielectric constant

 Exchange correlation treatment:
   GGA     =    PE    GGA type
   LEXCH   =     8    internal setting for exchange type
   VOSKOWN=      0    Vosko Wilk Nusair interpolation
   EXXOEP  =     0    0=HF, 1=EXX-LHF (local Hartree Fock) 2=EXX OEP
   LHFCALC =     T    Hartree Fock is set to
   LSYMGRAD=     F    symmetrize gradient (conserves proper symmetry)
   PRECFOCK=fast      Normal, Fast or Accurate (Low or Medium for compatibility)
   LRHFCALC=     F    long range Hartree Fock
   LRSCOR  =     F    long range correlation only (use DFT for short range part)
   LTHOMAS =     F    Thomas Fermi screening in HF
   LMODELHF=     F    short range full HF, long range fraction AEXX
   ENCUT4O =  -1.0   cutoff for four orbital integrals eV
   LMAXFOCK=     4    L truncation for augmentation on plane wave grid
   LMAXFOCKAE=  -1    L truncation for all-electron charge restoration on plane wave grid
   NMAXFOCKAE=   1    number of basis functions for all-electron charge restoration
   LFOCKAEDFT=     F  apply the AE augmentation even for DFT
   NKREDX  =     1    reduce k-point grid by
   NKREDY  =     1    reduce k-point grid by
   NKREDZ  =     1    reduce k-point grid by
   SHIFTRED=     F    shift reduced grid of Gamma
   HFKIDENT=     F    idential grid for each k-point
   ODDONLY =     F    use only odd q-grid points
   EVENONLY=     F    use only even q-grid points
   HFALPHA =   -1.0000 decay constant for conv. correction
   MCALPHA =    0.0000 extent of test-charge in conv. correction in multipole expansion
   AEXX    =    0.2500 exact exchange contribution
   HFSCREEN=    0.2000 screening length (either q_TF or 0.3 A-1)
   HFSCREENC=   0.2000 screening length for correlation (either q_TF or 0.3 A-1)
   HFRCUT  =    0.0000 spherical cutoff for potential kernel
   ALDAX   =    0.7500 LDA exchange part
   AGGAX   =    0.7500 GGA exchange part
   ALDAC   =    1.0000 LDA correlation
   AGGAC   =    1.0000 GGA correlation
   NBANDSGWLOW=     1    first orbital included in HF term
 Linear response parameters
   LEPSILON=     F    determine dielectric tensor
   LRPA    =     F    only Hartree local field effects (RPA)
   LNABLA  =     F    use nabla operator in PAW spheres
   LVEL    =     F    velocity operator in full k-point grid
   LINTERFAST=   F  fast interpolation
   KINTER  =     0    interpolate to denser k-point grid
   CSHIFT  =0.1000    complex shift for real part using Kramers Kronig
   OMEGAMAX=  -1.0    maximum frequency
   DEG_THRESHOLD= 0.2000000E-02 threshold for treating states as degnerate
   RTIME   =    0.100 relaxation time in fs

 Orbital magnetization related:
   ORBITALMAG=     F  switch on orbital magnetization
   LCHIMAG   =     F  perturbation theory with respect to B field
   DQ        =  0.001000  dq finite difference perturbation B field



--------------------------------------------------------------------------------------------------------


 Static calculation
 charge density and potential will be updated during run
 non-spin polarized calculation
 Conjugate gradient for all bands, subspace preconditioning
 perform sub-space diagonalisation
    before iterative eigenvector-optimisation
 modified Broyden-mixing scheme, WC =      100.0
 initial mixing is a Kerker type mixing with AMIX =  0.4000 and BMIX =      1.0000
 Hartree-type preconditioning will be used
 using additional bands           24
 reciprocal scheme for non local part
 use partial core corrections
 no Harris-corrections to forces 
 use gradient corrections 
 use of overlap-Matrix (Vanderbilt PP)
 Methfessel and Paxton  Order N= 1 SIGMA  =   0.10


--------------------------------------------------------------------------------------------------------


  energy-cutoff  :      400.00
  volume of cell :      221.90
      direct lattice vectors                 reciprocal lattice vectors
     3.224796000 -5.643830000  0.031572000     0.154525165 -0.088592321  0.053460880
     3.224796000  5.643830000  0.031572000     0.154525165  0.088592321  0.053460880
    -2.101946000  0.000000000  6.075537000    -0.001606004  0.000000000  0.164038877

  length of vectors
     6.500240234  6.500240234  6.428866683     0.185969598  0.185969598  0.164046738


 
 old parameters found on file WAVECAR:
  energy-cutoff  :      400.00
  volume of cell :      222.35
      direct lattice vectors                 reciprocal lattice vectors
     3.227235519 -5.642745207  0.030241751     0.154430495 -0.088609353  0.053450002
     3.227235519  5.642745207  0.030241751     0.154430495  0.088609353  0.053450002
    -2.106135241  0.000000000  6.085154262    -0.001534965  0.000000000  0.163803104

  length of vectors

 
 k-points in units of 2pi/SCALE and weight: pymatgen 4.7.6+ generated KPOINTS with g
   0.00000000  0.00000000  0.00000000       0.013
   0.03863129 -0.02214808  0.01336522       0.025
   0.07726258 -0.04429616  0.02673044       0.013
   0.03863129  0.02214808  0.01336522       0.025
   0.07726258  0.00000000  0.02673044       0.025
   0.11589387 -0.02214808  0.04009566       0.025
   0.00000000  0.04429616  0.00000000       0.025
   0.07726258  0.04429616  0.02673044       0.013
   0.11589387  0.02214808  0.04009566       0.025
   0.15452516  0.00000000  0.05346088       0.013
  -0.00032120  0.00000000  0.03280778       0.025
   0.03831009 -0.02214808  0.04617300       0.025
   0.07694138 -0.04429616  0.05953822       0.025
  -0.03895249  0.02214808  0.01944256       0.025
   0.03831009  0.02214808  0.04617300       0.025
   0.07694138  0.00000000  0.05953822       0.025
   0.11557267 -0.02214808  0.07290344       0.025
  -0.00032120  0.04429616  0.03280778       0.025
   0.07694138  0.04429616  0.05953822       0.025
   0.11557267  0.02214808  0.07290344       0.025
   0.15420396  0.00000000  0.08626865       0.025
   0.03831009  0.06644424  0.04617300       0.025
  -0.03895249 -0.02214808  0.01944256       0.025
  -0.00032120 -0.04429616  0.03280778       0.025
   0.03831009 -0.06644424  0.04617300       0.025
  -0.07758378  0.00000000  0.00607734       0.025
  -0.00064240  0.00000000  0.06561555       0.025
   0.03798889 -0.02214808  0.07898077       0.025
   0.07662018 -0.04429616  0.09234599       0.025
  -0.03927369  0.02214808  0.05225033       0.025
   0.03798889  0.02214808  0.07898077       0.025
   0.07662018  0.00000000  0.09234599       0.025
   0.11525147 -0.02214808  0.10571121       0.025
  -0.00064240  0.04429616  0.06561555       0.025
   0.07662018  0.04429616  0.09234599       0.025
   0.11525147  0.02214808  0.10571121       0.025
   0.15388276  0.00000000  0.11907643       0.025
   0.03798889  0.06644424  0.07898077       0.025
  -0.03927369 -0.02214808  0.05225033       0.025
  -0.00064240 -0.04429616  0.06561555       0.025
   0.03798889 -0.06644424  0.07898077       0.025
  -0.07790498  0.00000000  0.03888511       0.025
 
 k-points in reciprocal lattice and weights: pymatgen 4.7.6+ generated KPOINTS with g
   0.00000000  0.00000000  0.00000000       0.013
   0.25000000  0.00000000  0.00000000       0.025
   0.50000000  0.00000000  0.00000000       0.013
   0.00000000  0.25000000  0.00000000       0.025
   0.25000000  0.25000000  0.00000000       0.025
   0.50000000  0.25000000 -0.00000000       0.025
  -0.25000000  0.25000000  0.00000000       0.025
   0.00000000  0.50000000  0.00000000       0.013
   0.25000000  0.50000000 -0.00000000       0.025
   0.50000000  0.50000000  0.00000000       0.013
  -0.00000000 -0.00000000  0.20000000       0.025
   0.25000000  0.00000000  0.20000000       0.025
   0.50000000  0.00000000  0.20000000       0.025
  -0.25000000 -0.00000000  0.20000000       0.025
   0.00000000  0.25000000  0.20000000       0.025
   0.25000000  0.25000000  0.20000000       0.025
   0.50000000  0.25000000  0.20000000       0.025
  -0.25000000  0.25000000  0.20000000       0.025
   0.00000000  0.50000000  0.20000000       0.025
   0.25000000  0.50000000  0.20000000       0.025
   0.50000000  0.50000000  0.20000000       0.025
  -0.25000000  0.50000000  0.20000000       0.025
  -0.00000000 -0.25000000  0.20000000       0.025
   0.25000000 -0.25000000  0.20000000       0.025
   0.50000000 -0.25000000  0.20000000       0.025
  -0.25000000 -0.25000000  0.20000000       0.025
  -0.00000000 -0.00000000  0.40000000       0.025
   0.25000000  0.00000000  0.40000000       0.025
   0.50000000  0.00000000  0.40000000       0.025
  -0.25000000  0.00000000  0.40000000       0.025
   0.00000000  0.25000000  0.40000000       0.025
   0.25000000  0.25000000  0.40000000       0.025
   0.50000000  0.25000000  0.40000000       0.025
  -0.25000000  0.25000000  0.40000000       0.025
   0.00000000  0.50000000  0.40000000       0.025
   0.25000000  0.50000000  0.40000000       0.025
   0.50000000  0.50000000  0.40000000       0.025
  -0.25000000  0.50000000  0.40000000       0.025
   0.00000000 -0.25000000  0.40000000       0.025
   0.25000000 -0.25000000  0.40000000       0.025
   0.50000000 -0.25000000  0.40000000       0.025
  -0.25000000 -0.25000000  0.40000000       0.025
 
 position of ions in fractional coordinates (direct lattice) 
   0.61844300  0.12117100  0.11953300
   0.12117100  0.61844300  0.61953300
   0.96295700  0.79032200  0.11881300
   0.79032200  0.96295700  0.61881300
   0.43973200  0.26728100  0.59904700
   0.26728100  0.43973200  0.09904700
   0.07949800  0.91167500  0.49736300
   0.57140300  0.41390240  0.98018400
   0.73711100  0.25006200  0.49504900
   0.41236400  0.57140300  0.48018400
   0.91167500  0.07949800  0.99736300
   0.25006200  0.73711100  0.99504900
 
 position of ions in cartesian coordinates  (Angst):
   2.13385236 -2.80651863  0.74957826
   1.08287936  2.80651863  3.78734676
   5.40422860 -0.97432259  0.77720730
   4.35325560  0.97432259  3.81497580
   1.02080825 -0.97328413  3.66185403
   2.07178125  0.97328413  0.62408553
   2.15090056  4.69666552  3.05304062
   1.11711509 -0.88890658  5.98625222
   2.14286528 -2.74882176  3.03885554
   2.16312705  0.89758908  2.94843515
   1.09992756 -4.69666552  6.09080912
   1.09189228  2.74882176  6.07662404
 


--------------------------------------------------------------------------------------------------------


 k-point  1 :   0.0000 0.0000 0.0000  plane waves:    4051
 k-point  2 :   0.2500 0.0000 0.0000  plane waves:    4032
 k-point  3 :   0.5000 0.0000 0.0000  plane waves:    4030
 k-point  4 :   0.0000 0.2500 0.0000  plane waves:    4032
 k-point  5 :   0.2500 0.2500 0.0000  plane waves:    4038
 k-point  6 :   0.5000 0.2500-0.0000  plane waves:    4037
 k-point  7 :  -0.2500 0.2500 0.0000  plane waves:    4042
 k-point  8 :   0.0000 0.5000 0.0000  plane waves:    4030
 k-point  9 :   0.2500 0.5000-0.0000  plane waves:    4037
 k-point 10 :   0.5000 0.5000 0.0000  plane waves:    4026
 k-point 11 :  -0.0000-0.0000 0.2000  plane waves:    4046
 k-point 12 :   0.2500 0.0000 0.2000  plane waves:    4034
 k-point 13 :   0.5000 0.0000 0.2000  plane waves:    4025
 k-point 14 :  -0.2500-0.0000 0.2000  plane waves:    4044
 k-point 15 :   0.0000 0.2500 0.2000  plane waves:    4034
 k-point 16 :   0.2500 0.2500 0.2000  plane waves:    4017
 k-point 17 :   0.5000 0.2500 0.2000  plane waves:    4039
 k-point 18 :  -0.2500 0.2500 0.2000  plane waves:    4042
 k-point 19 :   0.0000 0.5000 0.2000  plane waves:    4025
 k-point 20 :   0.2500 0.5000 0.2000  plane waves:    4039
 k-point 21 :   0.5000 0.5000 0.2000  plane waves:    4030
 k-point 22 :  -0.2500 0.5000 0.2000  plane waves:    4030
 k-point 23 :  -0.0000-0.2500 0.2000  plane waves:    4044
 k-point 24 :   0.2500-0.2500 0.2000  plane waves:    4042
 k-point 25 :   0.5000-0.2500 0.2000  plane waves:    4030
 k-point 26 :  -0.2500-0.2500 0.2000  plane waves:    4020
 k-point 27 :  -0.0000-0.0000 0.4000  plane waves:    4027
 k-point 28 :   0.2500 0.0000 0.4000  plane waves:    4034
 k-point 29 :   0.5000 0.0000 0.4000  plane waves:    4013
 k-point 30 :  -0.2500 0.0000 0.4000  plane waves:    4042
 k-point 31 :   0.0000 0.2500 0.4000  plane waves:    4034
 k-point 32 :   0.2500 0.2500 0.4000  plane waves:    4009
 k-point 33 :   0.5000 0.2500 0.4000  plane waves:    4026
 k-point 34 :  -0.2500 0.2500 0.4000  plane waves:    4027
 k-point 35 :   0.0000 0.5000 0.4000  plane waves:    4013
 k-point 36 :   0.2500 0.5000 0.4000  plane waves:    4026
 k-point 37 :   0.5000 0.5000 0.4000  plane waves:    4037
 k-point 38 :  -0.2500 0.5000 0.4000  plane waves:    4022
 k-point 39 :   0.0000-0.2500 0.4000  plane waves:    4042
 k-point 40 :   0.2500-0.2500 0.4000  plane waves:    4027
 k-point 41 :   0.5000-0.2500 0.4000  plane waves:    4022
 k-point 42 :  -0.2500-0.2500 0.4000  plane waves:    4015

 maximum and minimum number of plane-waves per node :      4051     4009

 maximum number of plane-waves:      4051
 maximum index in each direction: 
   IXMAX=   10   IYMAX=   10   IZMAX=   10
   IXMIN=  -11   IYMIN=  -11   IZMIN=  -10

 WARNING: aliasing errors must be expected set NGX to  44 to avoid them
 WARNING: aliasing errors must be expected set NGY to  44 to avoid them
 WARNING: aliasing errors must be expected set NGZ to  42 to avoid them
 aliasing errors are usually negligible using standard VASP settings
 and one can safely disregard these warnings

 serial   3D FFT for wavefunctions
 parallel 3D FFT for charge:
    minimum data exchange during FFTs selected (reduces bandwidth)


 FFT grid for exact exchange (Hartree Fock) 
  NGX = 24; NGY = 24; NGZ = 24

 
 Radii for the augmentation spheres in the non-local exchange
 for species   1 augmentation radius   1.120 (default was   0.830)
       energy cutoff for augmentation   1600.0
 for species   2 augmentation radius   1.570 (default was   1.163)
       energy cutoff for augmentation   1600.0
 for species   3 augmentation radius   1.034 (default was   0.970)
       energy cutoff for augmentation   1600.0

 total amount of memory used by VASP on root node   151697. kBytes
========================================================================

   base      :      30000. kBytes
   nonl-proj :      74517. kBytes
   fftplans  :        702. kBytes
   grid      :       2400. kBytes
   one-center:        186. kBytes
   HF        :        194. kBytes
   nonlr-proj:       1122. kBytes
   wavefun   :      42576. kBytes
 
 Broyden mixing: mesh for mixing (old mesh)
   NGX = 21   NGY = 21   NGZ = 21
  (NGX  = 64   NGY  = 64   NGZ  = 64)
  gives a total of   9261 points

 charge density for first step will be calculated from the start-wavefunctions


--------------------------------------------------------------------------------------------------------


 Maximum index for augmentation-charges          485 (set IRDMAX)


--------------------------------------------------------------------------------------------------------


 initial charge from wavefunction
 First call to EWALD:  gamma=   0.293
 Maximum number of real-space cells 3x 3x 3
 Maximum number of reciprocal cells 3x 3x 3

 FEWALD executed in parallel
    FEWALD:  cpu time    0.00: real time    0.00


----------------------------------------- Iteration    1(   1)  ---------------------------------------


    POTLOK:  cpu time    0.05: real time    0.05
    SETDIJ:  cpu time    1.87: real time    1.87
 
    SUBROT:  cpu time    1.17: real time    1.17
    SUBROT:  cpu time    0.42: real time    0.42
    SUBROT:  cpu time    0.42: real time    0.42
    SUBROT:  cpu time    0.43: real time    0.43
    --------------------------------------------
    SUBRT+:  cpu time    2.44: real time    2.46

 Broyden mixing:
  rms(total) = 0.11889E-01    rms(broyden)= 0.11881E-01
  rms(prec ) = 0.21523E-01
  weight for this iteration     100.00

 eigenvalues of (default mixing * dielectric matrix)
  average eigenvalue GAMMA=   1.5861
  2.4447  1.5010  0.8126
 
    TRIAL :  cpu time  251.85: real time  252.54
    CORREC:  cpu time    0.00: real time    0.00
    CHARGE:  cpu time    0.06: real time    0.06
    --------------------------------------------
      LOOP:  cpu time  253.84: real time  254.54

 eigenvalue-minimisations  :     0
 total energy-change (2. order) : 0.7553807E+02  (-0.2131681E+03)
 number of electron     112.0001480 magnetization 
 augmentation part       38.9113022 magnetization 

 Free energy of the ion-electron system (eV)
  ---------------------------------------------------
  alpha Z        PSCENC =       339.31929130
  Ewald energy   TEWEN  =     -9065.36070443
  -1/2 Hartree   DENC   =     -8067.43369894
  -exchange  EXHF       =       327.45049727
  -V(xc)+E(xc)   XCENC  =       369.90455297
  PAW double counting   =     16899.59670309   -17392.41179198
  entropy T*S    EENTRO =        -0.00145951
  eigenvalues    EBANDS =     -1656.51045784
  atomic energy  EATOM  =     18320.98302006
  ---------------------------------------------------
  free energy    TOTEN  =        75.53807478 eV

  energy without entropy =       75.53953429  energy(sigma->0) =       75.53856129


--------------------------------------------------------------------------------------------------------




----------------------------------------- Iteration    1(   2)  ---------------------------------------


    POTLOK:  cpu time    0.05: real time    0.05
    SETDIJ:  cpu time    1.97: real time    1.96
 
    SUBROT:  cpu time    0.87: real time    0.87
    SUBROT:  cpu time    0.42: real time    0.42
    SUBROT:  cpu time    0.43: real time    0.43
    SUBROT:  cpu time    0.43: real time    0.44
    --------------------------------------------
    SUBRT+:  cpu time    2.15: real time    2.18

 Broyden mixing:
  rms(total) = 0.27581E-01    rms(broyden)= 0.27571E-01
  rms(prec ) = 0.50684E-01
  weight for this iteration     100.00

 eigenvalues of (default mixing * dielectric matrix)
  average eigenvalue GAMMA=   1.5671
  2.5481  1.2905  0.8626
 
    TRIAL :  cpu time  261.67: real time  261.46
    CORREC:  cpu time    0.00: real time    0.00
    CHARGE:  cpu time    0.06: real time    0.06
    --------------------------------------------
      LOOP:  cpu time  263.74: real time  263.54

 eigenvalue-minimisations  :     0
 total energy-change (2. order) :-0.8391881E+02  (-0.1468897E+03)
 number of electron     112.0001385 magnetization 
 augmentation part       35.4589429 magnetization 

 Free energy of the ion-electron system (eV)
  ---------------------------------------------------
  alpha Z        PSCENC =       339.31929130
  Ewald energy   TEWEN  =     -9065.36070443
  -1/2 Hartree   DENC   =     -8369.66179885
  -exchange  EXHF       =       338.96079203
  -V(xc)+E(xc)   XCENC  =       377.32097362
  PAW double counting   =     17400.67181735   -17939.79300532
  entropy T*S    EENTRO =        -0.00076956
  eigenvalues    EBANDS =     -1410.81966423
  atomic energy  EATOM  =     18320.98302006
  ---------------------------------------------------
  free energy    TOTEN  =        -8.38073798 eV

  energy without entropy =       -8.37996842  energy(sigma->0) =       -8.38048146


--------------------------------------------------------------------------------------------------------




----------------------------------------- Iteration    1(   3)  ---------------------------------------


    POTLOK:  cpu time    0.05: real time    0.05
    SETDIJ:  cpu time    1.96: real time    1.96
 
    SUBROT:  cpu time    0.89: real time    0.89
    SUBROT:  cpu time    0.41: real time    0.42
    SUBROT:  cpu time    0.42: real time    0.42
    SUBROT:  cpu time    0.41: real time    0.41
    --------------------------------------------
    SUBRT+:  cpu time    2.14: real time    2.16

 Broyden mixing:
  rms(total) = 0.28123E-01    rms(broyden)= 0.28112E-01
  rms(prec ) = 0.52425E-01
  weight for this iteration     100.00

 eigenvalues of (default mixing * dielectric matrix)
  average eigenvalue GAMMA=   1.7738
  1.0117  2.4995  1.8101
 
    TRIAL :  cpu time  263.44: real time  263.22
    CORREC:  cpu time    0.00: real time    0.00
    CHARGE:  cpu time    0.06: real time    0.06
    --------------------------------------------
      LOOP:  cpu time  265.52: real time  265.32

 eigenvalue-minimisations  :     0
 total energy-change (2. order) :-0.6849940E+01  (-0.2035942E+03)
 number of electron     112.0001510 magnetization 
 augmentation part       39.6815859 magnetization 

 Free energy of the ion-electron system (eV)
  ---------------------------------------------------
  alpha Z        PSCENC =       339.31929130
  Ewald energy   TEWEN  =     -9065.36070443
  -1/2 Hartree   DENC   =     -7478.16708447
  -exchange  EXHF       =       325.01880643
  -V(xc)+E(xc)   XCENC  =       357.41896556
  PAW double counting   =     15151.35645125   -15580.85068968
  entropy T*S    EENTRO =         0.00023121
  eigenvalues    EBANDS =     -2384.94796491
  atomic energy  EATOM  =     18320.98302006
  ---------------------------------------------------
  free energy    TOTEN  =       -15.23067845 eV

  energy without entropy =      -15.23090966  energy(sigma->0) =      -15.23075552


--------------------------------------------------------------------------------------------------------




----------------------------------------- Iteration    1(   4)  ---------------------------------------


    POTLOK:  cpu time    0.05: real time    0.05
    SETDIJ:  cpu time    1.97: real time    1.97
 
    SUBROT:  cpu time    0.89: real time    0.89
    SUBROT:  cpu time    0.44: real time    0.43
    SUBROT:  cpu time    0.41: real time    0.41
    SUBROT:  cpu time    0.42: real time    0.42
    SUBROT:  cpu time    0.43: real time    0.43
    --------------------------------------------
    SUBRT+:  cpu time    2.60: real time    2.61

 Broyden mixing:
  rms(total) = 0.11246E+00    rms(broyden)= 0.11227E+00
  rms(prec ) = 0.19831E+00
  weight for this iteration     100.00

 eigenvalues of (default mixing * dielectric matrix)
  average eigenvalue GAMMA=   1.2250
  2.5597  1.2955  0.6562  0.3885
 
    TRIAL :  cpu time  266.57: real time  266.34
    CORREC:  cpu time    0.00: real time    0.00
    CHARGE:  cpu time    0.10: real time    0.10
    --------------------------------------------
      LOOP:  cpu time  268.70: real time  268.48

 eigenvalue-minimisations  :     0
 total energy-change (2. order) :-0.7488823E+01  (-0.1072433E+03)
 number of electron     112.0001430 magnetization 
 augmentation part       37.2465177 magnetization 

 Free energy of the ion-electron system (eV)
  ---------------------------------------------------
  alpha Z        PSCENC =       339.31929130
  Ewald energy   TEWEN  =     -9065.36070443
  -1/2 Hartree   DENC   =     -8541.86267793
  -exchange  EXHF       =       342.99461563
  -V(xc)+E(xc)   XCENC  =       381.64088952
  PAW double counting   =     17628.82166044   -18209.34299868
  entropy T*S    EENTRO =         0.00035023
  eigenvalues    EBANDS =     -1219.91282869
  atomic energy  EATOM  =     18320.98302006
  ---------------------------------------------------
  free energy    TOTEN  =       -22.71950157 eV

  energy without entropy =      -22.71985180  energy(sigma->0) =      -22.71961831


--------------------------------------------------------------------------------------------------------




----------------------------------------- Iteration    1(   5)  ---------------------------------------


    POTLOK:  cpu time    0.05: real time    0.05
    SETDIJ:  cpu time    1.98: real time    1.98
 
    SUBROT:  cpu time    0.89: real time    0.89
    SUBROT:  cpu time    0.42: real time    0.42
    SUBROT:  cpu time    0.42: real time    0.42
    SUBROT:  cpu time    0.42: real time    0.42
    --------------------------------------------
    SUBRT+:  cpu time    2.15: real time    2.15

 Broyden mixing:
  rms(total) = 0.45505E-01    rms(broyden)= 0.45495E-01
  rms(prec ) = 0.92440E-01
  weight for this iteration     100.00

 eigenvalues of (default mixing * dielectric matrix)
  average eigenvalue GAMMA=   1.6845
  2.4599  0.9362  1.6574
 
    TRIAL :  cpu time  285.10: real time  284.85
    CORREC:  cpu time    0.01: real time    0.01
    CHARGE:  cpu time    0.09: real time    0.09
    --------------------------------------------
      LOOP:  cpu time  287.24: real time  286.99

 eigenvalue-minimisations  :     0
 total energy-change (2. order) :-0.3810670E+02  (-0.1504710E+02)
 number of electron     112.0001430 magnetization 
 augmentation part       37.2466150 magnetization 

 Free energy of the ion-electron system (eV)
  ---------------------------------------------------
  alpha Z        PSCENC =       339.31929130
  Ewald energy   TEWEN  =     -9065.36070443
  -1/2 Hartree   DENC   =     -8008.48006201
  -exchange  EXHF       =       336.40552902
  -V(xc)+E(xc)   XCENC  =       368.41506614
  PAW double counting   =     15870.49202159   -16339.93784530
  entropy T*S    EENTRO =         0.00062305
  eigenvalues    EBANDS =     -1882.66286996
  atomic energy  EATOM  =     18320.98302006
  ---------------------------------------------------
  free energy    TOTEN  =       -60.82620336 eV

  energy without entropy =      -60.82682641  energy(sigma->0) =      -60.82641105


--------------------------------------------------------------------------------------------------------




----------------------------------------- Iteration    1(   6)  ---------------------------------------


    POTLOK:  cpu time    0.09: real time    0.09
    SETDIJ:  cpu time    1.96: real time    1.96
 
    SUBROT:  cpu time    0.89: real time    0.90
    SUBROT:  cpu time    0.43: real time    0.43
    SUBROT:  cpu time    0.43: real time    0.43
    SUBROT:  cpu time    0.42: real time    0.42
    --------------------------------------------
    SUBRT+:  cpu time    2.18: real time    2.18

 Broyden mixing:
  rms(total) = 0.27349E-02    rms(broyden)= 0.27342E-02
  rms(prec ) = 0.45470E-02
  weight for this iteration     100.00

 eigenvalues of (default mixing * dielectric matrix)
  average eigenvalue GAMMA=   1.8153
  1.0140  1.9059  2.5260
 
    TRIAL :  cpu time  265.42: real time  265.19
    CORREC:  cpu time    0.00: real time    0.00
    CHARGE:  cpu time    0.10: real time    0.10
    --------------------------------------------
      LOOP:  cpu time  267.57: real time  267.34

 eigenvalue-minimisations  :     0
 total energy-change (2. order) :-0.5111933E+01  (-0.8166182E+01)
 number of electron     112.0001460 magnetization 
 augmentation part       38.2279543 magnetization 

 Free energy of the ion-electron system (eV)
  ---------------------------------------------------
  alpha Z        PSCENC =       339.31929130
  Ewald energy   TEWEN  =     -9065.36070443
  -1/2 Hartree   DENC   =     -8001.01501529
  -exchange  EXHF       =       337.15546020
  -V(xc)+E(xc)   XCENC  =       368.78716746
  PAW double counting   =     15771.01363372   -16240.00470594
  entropy T*S    EENTRO =         0.00070030
  eigenvalues    EBANDS =     -1896.81690647
  atomic energy  EATOM  =     18320.98302006
  ---------------------------------------------------
  free energy    TOTEN  =       -65.93813636 eV

  energy without entropy =      -65.93883665  energy(sigma->0) =      -65.93836979


--------------------------------------------------------------------------------------------------------




----------------------------------------- Iteration    1(   7)  ---------------------------------------


    POTLOK:  cpu time    0.06: real time    0.06
    SETDIJ:  cpu time    1.97: real time    1.97
 
    SUBROT:  cpu time    0.88: real time    0.88
    SUBROT:  cpu time    0.42: real time    0.42
    SUBROT:  cpu time    0.42: real time    0.42
    SUBROT:  cpu time    0.41: real time    0.42
    --------------------------------------------
    SUBRT+:  cpu time    2.13: real time    2.14

 Broyden mixing:
  rms(total) = 0.13224E-01    rms(broyden)= 0.13220E-01
  rms(prec ) = 0.23415E-01
  weight for this iteration     100.00

 eigenvalues of (default mixing * dielectric matrix)
  average eigenvalue GAMMA=   1.6117
  2.5019  0.8928  1.4403
 
    TRIAL :  cpu time  266.68: real time  266.83
    CORREC:  cpu time    0.00: real time    0.00
    CHARGE:  cpu time    0.10: real time    0.10
    --------------------------------------------
      LOOP:  cpu time  268.82: real time  268.97

 eigenvalue-minimisations  :     0
 total energy-change (2. order) :-0.1537374E+01  (-0.4131409E+01)
 number of electron     112.0001443 magnetization 
 augmentation part       37.7063153 magnetization 

 Free energy of the ion-electron system (eV)
  ---------------------------------------------------
  alpha Z        PSCENC =       339.31929130
  Ewald energy   TEWEN  =     -9065.36070443
  -1/2 Hartree   DENC   =     -8242.84185813
  -exchange  EXHF       =       341.62578192
  -V(xc)+E(xc)   XCENC  =       374.56020745
  PAW double counting   =     16206.92861533   -16710.25214933
  entropy T*S    EENTRO =         0.00046849
  eigenvalues    EBANDS =     -1632.43841453
  atomic energy  EATOM  =     18320.98302006
  ---------------------------------------------------
  free energy    TOTEN  =       -67.47551007 eV

  energy without entropy =      -67.47597856  energy(sigma->0) =      -67.47566623


--------------------------------------------------------------------------------------------------------




----------------------------------------- Iteration    1(   8)  ---------------------------------------


    POTLOK:  cpu time    0.05: real time    0.11
    SETDIJ:  cpu time    1.94: real time    2.49
 
    SUBROT:  cpu time    0.88: real time    0.88
    SUBROT:  cpu time    0.42: real time    0.42
    SUBROT:  cpu time    0.44: real time    0.44
    SUBROT:  cpu time    0.44: real time    0.44
    --------------------------------------------
    SUBRT+:  cpu time    2.17: real time    2.21

 Broyden mixing:
  rms(total) = 0.83548E-02    rms(broyden)= 0.83524E-02
  rms(prec ) = 0.14004E-01
  weight for this iteration     100.00

 eigenvalues of (default mixing * dielectric matrix)
  average eigenvalue GAMMA=   1.6765
  2.4562  0.9474  1.6259
 
    TRIAL :  cpu time  267.73: real time  267.66
    CORREC:  cpu time    0.00: real time    0.00
    CHARGE:  cpu time    0.08: real time    0.08
    --------------------------------------------
      LOOP:  cpu time  269.80: real time  270.34

 eigenvalue-minimisations  :     0
 total energy-change (2. order) :-0.1610068E+01  (-0.7699851E+00)
 number of electron     112.0001443 magnetization 
 augmentation part       37.7249963 magnetization 

 Free energy of the ion-electron system (eV)
  ---------------------------------------------------
  alpha Z        PSCENC =       339.31929130
  Ewald energy   TEWEN  =     -9065.36070443
  -1/2 Hartree   DENC   =     -8116.23953438
  -exchange  EXHF       =       339.52778091
  -V(xc)+E(xc)   XCENC  =       371.38537417
  PAW double counting   =     15916.08071254   -16397.43237823
  entropy T*S    EENTRO =         0.00075445
  eigenvalues    EBANDS =     -1777.34960830
  atomic energy  EATOM  =     18320.98302006
  ---------------------------------------------------
  free energy    TOTEN  =       -69.08557787 eV

  energy without entropy =      -69.08633232  energy(sigma->0) =      -69.08582935


--------------------------------------------------------------------------------------------------------




----------------------------------------- Iteration    1(   9)  ---------------------------------------


    POTLOK:  cpu time    0.05: real time    0.05
    SETDIJ:  cpu time    1.95: real time    1.95
 
    SUBROT:  cpu time    0.91: real time    0.91
    SUBROT:  cpu time    0.44: real time    0.44
    SUBROT:  cpu time    0.43: real time    0.43
    SUBROT:  cpu time    0.43: real time    0.43
    --------------------------------------------
    SUBRT+:  cpu time    2.21: real time    2.22

 Broyden mixing:
  rms(total) = 0.52231E-03    rms(broyden)= 0.52170E-03
  rms(prec ) = 0.82960E-03
  weight for this iteration     100.00

 eigenvalues of (default mixing * dielectric matrix)
  average eigenvalue GAMMA=   1.7085
  2.5259  1.0027  1.5970
 
    TRIAL :  cpu time  264.48: real time  264.39
    CORREC:  cpu time    0.00: real time    0.00
    CHARGE:  cpu time    0.10: real time    0.10
    --------------------------------------------
      LOOP:  cpu time  266.59: real time  266.51

 eigenvalue-minimisations  :     0
 total energy-change (2. order) :-0.3095612E+00  (-0.3861873E+00)
 number of electron     112.0001449 magnetization 
 augmentation part       37.9059639 magnetization 

 Free energy of the ion-electron system (eV)
  ---------------------------------------------------
  alpha Z        PSCENC =       339.31929130
  Ewald energy   TEWEN  =     -9065.36070443
  -1/2 Hartree   DENC   =     -8123.78205377
  -exchange  EXHF       =       339.59974800
  -V(xc)+E(xc)   XCENC  =       371.44649373
  PAW double counting   =     15912.25896712   -16393.50340337
  entropy T*S    EENTRO =         0.00089515
  eigenvalues    EBANDS =     -1770.35725215
  atomic energy  EATOM  =     18320.98302006
  ---------------------------------------------------
  free energy    TOTEN  =       -69.39513905 eV

  energy without entropy =      -69.39603420  energy(sigma->0) =      -69.39543744


--------------------------------------------------------------------------------------------------------




----------------------------------------- Iteration    1(  10)  ---------------------------------------


    POTLOK:  cpu time    0.06: real time    0.06
    SETDIJ:  cpu time    1.97: real time    1.97
 
    SUBROT:  cpu time    1.61: real time    1.61
    SUBROT:  cpu time    0.65: real time    0.65
    SUBROT:  cpu time    0.70: real time    0.70
    SUBROT:  cpu time    0.81: real time    0.81
    --------------------------------------------
    SUBRT+:  cpu time    3.77: real time    3.78

 Broyden mixing:
  rms(total) = 0.22893E-02    rms(broyden)= 0.22888E-02
  rms(prec ) = 0.38537E-02
  weight for this iteration     100.00

 eigenvalues of (default mixing * dielectric matrix)
  average eigenvalue GAMMA=   1.6892
  2.4747  0.9895  1.6036
 
    TRIAL :  cpu time  275.75: real time  275.66
    CORREC:  cpu time    0.00: real time    0.00
    CHARGE:  cpu time    0.10: real time    0.10
    --------------------------------------------
      LOOP:  cpu time  277.88: real time  277.79

 eigenvalue-minimisations  :     0
 total energy-change (2. order) :-0.1037657E+00  (-0.1520995E+00)
 number of electron     112.0001447 magnetization 
 augmentation part       37.8189999 magnetization 

 Free energy of the ion-electron system (eV)
  ---------------------------------------------------
  alpha Z        PSCENC =       339.31929130
  Ewald energy   TEWEN  =     -9065.36070443
  -1/2 Hartree   DENC   =     -8171.08031189
  -exchange  EXHF       =       340.40162911
  -V(xc)+E(xc)   XCENC  =       372.54173771
  PAW double counting   =     15993.93817989   -16481.90504182
  entropy T*S    EENTRO =         0.00076805
  eigenvalues    EBANDS =     -1718.33759979
  atomic energy  EATOM  =     18320.98302006
  ---------------------------------------------------
  free energy    TOTEN  =       -69.49890471 eV

  energy without entropy =      -69.49967277  energy(sigma->0) =      -69.49916073


--------------------------------------------------------------------------------------------------------




----------------------------------------- Iteration    1(  11)  ---------------------------------------


    POTLOK:  cpu time    0.05: real time    0.05
    SETDIJ:  cpu time    1.87: real time    1.87
 
    SUBROT:  cpu time    0.92: real time    0.92
    SUBROT:  cpu time    0.45: real time    0.45
    SUBROT:  cpu time    0.44: real time    0.44
    SUBROT:  cpu time    0.45: real time    0.45
    --------------------------------------------
    SUBRT+:  cpu time    2.25: real time    2.25

 Broyden mixing:
  rms(total) = 0.77710E-03    rms(broyden)= 0.77686E-03
  rms(prec ) = 0.15575E-02
  weight for this iteration     100.00

 eigenvalues of (default mixing * dielectric matrix)
  average eigenvalue GAMMA=   1.6753
  2.4940  0.9848  1.5473
 
    TRIAL :  cpu time  262.45: real time  262.35
    CORREC:  cpu time    0.00: real time    0.00
    CHARGE:  cpu time    0.10: real time    0.10
    --------------------------------------------
      LOOP:  cpu time  264.48: real time  264.37

 eigenvalue-minimisations  :     0
 total energy-change (2. order) :-0.6954223E-01  (-0.3690077E-01)
 number of electron     112.0001446 magnetization 
 augmentation part       37.7862063 magnetization 

 Free energy of the ion-electron system (eV)
  ---------------------------------------------------
  alpha Z        PSCENC =       339.31929130
  Ewald energy   TEWEN  =     -9065.36070443
  -1/2 Hartree   DENC   =     -8149.75886874
  -exchange  EXHF       =       340.07390151
  -V(xc)+E(xc)   XCENC  =       372.06948195
  PAW double counting   =     15942.04664016   -16426.98039944
  entropy T*S    EENTRO =         0.00064067
  eigenvalues    EBANDS =     -1741.96157736
  atomic energy  EATOM  =     18320.98302006
  ---------------------------------------------------
  free energy    TOTEN  =       -69.56844694 eV

  energy without entropy =      -69.56908761  energy(sigma->0) =      -69.56866050


--------------------------------------------------------------------------------------------------------




----------------------------------------- Iteration    1(  12)  ---------------------------------------


    POTLOK:  cpu time    0.06: real time    0.06
    SETDIJ:  cpu time    1.94: real time    1.94
 
    SUBROT:  cpu time    0.91: real time    0.91
    SUBROT:  cpu time    0.43: real time    0.43
    SUBROT:  cpu time    0.43: real time    0.43
    SUBROT:  cpu time    0.44: real time    0.44
    --------------------------------------------
    SUBRT+:  cpu time    2.21: real time    2.23

 Broyden mixing:
  rms(total) = 0.20825E-03    rms(broyden)= 0.20816E-03
  rms(prec ) = 0.45568E-03
  weight for this iteration     100.00

 eigenvalues of (default mixing * dielectric matrix)
  average eigenvalue GAMMA=   1.6560
  2.5051  0.9997  1.4632
 
    TRIAL :  cpu time  270.75: real time  270.66
    CORREC:  cpu time    0.00: real time    0.01
    CHARGE:  cpu time    0.11: real time    0.11
    --------------------------------------------
      LOOP:  cpu time  272.87: real time  272.78

 eigenvalue-minimisations  :     0
 total energy-change (2. order) :-0.1234429E-01  (-0.2282218E-01)
 number of electron     112.0001447 magnetization 
 augmentation part       37.8264581 magnetization 

 Free energy of the ion-electron system (eV)
  ---------------------------------------------------
  alpha Z        PSCENC =       339.31929130
  Ewald energy   TEWEN  =     -9065.36070443
  -1/2 Hartree   DENC   =     -8141.38641733
  -exchange  EXHF       =       339.95797815
  -V(xc)+E(xc)   XCENC  =       371.89467650
  PAW double counting   =     15920.26538595   -16404.11375833
  entropy T*S    EENTRO =         0.00058522
  eigenvalues    EBANDS =     -1751.14090377
  atomic energy  EATOM  =     18320.98302006
  ---------------------------------------------------
  free energy    TOTEN  =       -69.58079123 eV

  energy without entropy =      -69.58137645  energy(sigma->0) =      -69.58098631


--------------------------------------------------------------------------------------------------------




----------------------------------------- Iteration    1(  13)  ---------------------------------------


    POTLOK:  cpu time    0.05: real time    0.05
    SETDIJ:  cpu time    1.97: real time    1.97
 
    SUBROT:  cpu time    1.36: real time    1.36
    SUBROT:  cpu time    0.66: real time    0.66
    SUBROT:  cpu time    0.75: real time    0.75
    SUBROT:  cpu time    0.67: real time    0.67
    --------------------------------------------
    SUBRT+:  cpu time    3.44: real time    3.45

 Broyden mixing:
  rms(total) = 0.55293E-03    rms(broyden)= 0.55282E-03
  rms(prec ) = 0.94101E-03
  weight for this iteration     100.00

 eigenvalues of (default mixing * dielectric matrix)
  average eigenvalue GAMMA=   1.6981
  2.4795  0.9967  1.6182
 
    TRIAL :  cpu time  268.25: real time  268.02
    CORREC:  cpu time    0.00: real time    0.00
    CHARGE:  cpu time    0.09: real time    0.09
    --------------------------------------------
      LOOP:  cpu time  270.37: real time  270.16

 eigenvalue-minimisations  :     0
 total energy-change (2. order) :-0.9647795E-02  (-0.5115356E-02)
 number of electron     112.0001447 magnetization 
 augmentation part       37.8303587 magnetization 

 Free energy of the ion-electron system (eV)
  ---------------------------------------------------
  alpha Z        PSCENC =       339.31929130
  Ewald energy   TEWEN  =     -9065.36070443
  -1/2 Hartree   DENC   =     -8151.26766602
  -exchange  EXHF       =       340.13031177
  -V(xc)+E(xc)   XCENC  =       372.12841289
  PAW double counting   =     15936.48894332   -16421.82775169
  entropy T*S    EENTRO =         0.00057492
  eigenvalues    EBANDS =     -1740.18488144
  atomic energy  EATOM  =     18320.98302006
  ---------------------------------------------------
  free energy    TOTEN  =       -69.59043903 eV

  energy without entropy =      -69.59101395  energy(sigma->0) =      -69.59063067


--------------------------------------------------------------------------------------------------------




----------------------------------------- Iteration    1(  14)  ---------------------------------------


    POTLOK:  cpu time    0.05: real time    0.05
    SETDIJ:  cpu time    2.01: real time    2.01
 
    SUBROT:  cpu time    0.92: real time    0.92
    SUBROT:  cpu time    0.44: real time    0.44
    SUBROT:  cpu time    0.44: real time    0.44
    SUBROT:  cpu time    0.43: real time    0.43
    --------------------------------------------
    SUBRT+:  cpu time    2.23: real time    2.24

 Broyden mixing:
  rms(total) = 0.68344E-04    rms(broyden)= 0.68329E-04
  rms(prec ) = 0.14024E-03
  weight for this iteration     100.00

 eigenvalues of (default mixing * dielectric matrix)
  average eigenvalue GAMMA=   1.6761
  2.5149  0.9911  1.5223
 
    TRIAL :  cpu time  268.63: real time  268.40
    CORREC:  cpu time    0.00: real time    0.00
    CHARGE:  cpu time    0.11: real time    0.11
    --------------------------------------------
      LOOP:  cpu time  270.80: real time  270.57

 eigenvalue-minimisations  :     0
 total energy-change (2. order) :-0.2451376E-02  (-0.3775945E-02)
 number of electron     112.0001446 magnetization 
 augmentation part       37.8128317 magnetization 

 Free energy of the ion-electron system (eV)
  ---------------------------------------------------
  alpha Z        PSCENC =       339.31929130
  Ewald energy   TEWEN  =     -9065.36070443
  -1/2 Hartree   DENC   =     -8151.80382795
  -exchange  EXHF       =       340.12852902
  -V(xc)+E(xc)   XCENC  =       372.13789576
  PAW double counting   =     15934.46755318   -16419.96927931
  entropy T*S    EENTRO =         0.00059617
  eigenvalues    EBANDS =     -1739.49594296
  atomic energy  EATOM  =     18320.98302006
  ---------------------------------------------------
  free energy    TOTEN  =       -69.59289041 eV

  energy without entropy =      -69.59348658  energy(sigma->0) =      -69.59308913


--------------------------------------------------------------------------------------------------------




----------------------------------------- Iteration    1(  15)  ---------------------------------------


    POTLOK:  cpu time    0.05: real time    0.05
    SETDIJ:  cpu time    2.01: real time    2.01
 
    SUBROT:  cpu time    0.91: real time    0.91
    SUBROT:  cpu time    0.43: real time    0.43
    SUBROT:  cpu time    0.43: real time    0.43
    SUBROT:  cpu time    0.43: real time    0.43
    --------------------------------------------
    SUBRT+:  cpu time    2.21: real time    2.22

 Broyden mixing:
  rms(total) = 0.19372E-03    rms(broyden)= 0.19366E-03
  rms(prec ) = 0.33102E-03
  weight for this iteration     100.00

 eigenvalues of (default mixing * dielectric matrix)
  average eigenvalue GAMMA=   1.6900
  2.4715  0.9898  1.6087
 
    TRIAL :  cpu time  270.34: real time  270.10
    CORREC:  cpu time    0.00: real time    0.00
    CHARGE:  cpu time    0.10: real time    0.10
    --------------------------------------------
      LOOP:  cpu time  272.50: real time  272.27

 eigenvalue-minimisations  :     0
 total energy-change (2. order) :-0.1502906E-02  (-0.1036196E-02)
 number of electron     112.0001447 magnetization 
 augmentation part       37.8171617 magnetization 

 Free energy of the ion-electron system (eV)
  ---------------------------------------------------
  alpha Z        PSCENC =       339.31929130
  Ewald energy   TEWEN  =     -9065.36070443
  -1/2 Hartree   DENC   =     -8147.09926827
  -exchange  EXHF       =       340.03950973
  -V(xc)+E(xc)   XCENC  =       372.02676457
  PAW double counting   =     15922.43660580   -16407.32756495
  entropy T*S    EENTRO =         0.00061012
  eigenvalues    EBANDS =     -1744.61264330
  atomic energy  EATOM  =     18320.98302006
  ---------------------------------------------------
  free energy    TOTEN  =       -69.59439331 eV

  energy without entropy =      -69.59500343  energy(sigma->0) =      -69.59459668


--------------------------------------------------------------------------------------------------------




----------------------------------------- Iteration    1(  16)  ---------------------------------------


    POTLOK:  cpu time    0.05: real time    0.05
    SETDIJ:  cpu time    2.01: real time    2.01
 
    SUBROT:  cpu time    0.91: real time    0.91
    SUBROT:  cpu time    0.44: real time    0.44
    SUBROT:  cpu time    0.44: real time    0.44
    SUBROT:  cpu time    0.44: real time    0.44
    --------------------------------------------
    SUBRT+:  cpu time    2.22: real time    2.23

 Broyden mixing:
  rms(total) = 0.83783E-04    rms(broyden)= 0.83765E-04
  rms(prec ) = 0.14012E-03
  weight for this iteration     100.00

 eigenvalues of (default mixing * dielectric matrix)
  average eigenvalue GAMMA=   1.6894
  2.4858  0.9900  1.5922
 
    TRIAL :  cpu time  266.61: real time  266.38
    CORREC:  cpu time    0.00: real time    0.00
    CHARGE:  cpu time    0.10: real time    0.10
    --------------------------------------------
      LOOP:  cpu time  268.77: real time  268.55

 eigenvalue-minimisations  :     0
 total energy-change (2. order) :-0.5696637E-03  (-0.4086901E-03)
 number of electron     112.0001447 magnetization 
 augmentation part       37.8219663 magnetization 

 Free energy of the ion-electron system (eV)
  ---------------------------------------------------
  alpha Z        PSCENC =       339.31929130
  Ewald energy   TEWEN  =     -9065.36070443
  -1/2 Hartree   DENC   =     -8148.21994262
  -exchange  EXHF       =       340.05811694
  -V(xc)+E(xc)   XCENC  =       372.05397993
  PAW double counting   =     15923.30523297   -16408.38468794
  entropy T*S    EENTRO =         0.00061023
  eigenvalues    EBANDS =     -1743.34987931
  atomic energy  EATOM  =     18320.98302006
  ---------------------------------------------------
  free energy    TOTEN  =       -69.59496298 eV

[...]
     22      -2.2904      2.00000
     23      -1.9504      2.00000
     24      -1.6205      2.00000
     25      -1.2186      2.00000
     26      -1.0028      2.00000
     27      -0.9755      2.00000
     28      -0.7146      2.00000
     29      -0.5461      2.00000
     30      -0.3895      2.00000
     31      -0.2870      2.00000
     32      -0.1962      2.00000
     33      -0.1809      2.00000
     34      -0.1402      2.00000
     35      -0.0184      2.00000
     36       0.0194      2.00000
     37       1.2979      2.00000
     38       1.3086      2.00000
     39       1.3695      2.00000
     40       1.4123      2.00000
     41       1.4540      2.00000
     42       1.4685      2.00000
     43       1.5060      2.00000
     44       1.5511      2.00000
     45       1.7640      2.00000
     46       1.8942      2.00000
     47       1.9835      2.00000
     48       2.1545      2.00000
     49       2.3709      2.00000
     50       2.5749      2.00000
     51       2.7054      2.00000
     52       2.9084      2.00000
     53       3.0120      2.00000
     54       3.2203      2.00000
     55       3.4014      2.00000
     56       3.6557      2.00000
     57       6.3881     -0.00000
     58       6.5167     -0.00000
     59       7.7188      0.00000
     60       7.9081      0.00000
     61       8.2966      0.00000
     62       8.5720      0.00000
     63       9.3242      0.00000
     64       9.8417      0.00000
     65      10.0283      0.00000
     66      10.3517      0.00000
     67      10.5841      0.00000
     68      10.7793      0.00000
     69      10.9761      0.00000
     70      11.2586      0.00000
     71      11.3078      0.00000
     72      11.7042      0.00000
     73      12.2534      0.00000
     74      12.4597      0.00000
     75      13.0931      0.00000
     76      13.4813      0.00000
     77      13.8230      0.00000
     78      14.6891      0.00000
     79      15.0020      0.00000
     80      15.7121      0.00000

 k-point  40 :       0.2500   -0.2500    0.4000
  band No.  band energies     occupation 
      1     -68.6450      2.00000
      2     -68.6386      2.00000
      3     -68.6353      2.00000
      4     -68.6336      2.00000
      5     -68.6129      2.00000
      6     -68.6045      2.00000
      7     -68.5957      2.00000
      8     -68.5859      2.00000
      9     -68.5826      2.00000
     10     -68.5778      2.00000
     11     -68.5647      2.00000
     12     -68.5610      2.00000
     13     -12.2239      2.00000
     14     -11.8206      2.00000
     15     -10.8236      2.00000
     16     -10.6693      2.00000
     17     -10.3498      2.00000
     18     -10.2773      2.00000
     19      -5.4474      2.00000
     20      -5.1179      2.00000
     21      -2.4319      2.00000
     22      -2.1583      2.00000
     23      -2.0154      2.00000
     24      -1.5235      2.00000
     25      -1.3552      2.00000
     26      -1.1653      2.00000
     27      -0.9392      2.00000
     28      -0.8149      2.00000
     29      -0.5832      2.00000
     30      -0.5310      2.00000
     31      -0.2764      2.00000
     32      -0.2353      2.00000
     33      -0.1338      2.00000
     34      -0.0918      2.00000
     35      -0.0239      2.00000
     36       0.0349      2.00000
     37       1.3137      2.00000
     38       1.3473      2.00000
     39       1.3659      2.00000
     40       1.4003      2.00000
     41       1.4528      2.00000
     42       1.4817      2.00000
     43       1.4985      2.00000
     44       1.5648      2.00000
     45       1.8021      2.00000
     46       1.8475      2.00000
     47       1.9601      2.00000
     48       2.1090      2.00000
     49       2.2981      2.00000
     50       2.5317      2.00000
     51       2.6392      2.00000
     52       2.7692      2.00000
     53       2.9304      2.00000
     54       3.1591      2.00000
     55       3.3034      2.00000
     56       3.5739      2.00000
     57       6.5653     -0.00000
     58       6.7243     -0.00000
     59       7.9667      0.00000
     60       8.0009      0.00000
     61       8.7291      0.00000
     62       9.0916      0.00000
     63       9.4623      0.00000
     64       9.8270      0.00000
     65      10.2931      0.00000
     66      10.3695      0.00000
     67      10.7735      0.00000
     68      10.8499      0.00000
     69      11.1122      0.00000
     70      11.2707      0.00000
     71      11.3677      0.00000
     72      11.6201      0.00000
     73      12.0455      0.00000
     74      12.2950      0.00000
     75      12.6470      0.00000
     76      13.1224      0.00000
     77      13.2775      0.00000
     78      14.2444      0.00000
     79      15.6328      0.00000
     80      15.8441      0.00000

 k-point  41 :       0.5000   -0.2500    0.4000
  band No.  band energies     occupation 
      1     -68.6449      2.00000
      2     -68.6383      2.00000
      3     -68.6352      2.00000
      4     -68.6335      2.00000
      5     -68.6129      2.00000
      6     -68.6045      2.00000
      7     -68.5955      2.00000
      8     -68.5857      2.00000
      9     -68.5826      2.00000
     10     -68.5779      2.00000
     11     -68.5646      2.00000
     12     -68.5609      2.00000
     13     -12.0831      2.00000
     14     -11.7792      2.00000
     15     -10.8458      2.00000
     16     -10.7593      2.00000
     17     -10.5324      2.00000
     18     -10.3163      2.00000
     19      -5.4202      2.00000
     20      -4.9399      2.00000
     21      -2.4034      2.00000
     22      -2.1351      2.00000
     23      -1.8622      2.00000
     24      -1.7241      2.00000
     25      -1.4428      2.00000
     26      -1.1245      2.00000
     27      -0.8827      2.00000
     28      -0.6465      2.00000
     29      -0.5996      2.00000
     30      -0.4515      2.00000
     31      -0.2612      2.00000
     32      -0.1791      2.00000
     33      -0.1190      2.00000
     34      -0.0539      2.00000
     35      -0.0199      2.00000
     36       0.0231      2.00000
     37       1.2638      2.00000
     38       1.3169      2.00000
     39       1.4124      2.00000
     40       1.4372      2.00000
     41       1.4836      2.00000
     42       1.4963      2.00000
     43       1.5145      2.00000
     44       1.5755      2.00000
     45       1.7615      2.00000
     46       1.8431      2.00000
     47       2.1178      2.00000
     48       2.1829      2.00000
     49       2.3687      2.00000
     50       2.4609      2.00000
     51       2.4936      2.00000
     52       2.6964      2.00000
     53       2.8229      2.00000
     54       3.0894      2.00000
     55       3.2889      2.00000
     56       3.5244      2.00000
     57       6.4949     -0.00000
     58       6.5963     -0.00000
     59       7.4552      0.00000
     60       7.7170      0.00000
     61       8.5891      0.00000
     62       8.7491      0.00000
     63       9.3030      0.00000
     64       9.5305      0.00000
     65       9.9440      0.00000
     66      10.1863      0.00000
     67      10.6804      0.00000
     68      11.1160      0.00000
     69      11.2499      0.00000
     70      11.5644      0.00000
     71      11.7091      0.00000
     72      11.8941      0.00000
     73      12.2962      0.00000
     74      12.6536      0.00000
     75      13.0066      0.00000
     76      13.2318      0.00000
     77      13.6663      0.00000
     78      14.0760      0.00000
     79      14.4040      0.00000
     80      16.5597      0.00000

 k-point  42 :      -0.2500   -0.2500    0.4000
  band No.  band energies     occupation 
      1     -68.6451      2.00000
      2     -68.6384      2.00000
      3     -68.6353      2.00000
      4     -68.6335      2.00000
      5     -68.6129      2.00000
      6     -68.6045      2.00000
      7     -68.5955      2.00000
      8     -68.5857      2.00000
      9     -68.5826      2.00000
     10     -68.5779      2.00000
     11     -68.5648      2.00000
     12     -68.5611      2.00000
     13     -12.1820      2.00000
     14     -11.7088      2.00000
     15     -10.7173      2.00000
     16     -10.6929      2.00000
     17     -10.5875      2.00000
     18     -10.3915      2.00000
     19      -5.4469      2.00000
     20      -5.0708      2.00000
     21      -2.5096      2.00000
     22      -2.3828      2.00000
     23      -1.9645      2.00000
     24      -1.3653      2.00000
     25      -1.3317      2.00000
     26      -1.0566      2.00000
     27      -0.8272      2.00000
     28      -0.7668      2.00000
     29      -0.4237      2.00000
     30      -0.3386      2.00000
     31      -0.2731      2.00000
     32      -0.2080      2.00000
     33      -0.1402      2.00000
     34      -0.1385      2.00000
     35      -0.0135      2.00000
     36       0.0299      2.00000
     37       1.1742      2.00000
     38       1.3718      2.00000
     39       1.3985      2.00000
     40       1.4532      2.00000
     41       1.4566      2.00000
     42       1.4983      2.00000
     43       1.5179      2.00000
     44       1.5519      2.00000
     45       1.7435      2.00000
     46       1.8225      2.00000
     47       1.9772      2.00000
     48       2.2296      2.00000
     49       2.3958      2.00000
     50       2.6104      2.00000
     51       2.6550      2.00000
     52       2.9135      2.00000
     53       3.0699      2.00000
     54       3.1166      2.00000
     55       3.2884      2.00000
     56       3.5845      2.00000
     57       6.2976     -0.00000
     58       6.3803     -0.00000
     59       7.3614      0.00000
     60       7.5228      0.00000
     61       8.3077      0.00000
     62       8.3383      0.00000
     63       9.1062      0.00000
     64       9.3558      0.00000
     65       9.7182      0.00000
     66       9.9473      0.00000
     67      10.5228      0.00000
     68      10.9890      0.00000
     69      11.4239      0.00000
     70      11.5624      0.00000
     71      12.0205      0.00000
     72      12.2826      0.00000
     73      12.4292      0.00000
     74      12.4776      0.00000
     75      13.0318      0.00000
     76      13.1521      0.00000
     77      14.1377      0.00000
     78      14.4351      0.00000
     79      15.1648      0.00000
     80      15.8617      0.00000


--------------------------------------------------------------------------------------------------------


 soft charge-density along one line, spin component           1
         0         1         2         3         4         5         6         7         8         9
 total charge-density along one line
 
 pseudopotential strength for first ion, spin component:           1
-65.416   0.002   0.007   7.360   0.000  -0.003   0.001   0.008
  0.002 -65.387  -0.005   0.000   7.350   0.002  -0.001  -0.025
  0.007  -0.005 -65.377  -0.003   0.002   7.346  -0.037  -0.001
  7.360   0.000  -0.003   6.111   0.000   0.001   0.002  -0.004
  0.000   7.350   0.002   0.000   6.114  -0.000   0.000   0.007
 -0.003   0.002   7.346   0.001  -0.000   6.115   0.009   0.000
  0.001  -0.001  -0.037   0.002   0.000   0.009  -2.972  -0.003
  0.008  -0.025  -0.001  -0.004   0.007   0.000  -0.003  -2.978
  0.022   0.043   0.009  -0.005  -0.008  -0.003  -0.004   0.008
 -0.001  -0.017   0.008   0.000   0.005  -0.004   0.004   0.008
  0.026  -0.000  -0.035  -0.007   0.000   0.007  -0.000   0.007
  0.001  -0.001  -0.037   0.002   0.000   0.009  -3.619  -0.003
  0.008  -0.024  -0.001  -0.004   0.007   0.000  -0.003  -3.624
  0.022   0.042   0.009  -0.005  -0.008  -0.003  -0.004   0.008
 -0.001  -0.017   0.007   0.000   0.005  -0.004   0.004   0.008
  0.026  -0.000  -0.034  -0.007   0.000   0.007  -0.000   0.007
  0.008  -0.005   0.004  -0.001   0.001  -0.001  -0.002   0.001
  0.016  -0.010   0.009  -0.002   0.001  -0.002  -0.004   0.001
 total augmentation occupancy for first ion, spin component:           1
  2.000  -0.000   0.000  -0.003  -0.000   0.000   0.007  -0.005   0.000  -0.001  -0.005  -0.008   0.005  -0.001   0.001   0.005
 -0.000   2.000  -0.000  -0.000  -0.003   0.000  -0.001   0.005   0.004   0.001   0.000   0.001  -0.005  -0.005  -0.001  -0.000
  0.000  -0.000   2.000   0.000   0.000  -0.003  -0.000  -0.000  -0.001  -0.005  -0.004   0.000   0.000   0.001   0.005   0.005
 -0.003  -0.000   0.000   0.094   0.006  -0.005  -0.330   0.229  -0.075   0.010   0.014   0.277  -0.193   0.059  -0.005  -0.008
 -0.000  -0.003   0.000   0.006   0.102   0.001   0.019  -0.045  -0.444   0.016   0.012  -0.012   0.035   0.376  -0.012  -0.010
  0.000   0.000  -0.003  -0.005   0.001   0.099   0.099  -0.004  -0.014   0.235   0.353  -0.079   0.003   0.012  -0.201  -0.296
  0.007  -0.001  -0.000  -0.330   0.019   0.099   3.996  -0.783   0.098   0.220   0.153  -1.723   0.734  -0.092  -0.187  -0.147
 -0.005   0.005  -0.000   0.229  -0.045  -0.004  -0.783   3.495   0.287   0.154   0.289   0.733  -1.255  -0.211  -0.109  -0.198
  0.000   0.004  -0.001  -0.075  -0.444  -0.014   0.098   0.287   4.687  -0.045  -0.116  -0.093  -0.212  -2.396   0.038   0.087
 -0.001   0.001  -0.005   0.010   0.016   0.235   0.220   0.154  -0.045   3.627   0.792  -0.187  -0.109   0.038  -1.347  -0.755
 -0.005   0.000  -0.004   0.014   0.012   0.353   0.153   0.289  -0.116   0.792   3.986  -0.148  -0.197   0.087  -0.755  -1.732
 -0.008   0.001   0.000   0.277  -0.012  -0.079  -1.723   0.733  -0.093  -0.187  -0.148   1.429  -0.685   0.087   0.160   0.142
  0.005  -0.005   0.000  -0.193   0.035   0.003   0.734  -1.255  -0.212  -0.109  -0.197  -0.685   0.992   0.150   0.072   0.124
 -0.001  -0.005   0.001   0.059   0.376   0.012  -0.092  -0.211  -2.396   0.038   0.087   0.087   0.150   2.079  -0.032  -0.065
  0.001  -0.001   0.005  -0.005  -0.012  -0.201  -0.187  -0.109   0.038  -1.347  -0.755   0.160   0.072  -0.032   1.054   0.718
  0.005  -0.000   0.005  -0.008  -0.010  -0.296  -0.147  -0.198   0.087  -0.755  -1.732   0.142   0.124  -0.065   0.718   1.452
 -0.025   0.016  -0.013  -0.022   0.012  -0.007   0.090  -0.110  -0.027  -0.012   0.018  -0.071   0.096   0.038   0.010   0.011
  0.012  -0.008   0.006   0.002  -0.001   0.000  -0.010   0.004  -0.003   0.005  -0.018   0.005  -0.006  -0.002  -0.001   0.002


------------------------ aborting loop because EDIFF is reached ----------------------------------------


    FORLOC:  cpu time    0.00: real time    0.00
    FORHF :  cpu time  479.72: real time  479.64
    FORNL :  cpu time    0.39: real time    0.39
    FORCOR:  cpu time    2.06: real time    2.06

 VOLUME and BASIS-vectors are now :
 -----------------------------------------------------------------------------
  energy-cutoff  :      400.00
  volume of cell :      221.90
      direct lattice vectors                 reciprocal lattice vectors
     3.224796000 -5.643830000  0.031572000     0.154525165 -0.088592321  0.053460880
     3.224796000  5.643830000  0.031572000     0.154525165  0.088592321  0.053460880
    -2.101946000  0.000000000  6.075537000    -0.001606004  0.000000000  0.164038877

  length of vectors
     6.500240234  6.500240234  6.428866683     0.185969598  0.185969598  0.164046738


 FORCES acting on ions:
    Electron-Ion                     Ewald-Force                    Non-Local-Force
 -----------------------------------------------------------------------------------------------
   -.155E+02 -.992E+02 0.125E+02   0.143E+02 0.968E+02 -.109E+02   0.106E+01 0.217E+01 -.144E+01
   -.145E+02 0.970E+02 0.115E+02   0.133E+02 -.946E+02 -.993E+01   0.103E+01 -.210E+01 -.142E+01
   0.244E+02 -.161E+02 0.392E+01   -.212E+02 0.159E+02 -.265E+01   -.284E+01 0.176E+00 -.110E+01
   0.253E+02 0.167E+02 0.433E+01   -.220E+02 -.165E+02 -.305E+01   -.284E+01 -.159E+00 -.112E+01
   -.109E+02 -.313E+02 -.112E+02   0.102E+02 0.300E+02 0.100E+02   0.679E+00 0.134E+01 0.114E+01
   -.107E+02 0.314E+02 -.113E+02   0.999E+01 -.300E+02 0.101E+02   0.664E+00 -.132E+01 0.114E+01
   -.135E+03 -.982E+01 -.493E+02   0.132E+03 0.985E+01 0.484E+02   0.279E+01 -.300E-01 0.740E+00
   0.724E+02 -.124E+03 0.959E+02   -.706E+02 0.121E+03 -.938E+02   -.159E+01 0.223E+01 -.188E+01
   0.666E+02 -.133E+03 -.497E+02   -.651E+02 0.130E+03 0.488E+02   -.135E+01 0.218E+01 0.883E+00
   0.703E+02 0.126E+03 0.962E+02   -.686E+02 -.123E+03 -.942E+02   -.156E+01 -.229E+01 -.188E+01
   -.135E+03 0.970E+01 -.492E+02   0.132E+03 -.975E+01 0.483E+02   0.280E+01 0.457E-01 0.730E+00
   0.665E+02 0.132E+03 -.498E+02   -.650E+02 -.130E+03 0.488E+02   -.135E+01 -.216E+01 0.881E+00
 -----------------------------------------------------------------------------------------------
   0.278E+01 -.918E-01 0.376E+01   -.284E-13 0.000E+00 -.639E-13   -.251E+01 0.893E-01 -.332E+01
 
 
 POSITION                                       TOTAL-FORCE (eV/Angst)
 -----------------------------------------------------------------------------------
      2.13385     -2.80652      0.74958         0.005195      0.010025     -0.004276
      1.08288      2.80652      3.78735        -0.002654      0.000763      0.000104
      5.40423     -0.97432      0.77721         0.011190     -0.002200      0.004329
      4.35326      0.97432      3.81498         0.002376      0.000063      0.000654
      1.02081     -0.97328      3.66185         0.003853      0.014276     -0.000229
      2.07178      0.97328      0.62409        -0.010111      0.023350      0.009991
      2.15090      4.69667      3.05304         0.003805      0.001237      0.002460
      1.11712     -0.88891      5.98625        -0.019485     -0.080062     -0.006932
      2.14287     -2.74882      3.03886        -0.001985      0.006016      0.000009
      2.16313      0.89759      2.94844        -0.000971      0.007182     -0.003914
      1.09993     -4.69667      6.09081         0.008650      0.007220     -0.001687
      1.09189      2.74882      6.07662         0.000137      0.012130     -0.000510
 -----------------------------------------------------------------------------------
    total drift:                               -0.058957     -0.000926     -0.054017


--------------------------------------------------------------------------------------------------------



  FREE ENERGIE OF THE ION-ELECTRON SYSTEM (eV)
  ---------------------------------------------------
  free  energy   TOTEN  =       -69.59530798 eV

  energy  without entropy=      -69.59591127  energy(sigma->0) =      -69.59550908
 


--------------------------------------------------------------------------------------------------------


    POTLOK:  cpu time    2.20: real time    2.20


--------------------------------------------------------------------------------------------------------


 writing wavefunctions
     LOOP+:  cpu time 6195.99: real time 6195.85
    4ORBIT:  cpu time    0.00: real time    0.00

 total amount of memory used by VASP on root node   155705. kBytes
========================================================================

   base      :      30000. kBytes
   nonl-proj :      74517. kBytes
   fftplans  :        702. kBytes
   grid      :       2400. kBytes
   one-center:        186. kBytes
   HF        :        194. kBytes
   nonlr-proj:       5130. kBytes
   wavefun   :      42576. kBytes
 
  
  
 General timing and accounting informations for this job:
 ========================================================
  
                  Total CPU time used (sec):     6236.398
                            User time (sec):     6232.203
                          System time (sec):        4.195
                         Elapsed time (sec):     6237.291
  
                   Maximum memory used (kb):      299628.
                   Average memory used (kb):           0.
  
                          Minor page faults:        79146
                          Major page faults:            0
                 Voluntary context switches:         3834
