   12   12    1    1
  0.1849176E+02  0.6500240E-09  0.6500240E-09  0.6428867E-09  0.5000000E-15
  1.000000000000000E-004
  CAR 
 CGS                                     
  112   42   80
 
  0.0000000E+00  0.0000000E+00  0.0000000E+00  0.1250000E-01
   1      -68.646427
   2      -68.644833
   3      -68.634357
   4      -68.632779
   5      -68.614405
   6      -68.612912
   7      -68.597067
   8      -68.595423
   9      -68.577107
  10      -68.576135
  11      -68.563617
  12      -68.560081
  13      -12.721205
  14      -11.130393
  15      -10.917133
  16      -10.603066
  17      -10.252730
  18      -10.233298
  19       -5.985189
  20       -4.983536
  21       -2.760383
  22       -2.209842
  23       -2.070064
  24       -1.922293
  25       -1.576530
  26       -0.986436
  27       -0.950016
  28       -0.680956
  29       -0.399649
  30       -0.277431
  31       -0.262847
  32       -0.236174
  33       -0.185998
  34       -0.158416
  35       -0.041719
  36        0.033322
  37        1.349237
  38        1.362350
  39        1.413316
  40        1.456595
  41        1.471391
  42        1.473351
  43        1.520083
  44        1.532382
  45        1.574130
  46        1.710445
  47        1.890717
  48        1.926175
  49        2.056577
  50        2.652551
  51        2.730085
  52        3.093919
  53        3.220866
  54        4.006038
  55        4.037869
  56        4.170742
  57        5.538222
  58        6.356945
  59        7.632414
  60        7.987788
  61        8.616121
  62        8.792150
  63        9.572167
  64        9.739406
  65        9.814225
  66       10.419427
  67       10.582416
  68       10.694154
  69       10.713628
  70       11.284004
  71       11.711789
  72       12.391789
  73       12.450684
  74       12.728343
  75       13.323528
  76       13.384694
  77       13.833431
  78       13.879010
  79       14.146728
  80       14.178651
 
  0.2500000E+00  0.7372575E-17  0.1387779E-16  0.2500000E-01
   1      -68.646404
   2      -68.644787
   3      -68.634331
   4      -68.632740
   5      -68.614294
   6      -68.612811
   7      -68.597069
   8      -68.595448
   9      -68.577049
  10      -68.576069
  11      -68.563584
  12      -68.560047
  13      -12.596246
  14      -11.129350
  15      -10.982626
  16      -10.673059
  17      -10.367684
  18      -10.278284
  19       -5.933476
  20       -4.773397
  21       -2.646442
  22       -2.251547
  23       -2.088116
  24       -1.689578
  25       -1.343832
  26       -0.998406
  27       -0.765393
  28       -0.621609
  29       -0.553981
  30       -0.441812
  31       -0.358022
  32       -0.243116
  33       -0.192593
  34       -0.172459
  35       -0.046882
  36        0.040790
  37        1.278200
  38        1.336078
  39        1.354501
  40        1.391073
  41        1.427032
  42        1.471899
  43        1.498229
  44        1.530681
  45        1.724899
  46        1.858341
  47        2.055981
  48        2.094937
  49        2.228948
  50        2.413957
  51        2.557047
  52        2.827867
  53        2.948652
  54        3.243061
  55        3.661075
  56        4.039154
  57        6.170504
  58        6.906116
  59        8.138945
  60        8.267858
  61        8.593895
  62        9.014523
  63        9.241703
  64        9.530301
  65        9.865062
  66       10.375670
  67       10.633292
  68       10.814000
  69       10.940054
  70       11.189058
  71       11.655227
  72       11.772136
  73       12.116657
  74       12.444545
  75       12.617948
  76       13.007338
  77       13.504155
  78       13.876157
  79       14.212231
  80       14.710404
 
  0.5000000E+00  0.1474515E-16  0.2775558E-16  0.1250000E-01
   1      -68.646234
   2      -68.644673
   3      -68.634262
   4      -68.632652
   5      -68.614279
   6      -68.612759
   7      -68.597001
   8      -68.595363
   9      -68.577045
  10      -68.575994
  11      -68.563481
  12      -68.559878
  13      -12.436883
  14      -11.252555
  15      -10.956642
  16      -10.757096
  17      -10.430873
  18      -10.359288
  19       -5.871158
  20       -4.548775
  21       -2.496078
  22       -2.244205
  23       -1.946941
  24       -1.461858
  25       -1.227443
  26       -1.096444
  27       -0.904564
  28       -0.861879
  29       -0.599212
  30       -0.539254
  31       -0.272852
  32       -0.206956
  33       -0.200043
  34       -0.146634
  35       -0.030830
  36        0.081107
  37        1.254025
  38        1.327780
  39        1.347451
  40        1.396512
  41        1.472230
  42        1.479191
  43        1.499566
  44        1.552761
  45        1.752243
  46        1.792160
  47        1.969206
  48        2.147816
  49        2.320970
  50        2.362605
  51        2.553414
  52        2.670223
  53        2.935148
  54        3.079245
  55        3.249638
  56        3.861363
  57        6.385216
  58        7.098291
  59        7.980967
  60        8.203968
  61        8.516827
  62        8.820556
  63        9.326464
  64        9.887612
  65       10.010924
  66       10.517904
  67       10.691320
  68       10.793102
  69       11.140784
  70       11.405864
  71       11.611647
  72       11.777277
  73       11.946210
  74       12.503148
  75       12.780171
  76       12.999964
  77       13.395214
  78       13.542241
  79       13.936388
  80       14.272641
 
  0.7372575E-17  0.2500000E+00  0.1387779E-16  0.2500000E-01
   1      -68.646382
   2      -68.644809
   3      -68.634316
   4      -68.632755
   5      -68.614290
   6      -68.612815
   7      -68.597096
   8      -68.595421
   9      -68.577035
  10      -68.576089
  11      -68.563577
  12      -68.560047
  13      -12.596317
  14      -11.126732
  15      -10.983042
  16      -10.677834
  17      -10.367338
  18      -10.275990
  19       -5.933639
  20       -4.773024
  21       -2.645481
  22       -2.254297
  23       -2.086183
  24       -1.687875
  25       -1.347174
  26       -0.997949
  27       -0.768269
  28       -0.620451
  29       -0.553657
  30       -0.438367
  31       -0.361415
  32       -0.240969
  33       -0.196102
  34       -0.165327
  35       -0.049333
  36        0.039950
  37        1.279132
  38        1.335311
  39        1.353677
  40        1.392147
  41        1.426777
  42        1.471740
  43        1.497727
  44        1.530486
  45        1.724842
  46        1.859837
  47        2.055195
  48        2.093520
  49        2.230404
  50        2.413088
  51        2.557306
  52        2.827206
  53        2.949428
  54        3.243259
  55        3.661056
  56        4.039322
  57        6.170003
  58        6.906080
  59        8.137756
  60        8.269598
  61        8.593729
  62        9.013371
  63        9.242887
  64        9.531774
  65        9.863716
  66       10.374742
  67       10.633552
  68       10.812441
  69       10.940590
  70       11.190030
  71       11.657027
  72       11.772758
  73       12.117111
  74       12.443988
  75       12.616294
  76       13.006969
  77       13.517300
  78       13.897892
  79       14.272043
  80       14.839236
 
  0.2500000E+00  0.2500000E+00  0.0000000E+00  0.2500000E-01
   1      -68.646404
   2      -68.644811
   3      -68.634226
   4      -68.632632
   5      -68.614427
   6      -68.612945
   7      -68.596973
   8      -68.595321
   9      -68.577167
  10      -68.576199
  11      -68.563603
  12      -68.560064
  13      -12.440853
  14      -11.191783
  15      -10.943282
  16      -10.876164
  17      -10.390135
  18      -10.352121
  19       -5.876370
  20       -4.521737
  21       -2.418882
  22       -2.246669
  23       -1.792678
  24       -1.681748
  25       -1.356813
  26       -1.298662
  27       -1.076670
  28       -0.680633
  29       -0.526768
  30       -0.295981
  31       -0.281830
  32       -0.225377
  33       -0.185864
  34       -0.128374
  35       -0.094647
  36        0.080780
  37        1.293269
  38        1.311412
  39        1.415586
  40        1.425601
  41        1.463261
  42        1.482150
  43        1.494662
  44        1.570550
  45        1.671158
  46        1.880207
  47        1.939719
  48        2.135105
  49        2.280224
  50        2.321422
  51        2.559883
  52        2.651322
  53        2.902875
  54        2.945278
  55        3.696770
  56        3.831950
  57        6.171274
  58        6.990446
  59        8.004174
  60        8.326647
  61        8.433077
  62        8.571019
  63        9.145766
  64        9.248701
  65       10.360736
  66       10.494514
  67       10.920252
  68       11.185491
  69       11.328989
  70       11.558350
  71       11.816450
  72       11.962208
  73       12.314954
  74       12.502772
  75       12.711361
  76       12.912499
  77       13.339169
  78       13.447565
  79       14.257571
  80       14.366822
 
  0.5000000E+00  0.2500000E+00 -0.2775558E-16  0.2500000E-01
   1      -68.646140
   2      -68.644628
   3      -68.634279
   4      -68.632733
   5      -68.614191
   6      -68.612730
   7      -68.597007
   8      -68.595392
   9      -68.576925
  10      -68.576030
  11      -68.563467
  12      -68.559914
  13      -12.440968
  14      -11.355725
  15      -10.938178
  16      -10.734432
  17      -10.390995
  18      -10.272123
  19       -5.947931
  20       -4.642468
  21       -2.392781
  22       -2.226229
  23       -2.059593
  24       -1.638951
  25       -1.360686
  26       -1.285419
  27       -1.019120
  28       -0.514832
  29       -0.482062
  30       -0.329372
  31       -0.279404
  32       -0.213981
  33       -0.151600
  34       -0.135999
  35       -0.012568
  36        0.113425
  37        1.246171
  38        1.315437
  39        1.382668
  40        1.436866
  41        1.461750
  42        1.491492
  43        1.496604
  44        1.550021
  45        1.747951
  46        1.827748
  47        1.922661
  48        2.136268
  49        2.221822
  50        2.383919
  51        2.559184
  52        2.790949
  53        2.978304
  54        3.311520
  55        3.602867
  56        3.747459
  57        6.087829
  58        6.939199
  59        7.612399
  60        8.069004
  61        8.409838
  62        8.615947
  63        8.982704
  64        9.152292
  65       10.087808
  66       10.335128
  67       10.733742
  68       11.108564
  69       11.459405
  70       11.598794
  71       11.799090
  72       12.081708
  73       12.476880
  74       12.922322
  75       13.030639
  76       13.832956
  77       14.222737
  78       14.656122
  79       15.425536
  80       15.639984
 
 -0.2500000E+00  0.2500000E+00  0.0000000E+00  0.2500000E-01
   1      -68.646395
   2      -68.644799
   3      -68.634298
   4      -68.632718
   5      -68.614225
   6      -68.612746
   7      -68.597066
   8      -68.595419
   9      -68.576996
  10      -68.576024
  11      -68.563580
  12      -68.560049
  13      -12.599084
  14      -11.252191
  15      -10.991771
  16      -10.568291
  17      -10.369076
  18      -10.179305
  19       -6.010340
  20       -4.894553
  21       -2.646478
  22       -2.315067
  23       -1.973608
  24       -1.646744
  25       -1.493674
  26       -1.184154
  27       -0.788835
  28       -0.584644
  29       -0.447495
  30       -0.336057
  31       -0.292581
  32       -0.232039
  33       -0.173164
  34       -0.130997
  35       -0.009060
  36        0.070978
  37        1.259209
  38        1.321034
  39        1.364447
  40        1.423052
  41        1.430145
  42        1.475694
  43        1.503584
  44        1.542469
  45        1.724445
  46        1.812788
  47        1.994279
  48        2.071967
  49        2.415303
  50        2.464094
  51        2.527324
  52        2.874380
  53        3.140234
  54        3.229990
  55        3.783840
  56        4.068080
  57        5.979905
  58        6.689661
  59        7.535345
  60        8.222580
  61        8.618596
  62        8.913755
  63        9.306960
  64        9.432147
  65        9.804978
  66       10.270812
  67       10.543342
  68       10.830207
  69       10.971393
  70       11.381241
  71       11.471900
  72       11.731352
  73       12.103696
  74       12.663040
  75       12.941457
  76       13.102553
  77       13.348143
  78       13.519503
  79       14.477610
  80       14.754601
 
  0.1474515E-16  0.5000000E+00  0.2775558E-16  0.1250000E-01
   1      -68.646258
   2      -68.644638
   3      -68.634249
   4      -68.632665
   5      -68.614234
   6      -68.612805
   7      -68.597005
   8      -68.595361
   9      -68.576987
  10      -68.576077
  11      -68.563403
  12      -68.559936
  13      -12.437149
  14      -11.247429
  15      -10.956974
  16      -10.767610
  17      -10.427688
  18      -10.356493
  19       -5.871419
  20       -4.548050
  21       -2.493964
  22       -2.247412
  23       -1.944272
  24       -1.464154
  25       -1.227221
  26       -1.103457
  27       -0.899761
  28       -0.861723
  29       -0.599998
  30       -0.536394
  31       -0.271609
  32       -0.209515
  33       -0.199095
  34       -0.143759
  35       -0.033355
  36        0.081634
  37        1.254522
  38        1.325607
  39        1.347518
  40        1.398409
  41        1.470577
  42        1.479643
  43        1.500334
  44        1.553236
  45        1.751847
  46        1.791750
  47        1.967409
  48        2.146335
  49        2.322264
  50        2.363951
  51        2.555155
  52        2.671015
  53        2.937671
  54        3.078012
  55        3.245238
  56        3.862409
  57        6.384378
  58        7.098377
  59        7.981040
  60        8.201977
  61        8.519487
  62        8.820333
  63        9.328479
  64        9.888943
  65       10.010393
  66       10.517299
  67       10.690364
  68       10.793485
  69       11.141084
  70       11.409400
  71       11.610952
  72       11.769777
  73       11.944317
  74       12.504052
  75       12.827103
  76       13.033031
  77       13.551848
  78       13.686487
  79       14.551914
  80       15.247907
 
  0.2500000E+00  0.5000000E+00 -0.2775558E-16  0.2500000E-01
   1      -68.646178
   2      -68.644597
   3      -68.634221
   4      -68.632750
   5      -68.614129
   6      -68.612811
   7      -68.596998
   8      -68.595422
   9      -68.576898
  10      -68.576066
  11      -68.563408
  12      -68.559957
  13      -12.441092
  14      -11.354268
  15      -10.937994
  16      -10.737500
  17      -10.391823
  18      -10.269749
  19       -5.948060
  20       -4.642138
  21       -2.391344
  22       -2.227891
  23       -2.057881
  24       -1.640528
  25       -1.365956
  26       -1.281133
  27       -1.019882
  28       -0.510172
  29       -0.483883
  30       -0.330622
  31       -0.283020
  32       -0.211567
  33       -0.149580
  34       -0.135879
  35       -0.012227
  36        0.112556
  37        1.246975
  38        1.315707
  39        1.381050
  40        1.437156
  41        1.461055
  42        1.491606
  43        1.497135
  44        1.549622
  45        1.749027
  46        1.828996
  47        1.920471
  48        2.133972
  49        2.221319
  50        2.385690
  51        2.561220
  52        2.790011
  53        2.979377
  54        3.310432
  55        3.602097
  56        3.748582
  57        6.087358
  58        6.938744
  59        7.612349
  60        8.069262
  61        8.410286
  62        8.615380
  63        8.983655
  64        9.152439
  65       10.087816
  66       10.337177
  67       10.732479
  68       11.107772
  69       11.455994
  70       11.575754
  71       11.785392
  72       12.032238
  73       12.525443
  74       12.677581
  75       12.916780
  76       13.217242
  77       14.229539
  78       14.772769
  79       15.252303
  80       15.908391
 
  0.5000000E+00  0.5000000E+00  0.0000000E+00  0.1250000E-01
   1      -68.646020
   2      -68.644411
   3      -68.634072
   4      -68.632548
   5      -68.614019
   6      -68.612700
   7      -68.596805
   8      -68.595212
   9      -68.576876
  10      -68.575896
  11      -68.563255
  12      -68.559718
  13      -12.432748
  14      -11.502287
  15      -10.913344
  16      -10.615513
  17      -10.400618
  18      -10.198649
  19       -6.026438
  20       -4.810233
  21       -2.310223
  22       -2.266452
  23       -2.094375
  24       -1.704835
  25       -1.247797
  26       -1.109474
  27       -0.841440
  28       -0.781175
  29       -0.727945
  30       -0.240202
  31       -0.199889
  32       -0.179973
  33       -0.150438
  34       -0.040515
  35       -0.001313
  36        0.184001
  37        1.266361
  38        1.317334
  39        1.375286
  40        1.413302
  41        1.433974
  42        1.492205
  43        1.506783
  44        1.549171
  45        1.786546
  46        1.847567
  47        1.994306
  48        2.151749
  49        2.253352
  50        2.337537
  51        2.559405
  52        2.763446
  53        2.772850
  54        3.365288
  55        3.764074
  56        4.006359
  57        5.854632
  58        6.768186
  59        7.081658
  60        8.412914
  61        8.561281
  62        8.770356
  63        9.141863
  64        9.242285
  65        9.958875
  66       10.285870
  67       10.726075
  68       10.826163
  69       10.876843
  70       11.273198
  71       11.756723
  72       11.917589
  73       11.969228
  74       12.366879
  75       12.540293
  76       13.454451
  77       14.287752
  78       14.675002
  79       16.744325
  80       16.755859
 
 -0.2168404E-18 -0.2168404E-18  0.2000000E+00  0.2500000E-01
   1      -68.646432
   2      -68.644833
   3      -68.634325
   4      -68.632748
   5      -68.614322
   6      -68.612838
   7      -68.597091
   8      -68.595442
   9      -68.577078
  10      -68.576112
  11      -68.563617
  12      -68.560083
  13      -12.618029
  14      -11.425878
  15      -10.778725
  16      -10.608165
  17      -10.251789
  18      -10.235004
  19       -5.831633
  20       -5.047073
  21       -2.600000
  22       -2.371919
  23       -1.961328
  24       -1.775603
  25       -1.444993
  26       -1.125609
  27       -1.064899
  28       -0.770838
  29       -0.468002
  30       -0.291324
  31       -0.242326
  32       -0.234018
  33       -0.193448
  34       -0.149347
  35       -0.018138
  36        0.026399
  37        1.332574
  38        1.381695
  39        1.415580
  40        1.439288
  41        1.464204
  42        1.466392
  43        1.513926
  44        1.545538
  45        1.632206
  46        1.757805
  47        1.786214
  48        1.948756
  49        2.087578
  50        2.660437
  51        2.719757
  52        3.197549
  53        3.256407
  54        3.519450
  55        3.894629
  56        3.977703
  57        6.045406
  58        6.415104
  59        7.824850
  60        7.908772
  61        8.365575
  62        8.819829
  63        9.775915
  64        9.794161
  65       10.062065
  66       10.584983
  67       10.643397
  68       10.815538
  69       10.855236
  70       11.494897
  71       11.558755
  72       12.027362
  73       12.577417
  74       12.774336
  75       12.913518
  76       13.205561
  77       13.536185
  78       13.827909
  79       14.197253
  80       14.703200
 
  0.2500000E+00  0.1517883E-17  0.2000000E+00  0.2500000E-01
   1      -68.646369
   2      -68.644770
   3      -68.634311
   4      -68.632734
   5      -68.614358
   6      -68.612887
   7      -68.597055
   8      -68.595391
   9      -68.577081
  10      -68.576129
  11      -68.563548
  12      -68.560026
  13      -12.458988
  14      -11.467743
  15      -10.864553
  16      -10.687092
  17      -10.373471
  18      -10.246493
  19       -5.767114
  20       -4.804531
  21       -2.445171
  22       -2.233057
  23       -1.852781
  24       -1.713689
  25       -1.430240
  26       -1.188564
  27       -0.886667
  28       -0.745213
  29       -0.606380
  30       -0.523209
  31       -0.314373
  32       -0.245991
  33       -0.174546
  34       -0.123801
  35       -0.052842
  36        0.062819
  37        1.301443
  38        1.335513
  39        1.369147
  40        1.432014
  41        1.445511
  42        1.479683
  43        1.521506
  44        1.546758
  45        1.643140
  46        1.871500
  47        1.979050
  48        2.046701
  49        2.195672
  50        2.475018
  51        2.595575
  52        2.839526
  53        2.964879
  54        3.134203
  55        3.567041
  56        3.724180
  57        6.441359
  58        6.957209
  59        8.170141
  60        8.245855
  61        8.833425
  62        9.128424
  63        9.465684
  64        9.794560
  65       10.082687
  66       10.299965
  67       10.742049
  68       11.077848
  69       11.291329
  70       11.424081
  71       11.632037
  72       11.726149
  73       12.087288
  74       12.264855
  75       12.541224
  76       12.659645
  77       12.953385
  78       13.058444
  79       13.638262
  80       14.691650
 
  0.5000000E+00  0.9107298E-17  0.2000000E+00  0.2500000E-01
   1      -68.646133
   2      -68.644658
   3      -68.634208
   4      -68.632678
   5      -68.614220
   6      -68.612744
   7      -68.596964
   8      -68.595309
   9      -68.576930
  10      -68.576075
  11      -68.563488
  12      -68.559952
  13      -12.356566
  14      -11.414990
  15      -10.953467
  16      -10.679894
  17      -10.478728
  18      -10.337164
  19       -5.752285
  20       -4.722710
  21       -2.523308
  22       -2.184746
  23       -1.953321
  24       -1.533764
  25       -1.300270
  26       -1.097530
  27       -0.870268
  28       -0.756849
  29       -0.551372
  30       -0.444077
  31       -0.290668
  32       -0.181106
  33       -0.145650
  34       -0.105134
  35       -0.044537
  36        0.023571
  37        1.273523
  38        1.296550
  39        1.351213
  40        1.429584
  41        1.452015
  42        1.480717
  43        1.501212
  44        1.587447
  45        1.719737
  46        1.932032
  47        2.077121
  48        2.146996
  49        2.267390
  50        2.403026
  51        2.567823
  52        2.597339
  53        2.898165
  54        3.009550
  55        3.357199
  56        3.899201
  57        6.365617
  58        6.897735
  59        7.574163
  60        8.084299
  61        8.547861
  62        8.797691
  63        9.278514
  64        9.629117
  65        9.929944
  66       10.274709
  67       10.657986
  68       10.928209
  69       10.971086
  70       11.280841
  71       11.519326
  72       11.790474
  73       12.246639
  74       12.541297
  75       13.106676
  76       13.516662
  77       14.299913
  78       14.620856
  79       15.125673
  80       16.270522
 
 -0.2500000E+00 -0.4098284E-16  0.2000000E+00  0.2500000E-01
   1      -68.646420
   2      -68.644832
   3      -68.634301
   4      -68.632724
   5      -68.614333
   6      -68.612842
   7      -68.597079
   8      -68.595424
   9      -68.577098
  10      -68.576123
  11      -68.563618
  12      -68.560072
  13      -12.541640
  14      -11.337771
  15      -10.875348
  16      -10.603272
  17      -10.398122
  18      -10.284574
  19       -5.825134
  20       -4.975096
  21       -2.665998
  22       -2.451913
  23       -2.038184
  24       -1.578292
  25       -1.169430
  26       -0.982188
  27       -0.796560
  28       -0.656275
  29       -0.518351
  30       -0.386374
  31       -0.271027
  32       -0.255058
  33       -0.188064
  34       -0.145417
  35       -0.046822
  36        0.015139
  37        1.290231
  38        1.309802
  39        1.388898
  40        1.408015
  41        1.434378
  42        1.455153
  43        1.492142
  44        1.564704
  45        1.687934
  46        1.915329
  47        1.986074
  48        2.143954
  49        2.333291
  50        2.562922
  51        2.618809
  52        2.830474
  53        2.974082
  54        3.247539
  55        3.683136
  56        3.943289
  57        6.179848
  58        6.638555
  59        7.768649
  60        7.973210
  61        8.213901
  62        8.563004
  63        9.379752
  64        9.578177
  65        9.906689
  66       10.249928
  67       10.543800
  68       10.788297
  69       10.841159
  70       11.068872
  71       11.565897
  72       12.021243
  73       12.526259
  74       12.753095
  75       12.953801
  76       13.306565
  77       13.411964
  78       13.740029
  79       13.848681
  80       14.724996
 
  0.1517883E-17  0.2500000E+00  0.2000000E+00  0.2500000E-01
   1      -68.646367
   2      -68.644772
   3      -68.634311
   4      -68.632734
   5      -68.614366
   6      -68.612880
   7      -68.597048
   8      -68.595398
   9      -68.577092
  10      -68.576114
  11      -68.563565
  12      -68.560015
  13      -12.459126
  14      -11.466616
  15      -10.864235
  16      -10.690105
  17      -10.373603
  18      -10.244669
  19       -5.767110
  20       -4.804419
  21       -2.445026
  22       -2.233492
  23       -1.849658
  24       -1.713658
  25       -1.437009
  26       -1.183530
  27       -0.888942
  28       -0.746798
  29       -0.605647
  30       -0.522493
  31       -0.312213
  32       -0.245697
  33       -0.176555
  34       -0.122764
  35       -0.053320
  36        0.063212
  37        1.301836
  38        1.336220
  39        1.368707
  40        1.430198
  41        1.446407
  42        1.478850
  43        1.521644
  44        1.546993
  45        1.643577
  46        1.871733
  47        1.979869
  48        2.046927
  49        2.194674
  50        2.474486
  51        2.596448
  52        2.838683
  53        2.964138
  54        3.133970
  55        3.568378
  56        3.724254
  57        6.440742
  58        6.957298
  59        8.170355
  60        8.246433
  61        8.833992
  62        9.127360
  63        9.463661
  64        9.796636
  65       10.084532
  66       10.296810
  67       10.741249
  68       11.078210
  69       11.290234
  70       11.426439
  71       11.634226
  72       11.725946
  73       12.086142
  74       12.265220
  75       12.540929
  76       12.656281
  77       12.954613
  78       13.058871
  79       13.656065
  80       14.694840
 
  0.2500000E+00  0.2500000E+00  0.2000000E+00  0.2500000E-01
   1      -68.646276
   2      -68.644681
   3      -68.634169
   4      -68.632574
   5      -68.614202
   6      -68.612723
   7      -68.596925
   8      -68.595277
   9      -68.576969
  10      -68.575980
  11      -68.563469
  12      -68.559928
  13      -12.327240
  14      -11.475554
  15      -10.861950
  16      -10.858090
  17      -10.405699
  18      -10.288506
  19       -5.748309
  20       -4.691981
  21       -2.242271
  22       -2.138243
  23       -1.928993
  24       -1.851305
  25       -1.454207
  26       -1.394005
  27       -1.038725
  28       -0.519416
  29       -0.460650
  30       -0.348524
  31       -0.250586
  32       -0.218486
  33       -0.161048
  34       -0.112013
  35       -0.092895
  36        0.082802
  37        1.262154
  38        1.348033
  39        1.396939
  40        1.434988
  41        1.452633
  42        1.509502
  43        1.535313
  44        1.542743
  45        1.752467
  46        1.818348
  47        2.040927
  48        2.134543
  49        2.285467
  50        2.311732
  51        2.520209
  52        2.770149
  53        2.899009
  54        3.262420
  55        3.496894
  56        3.798346
  57        6.183632
  58        6.841132
  59        7.826614
  60        8.045173
  61        8.188303
  62        8.725900
  63        9.153849
  64        9.306266
  65       10.220442
  66       10.441671
  67       10.590312
  68       11.006759
  69       11.238218
  70       11.486653
  71       11.812968
  72       12.171772
  73       12.208542
  74       12.574200
  75       12.694935
  76       13.113028
  77       13.417081
  78       13.882409
  79       14.005192
  80       14.526071
 
  0.5000000E+00  0.2500000E+00  0.2000000E+00  0.2500000E-01
   1      -68.646136
   2      -68.644553
   3      -68.634221
   4      -68.632753
   5      -68.614095
   6      -68.612874
   7      -68.596994
   8      -68.595344
   9      -68.576909
  10      -68.576088
  11      -68.563403
  12      -68.559934
  13      -12.373681
  14      -11.474293
  15      -10.938155
  16      -10.650700
  17      -10.418646
  18      -10.306774
  19       -5.800928
  20       -4.836689
  21       -2.527840
  22       -2.243013
  23       -1.872742
  24       -1.643658
  25       -1.504636
  26       -1.308961
  27       -0.900054
  28       -0.535185
  29       -0.378411
  30       -0.348520
  31       -0.222204
  32       -0.177495
  33       -0.162360
  34       -0.075788
  35       -0.026066
  36        0.081522
  37        1.190196
  38        1.363596
  39        1.397575
  40        1.441484
  41        1.463543
  42        1.506302
  43        1.518548
  44        1.585131
  45        1.738960
  46        1.817921
  47        2.037438
  48        2.235809
  49        2.269257
  50        2.362453
  51        2.486399
  52        2.671403
  53        3.051345
  54        3.410461
  55        3.726931
  56        3.863888
  57        5.932989
  58        6.614058
  59        7.354745
  60        7.942544
  61        8.064936
  62        8.725091
  63        8.905784
  64        9.138320
  65        9.844321
  66       10.327149
  67       10.555981
  68       10.927396
  69       11.222610
  70       11.416390
  71       11.750683
  72       12.001578
  73       12.497176
  74       12.831975
  75       13.204370
  76       14.186064
  77       14.714175
  78       15.156807
  79       15.918290
  80       16.564634
 
 -0.2500000E+00  0.2500000E+00  0.2000000E+00  0.2500000E-01
   1      -68.646368
   2      -68.644737
   3      -68.634361
   4      -68.632772
   5      -68.614276