 vasp.5.3.3 18Dez12 (build Nov 13 2015 09:58:40) complex                        
  
 executed on             LinuxIFC date 2017.10.18  13:04:00
 running on   48 total cores
 distrk:  each k-point on   16 cores,    3 groups
 distr:  one band on NCORES_PER_BAND=   1 cores,   16 groups


--------------------------------------------------------------------------------------------------------


 INCAR:
 POTCAR:    PAW_PBE Cu_pv 06Sep2000               
 POTCAR:    PAW_PBE Ge 05Jan2001                  
 POTCAR:    PAW_PBE S 17Jan2003                   

 ----------------------------------------------------------------------------- 
|                                                                             |
|           W    W    AA    RRRRR   N    N  II  N    N   GGGG   !!!           |
|           W    W   A  A   R    R  NN   N  II  NN   N  G    G  !!!           |
|           W    W  A    A  R    R  N N  N  II  N N  N  G       !!!           |
|           W WW W  AAAAAA  RRRRR   N  N N  II  N  N N  G  GGG   !            |
|           WW  WW  A    A  R   R   N   NN  II  N   NN  G    G                |
|           W    W  A    A  R    R  N    N  II  N    N   GGGG   !!!           |
|                                                                             |
|      For optimal performance we recommend that you set                      |
|        NPAR = 4 - approx SQRT( number of cores)                             |
|      (number of cores/NPAR must be integer)                                 |
|      This setting will greatly improve the performance of VASP for DFT.     |
|      The default NPAR=number of cores might be grossly inefficient          |
|      on modern multi-core architectures or massively parallel machines.     |
|      Do your own testing.                                                   |
|      Unfortunately you need to use the default for hybrid, GW and RPA       |
|      calculations.                                                          |
|                                                                             |
 ----------------------------------------------------------------------------- 


 ----------------------------------------------------------------------------- 
|                                                                             |
|           W    W    AA    RRRRR   N    N  II  N    N   GGGG   !!!           |
|           W    W   A  A   R    R  NN   N  II  NN   N  G    G  !!!           |
|           W    W  A    A  R    R  N N  N  II  N N  N  G       !!!           |
|           W WW W  AAAAAA  RRRRR   N  N N  II  N  N N  G  GGG   !            |
|           WW  WW  A    A  R   R   N   NN  II  N   NN  G    G                |
|           W    W  A    A  R    R  N    N  II  N    N   GGGG   !!!           |
|                                                                             |
|      You have enabled k-point parallelism (KPAR>1).                         |
|      This developmental code was originally  written by Paul Kent at ORNL,  |
|      and carefully double checked in Vienna.                                |
|      GW as well as linear response parallelism added by Martijn Marsman     |
|      and Georg Kresse.                                                      |
|      Carefully verify results versus KPAR=1.                                |
|      Report problems to Paul Kent and Vienna.                               |
|                                                                             |
 ----------------------------------------------------------------------------- 

 POTCAR:    PAW_PBE Cu_pv 06Sep2000               
   VRHFIN =Cu: d10 p1                                                           
   LEXCH  = PE                                                                  
   EATOM  =  4120.1201 eV,  302.8203 Ry                                         
                                                                                
   TITEL  = PAW_PBE Cu_pv 06Sep2000                                             
   LULTRA =        F    use ultrasoft PP ?                                      
   IUNSCR =        1    unscreen: 0-lin 1-nonlin 2-no                           
   RPACOR =    1.500    partial core radius                                     
   POMASS =   63.546; ZVAL   =   17.000    mass and valenz                      
   RCORE  =    2.000    outmost cutoff radius                                   
   RWIGS  =    2.000; RWIGS  =    1.058    wigner-seitz radius (au A)           
   ENMAX  =  368.648; ENMIN  =  276.486 eV                                      
   RCLOC  =    1.304    cutoff for local pot                                    
   LCOR   =        T    correct aug charges                                     
   LPAW   =        T    paw PP                                                  
   EAUG   =  758.233                                                            
   DEXC   =    0.000                                                            
   RMAX   =    2.046    core radius for proj-oper                               
   RAUG   =    1.300    factor for augmentation sphere                          
   RDEP   =    2.025    radius for radial grids                                 
   RDEPT  =    1.558    core radius for aug-charge                              
                                                                                
   Atomic configuration                                                         
    8 entries                                                                   
     n  l   j            E        occ.                                          
     1  0  0.50     -8850.2467   2.0000                                         
     2  0  0.50     -1062.3498   2.0000                                         
     2  1  1.50      -916.8226   6.0000                                         
     3  0  0.50      -114.6929   2.0000                                         
     3  1  1.50       -72.1325   6.0000                                         
     3  2  2.50        -5.0394  10.0000                                         
     4  0  0.50        -4.6097   1.0000                                         
     4  3  2.50        -1.3606   0.0000                                         
   Description                                                                  
     l       E           TYP  RCUT    TYP  RCUT                                 
     1    -72.1324777     23  1.700                                             
     1     -1.3605826     23  1.700                                             
     2     -5.0393776     23  2.000                                             
     2     -6.3999602     23  2.000                                             
     0     -4.6097062     23  1.800                                             
     0     14.1620818     23  1.800                                             
  local pseudopotential read in
  partial core-charges read in
  partial kinetic energy density read in
  atomic valenz-charges read in
  non local Contribution for L=           1  read in
    real space projection operators read in
  non local Contribution for L=           1  read in
    real space projection operators read in
  non local Contribution for L=           2  read in
    real space projection operators read in
  non local Contribution for L=           2  read in
    real space projection operators read in
  non local Contribution for L=           0  read in
    real space projection operators read in
  non local Contribution for L=           0  read in
    real space projection operators read in
    PAW grid and wavefunctions read in
 
   number of l-projection  operators is LMAX  =           6
   number of lm-projection operators is LMMAX =          18
 
 POTCAR:    PAW_PBE Ge 05Jan2001                  
   VRHFIN =Ge: s2p2                                                             
   LEXCH  = PE                                                                  
   EATOM  =   104.9960 eV,    7.7170 Ry                                         
                                                                                
   TITEL  = PAW_PBE Ge 05Jan2001                                                
   LULTRA =        F    use ultrasoft PP ?                                      
   IUNSCR =        1    unscreen: 0-lin 1-nonlin 2-no                           
   RPACOR =    2.170    partial core radius                                     
   POMASS =   72.610; ZVAL   =    4.000    mass and valenz                      
   RCORE  =    2.300    outmost cutoff radius                                   
   RWIGS  =    2.300; RWIGS  =    1.217    wigner-seitz radius (au A)           
   ENMAX  =  173.807; ENMIN  =  130.355 eV                                      
   ICORE  =        3    local potential                                         
   LCOR   =        T    correct aug charges                                     
   LPAW   =        T    paw PP                                                  
   EAUG   =  385.843                                                            
   DEXC   =    0.000                                                            
   RMAX   =    2.342    core radius for proj-oper                               
   RAUG   =    1.300    factor for augmentation sphere                          
   RDEP   =    2.318    radius for radial grids                                 
   RDEPT  =    2.103    core radius for aug-charge                              
                                                                                
   Atomic configuration                                                         
   10 entries                                                                   
     n  l   j            E        occ.                                          
     1  0  0.50    -10959.8463   2.0000                                         
     2  0  0.50     -1371.6056   2.0000                                         
     2  1  1.50     -1198.4791   6.0000                                         
     3  0  0.50      -168.4733   2.0000                                         
     3  1  1.50      -115.6019   6.0000                                         
     3  2  2.50       -29.3106  10.0000                                         
     4  0  0.50       -11.7309   2.0000                                         
     4  1  0.50        -3.8952   2.0000                                         
     4  2  1.50        -4.0817   0.0000                                         
     4  3  2.50        -4.0817   0.0000                                         
   Description                                                                  
     l       E           TYP  RCUT    TYP  RCUT                                 
     0    -11.7309493     23  2.300                                             
     0     -7.4578696     23  2.300                                             
     1     -3.8952261     23  2.300                                             
     1      6.1178114     23  2.300                                             
     2     -4.0817478     23  2.300                                             
     3     -1.3605826      7  2.300                                             
  local pseudopotential read in
  partial core-charges read in
  partial kinetic energy density read in
  atomic valenz-charges read in
  non local Contribution for L=           0  read in
    real space projection operators read in
  non local Contribution for L=           0  read in
    real space projection operators read in
  non local Contribution for L=           1  read in
    real space projection operators read in
  non local Contribution for L=           1  read in
    real space projection operators read in
  non local Contribution for L=           2  read in
    real space projection operators read in
    PAW grid and wavefunctions read in
 
   number of l-projection  operators is LMAX  =           5
   number of lm-projection operators is LMMAX =          13
 
 POTCAR:    PAW_PBE S 17Jan2003                   
   VRHFIN =S : s2p4                                                             
   LEXCH  = PE                                                                  
   EATOM  =   276.8230 eV,   20.3459 Ry                                         
                                                                                
   TITEL  = PAW_PBE S 17Jan2003                                                 
   LULTRA =        F    use ultrasoft PP ?                                      
   IUNSCR =        1    unscreen: 0-lin 1-nonlin 2-no                           
   RPACOR =    1.500    partial core radius                                     
   POMASS =   32.066; ZVAL   =    6.000    mass and valenz                      
   RCORE  =    1.900    outmost cutoff radius                                   
   RWIGS  =    2.200; RWIGS  =    1.164    wigner-seitz radius (au A)           
   ENMAX  =  280.000; ENMIN  =  194.016 eV                                      
   ICORE  =        2    local potential                                         
   LCOR   =        T    correct aug charges                                     
   LPAW   =        T    paw PP                                                  
   EAUG   =  335.092                                                            
   DEXC   =     .000                                                            
   RMAX   =    2.867    core radius for proj-oper                               
   RAUG   =    1.300    factor for augmentation sphere                          
   RDEP   =    1.954    radius for radial grids                                 
   QCUT   =   -4.360; QGAM   =    8.721    optimization parameters              
                                                                                
   Description                                                                  
     l     E      TYP  RCUT    TYP  RCUT                                        
     0   .000     23  1.900                                                     
     0   .000     23  1.900                                                     
     1   .000     23  1.900                                                     
     1   .000     23  1.900                                                     
     2   .000     23  1.900                                                     
  local pseudopotential read in
  partial core-charges read in
  atomic valenz-charges read in
  non local Contribution for L=           0  read in
    real space projection operators read in
  non local Contribution for L=           0  read in
    real space projection operators read in
  non local Contribution for L=           1  read in
    real space projection operators read in
  non local Contribution for L=           1  read in
    real space projection operators read in
    PAW grid and wavefunctions read in
 
   number of l-projection  operators is LMAX  =           4
   number of lm-projection operators is LMMAX =           8
 
  PAW_PBE Cu_pv 06Sep2000               :
 energy of atom  1       EATOM=-4120.1201
 kinetic energy error for atom=    0.0996 (will be added to EATOM!!)
  PAW_PBE Ge 05Jan2001                  :
 energy of atom  2       EATOM= -104.9960
 kinetic energy error for atom=    0.0003 (will be added to EATOM!!)
  PAW_PBE S 17Jan2003                   :
 energy of atom  3       EATOM= -276.8230
 kinetic energy error for atom=    0.0046 (will be added to EATOM!!)
 
 
 POSCAR: Cu Ge S                                 
  positions in direct lattice
  No initial velocities read in
 exchange correlation table for  LEXCH =        8
   RHO(1)=    0.500       N(1)  =     2000
   RHO(2)=  100.500       N(2)  =     4000
 


--------------------------------------------------------------------------------------------------------


 ion  position               nearest neighbor table
   1  0.618  0.121  0.120-   9 2.29  11 2.29  12 2.30   8 2.35
   2  0.121  0.618  0.620-  12 2.29   7 2.29   9 2.30  10 2.35
   3  0.963  0.790  0.117-  11 2.29  12 2.29   7 2.32   8 2.36
   4  0.790  0.963  0.619-   7 2.30   9 2.30  11 2.31  10 2.36
   5  0.440  0.267  0.599-   7 2.19   9 2.19  10 2.31   8 2.33
   6  0.267  0.440  0.099-  11 2.19  12 2.19   8 2.31  10 2.33
   7  0.079  0.912  0.497-   5 2.19   2 2.29   4 2.30   3 2.32
   8  0.571  0.412  0.980-   6 2.31   5 2.33   1 2.35   3 2.36
   9  0.737  0.250  0.495-   5 2.19   1 2.29   4 2.30   2 2.30
  10  0.412  0.571  0.480-   5 2.31   6 2.33   2 2.35   4 2.36
  11  0.912  0.079  0.997-   6 2.19   3 2.29   1 2.29   4 2.31
  12  0.250  0.737  0.995-   6 2.19   2 2.29   3 2.29   1 2.30
 
  Warning from LATTYP: Got some problem with cell dimensions!
  Tried to take original basis but could not verify dimensions!
  LATTYP: Found a base centered monoclinic cell.
 ALAT       =     6.4499010947
 B/A-ratio  =     1.7500516418
 C/A-ratio  =     1.9305142024
 COS(beta)  =    -0.4326083233
  
  Lattice vectors:
  
 A1 = (   3.2247960000,   5.6438300000,   0.0315720000)
 A2 = (   3.2247960000,  -5.6438300000,   0.0315720000)
 A3 = ( -10.7972380000,   0.0000000000,  -6.2018250000)


Analysis of symmetry for initial positions (statically):
=====================================================================
 Subroutine PRICEL returns:
 Original cell was already a primitive cell.
 

 Routine SETGRP: Setting up the symmetry group for a 
 base centered monoclinic supercell.


 Subroutine GETGRP returns: Found  1 space group operations
 (whereof  1 operations were pure point group operations)
 out of a pool of  4 trial point group operations.


The static configuration has the point symmetry C_1 .


Analysis of symmetry for dynamics (positions and initial velocities):
=====================================================================
 Subroutine PRICEL returns:
 Original cell was already a primitive cell.
 

 Routine SETGRP: Setting up the symmetry group for a 
 base centered monoclinic supercell.


 Subroutine GETGRP returns: Found  1 space group operations
 (whereof  1 operations were pure point group operations)
 out of a pool of  4 trial point group operations.


The dynamic configuration has the point symmetry C_1 .


 irot  :   1
 --------------------------------------------------------------------
 isymop:   1   0   0
           0   1   0
           0   0   1

 gtrans:     0.0000000     0.0000000     0.0000000

 ptrans:     0.0000000     0.0000000     0.0000000
 rotmap:
 (   1->   1)  (   2->   2)  (   3->   3)  (   4->   4)  (   5->   5) 
 (   6->   6)  (   7->   7)  (   8->   8)  (   9->   9)  (  10->  10) 
 (  11->  11)  (  12->  12) 
 
 
 KPOINTS: pymatgen 4.7.6+ generated KPOINTS with g

Automatic generation of k-mesh.
Space group operators:
 irot       det(A)        alpha          n_x          n_y          n_z        tau_x        tau_y        tau_z
    1     1.000000     0.000000     1.000000     0.000000     0.000000     0.000000     0.000000     0.000000
 
 Subroutine IBZKPT returns following result:
 ===========================================
 
 Found     42 irreducible k-points:
 
 Following reciprocal coordinates:
            Coordinates               Weight
  0.000000  0.000000  0.000000      1.000000
  0.250000  0.000000  0.000000      2.000000
  0.500000  0.000000  0.000000      1.000000
  0.000000  0.250000  0.000000      2.000000
  0.250000  0.250000  0.000000      2.000000
  0.500000  0.250000 -0.000000      2.000000
 -0.250000  0.250000  0.000000      2.000000
  0.000000  0.500000  0.000000      1.000000
  0.250000  0.500000 -0.000000      2.000000
  0.500000  0.500000  0.000000      1.000000
 -0.000000 -0.000000  0.200000      2.000000
  0.250000  0.000000  0.200000      2.000000
  0.500000  0.000000  0.200000      2.000000
 -0.250000 -0.000000  0.200000      2.000000
  0.000000  0.250000  0.200000      2.000000
  0.250000  0.250000  0.200000      2.000000
  0.500000  0.250000  0.200000      2.000000
 -0.250000  0.250000  0.200000      2.000000
  0.000000  0.500000  0.200000      2.000000
  0.250000  0.500000  0.200000      2.000000
  0.500000  0.500000  0.200000      2.000000
 -0.250000  0.500000  0.200000      2.000000
 -0.000000 -0.250000  0.200000      2.000000
  0.250000 -0.250000  0.200000      2.000000
  0.500000 -0.250000  0.200000      2.000000
 -0.250000 -0.250000  0.200000      2.000000
 -0.000000 -0.000000  0.400000      2.000000
  0.250000  0.000000  0.400000      2.000000
  0.500000  0.000000  0.400000      2.000000
 -0.250000  0.000000  0.400000      2.000000
  0.000000  0.250000  0.400000      2.000000
  0.250000  0.250000  0.400000      2.000000
  0.500000  0.250000  0.400000      2.000000
 -0.250000  0.250000  0.400000      2.000000
  0.000000  0.500000  0.400000      2.000000
  0.250000  0.500000  0.400000      2.000000
  0.500000  0.500000  0.400000      2.000000
 -0.250000  0.500000  0.400000      2.000000
  0.000000 -0.250000  0.400000      2.000000
  0.250000 -0.250000  0.400000      2.000000
  0.500000 -0.250000  0.400000      2.000000
 -0.250000 -0.250000  0.400000      2.000000
 
 Following cartesian coordinates:
            Coordinates               Weight
  0.000000  0.000000  0.000000      1.000000
  0.038631 -0.022148  0.013365      2.000000
  0.077263 -0.044296  0.026730      1.000000
  0.038631  0.022148  0.013365      2.000000
  0.077263  0.000000  0.026730      2.000000
  0.115894 -0.022148  0.040096      2.000000
  0.000000  0.044296  0.000000      2.000000
  0.077263  0.044296  0.026730      1.000000
  0.115894  0.022148  0.040096      2.000000
  0.154525  0.000000  0.053461      1.000000
 -0.000321  0.000000  0.032808      2.000000
  0.038310 -0.022148  0.046173      2.000000
  0.076941 -0.044296  0.059538      2.000000
 -0.038952  0.022148  0.019443      2.000000
  0.038310  0.022148  0.046173      2.000000
  0.076941  0.000000  0.059538      2.000000
  0.115573 -0.022148  0.072903      2.000000
 -0.000321  0.044296  0.032808      2.000000
  0.076941  0.044296  0.059538      2.000000
  0.115573  0.022148  0.072903      2.000000
  0.154204  0.000000  0.086269      2.000000
  0.038310  0.066444  0.046173      2.000000
 -0.038952 -0.022148  0.019443      2.000000
 -0.000321 -0.044296  0.032808      2.000000
  0.038310 -0.066444  0.046173      2.000000
 -0.077584  0.000000  0.006077      2.000000
 -0.000642  0.000000  0.065616      2.000000
  0.037989 -0.022148  0.078981      2.000000
  0.076620 -0.044296  0.092346      2.000000
 -0.039274  0.022148  0.052250      2.000000
  0.037989  0.022148  0.078981      2.000000
  0.076620  0.000000  0.092346      2.000000
  0.115251 -0.022148  0.105711      2.000000
 -0.000642  0.044296  0.065616      2.000000
  0.076620  0.044296  0.092346      2.000000
  0.115251  0.022148  0.105711      2.000000
  0.153883  0.000000  0.119076      2.000000
  0.037989  0.066444  0.078981      2.000000
 -0.039274 -0.022148  0.052250      2.000000
 -0.000642 -0.044296  0.065616      2.000000
  0.037989 -0.066444  0.078981      2.000000
 -0.077905  0.000000  0.038885      2.000000
 
 
 Subroutine IBZKPT_HF returns following result:
 ==============================================
 
 Found     80 k-points in 1st BZ
 the following     80 k-points will be used (e.g. in the exchange kernel)
 Following reciprocal coordinates:   # in IRBZ
  0.000000  0.000000  0.000000       1 t-inv F
  0.250000  0.000000  0.000000       2 t-inv F
  0.500000  0.000000  0.000000       3 t-inv F
  0.000000  0.250000  0.000000       4 t-inv F
  0.250000  0.250000  0.000000       5 t-inv F
  0.500000  0.250000 -0.000000       6 t-inv F
 -0.250000  0.250000  0.000000       7 t-inv F
  0.000000  0.500000  0.000000       8 t-inv F
  0.250000  0.500000 -0.000000       9 t-inv F
  0.500000  0.500000  0.000000      10 t-inv F
 -0.000000 -0.000000  0.200000      11 t-inv F
  0.250000  0.000000  0.200000      12 t-inv F
  0.500000  0.000000  0.200000      13 t-inv F
 -0.250000 -0.000000  0.200000      14 t-inv F
  0.000000  0.250000  0.200000      15 t-inv F
  0.250000  0.250000  0.200000      16 t-inv F
  0.500000  0.250000  0.200000      17 t-inv F
 -0.250000  0.250000  0.200000      18 t-inv F
  0.000000  0.500000  0.200000      19 t-inv F
  0.250000  0.500000  0.200000      20 t-inv F
  0.500000  0.500000  0.200000      21 t-inv F
 -0.250000  0.500000  0.200000      22 t-inv F
 -0.000000 -0.250000  0.200000      23 t-inv F
  0.250000 -0.250000  0.200000      24 t-inv F
  0.500000 -0.250000  0.200000      25 t-inv F
 -0.250000 -0.250000  0.200000      26 t-inv F
 -0.000000 -0.000000  0.400000      27 t-inv F
  0.250000  0.000000  0.400000      28 t-inv F
  0.500000  0.000000  0.400000      29 t-inv F
 -0.250000  0.000000  0.400000      30 t-inv F
  0.000000  0.250000  0.400000      31 t-inv F
  0.250000  0.250000  0.400000      32 t-inv F
  0.500000  0.250000  0.400000      33 t-inv F
 -0.250000  0.250000  0.400000      34 t-inv F
  0.000000  0.500000  0.400000      35 t-inv F
  0.250000  0.500000  0.400000      36 t-inv F
  0.500000  0.500000  0.400000      37 t-inv F
 -0.250000  0.500000  0.400000      38 t-inv F
  0.000000 -0.250000  0.400000      39 t-inv F
  0.250000 -0.250000  0.400000      40 t-inv F
  0.500000 -0.250000  0.400000      41 t-inv F
 -0.250000 -0.250000  0.400000      42 t-inv F
 -0.250000 -0.000000 -0.000000       2 t-inv T
 -0.000000 -0.250000 -0.000000       4 t-inv T
 -0.250000 -0.250000  0.000000       5 t-inv T
 -0.500000 -0.250000  0.000000       6 t-inv T
  0.250000 -0.250000  0.000000       7 t-inv T
 -0.250000 -0.500000  0.000000       9 t-inv T
  0.000000  0.000000 -0.200000      11 t-inv T
 -0.250000 -0.000000 -0.200000      12 t-inv T
 -0.500000 -0.000000 -0.200000      13 t-inv T
  0.250000  0.000000 -0.200000      14 t-inv T
 -0.000000 -0.250000 -0.200000      15 t-inv T
 -0.250000 -0.250000 -0.200000      16 t-inv T
 -0.500000 -0.250000 -0.200000      17 t-inv T
  0.250000 -0.250000 -0.200000      18 t-inv T
 -0.000000 -0.500000 -0.200000      19 t-inv T
 -0.250000 -0.500000 -0.200000      20 t-inv T
 -0.500000 -0.500000 -0.200000      21 t-inv T
  0.250000 -0.500000 -0.200000      22 t-inv T
  0.000000  0.250000 -0.200000      23 t-inv T
 -0.250000  0.250000 -0.200000      24 t-inv T
 -0.500000  0.250000 -0.200000      25 t-inv T
  0.250000  0.250000 -0.200000      26 t-inv T
  0.000000  0.000000 -0.400000      27 t-inv T
 -0.250000 -0.000000 -0.400000      28 t-inv T
 -0.500000 -0.000000 -0.400000      29 t-inv T
  0.250000 -0.000000 -0.400000      30 t-inv T
 -0.000000 -0.250000 -0.400000      31 t-inv T
 -0.250000 -0.250000 -0.400000      32 t-inv T
 -0.500000 -0.250000 -0.400000      33 t-inv T
  0.250000 -0.250000 -0.400000      34 t-inv T
 -0.000000 -0.500000 -0.400000      35 t-inv T
 -0.250000 -0.500000 -0.400000      36 t-inv T
 -0.500000 -0.500000 -0.400000      37 t-inv T
  0.250000 -0.500000 -0.400000      38 t-inv T
 -0.000000  0.250000 -0.400000      39 t-inv T
 -0.250000  0.250000 -0.400000      40 t-inv T
 -0.500000  0.250000 -0.400000      41 t-inv T
  0.250000  0.250000 -0.400000      42 t-inv T


--------------------------------------------------------------------------------------------------------




 Dimension of arrays:
   k-points           NKPTS =     42   k-points in BZ     NKDIM =     80   number of bands    NBANDS=     80
   number of dos      NEDOS =    301   number of ions     NIONS =     12
   non local maximal  LDIM  =      6   non local SUM 2l+1 LMDIM =     18
   total plane-waves  NPLWV =  32768
   max r-space proj   IRMAX =      1   max aug-charges    IRDMAX=   8224
   dimension x,y,z NGX =    32 NGY =   32 NGZ =   32
   dimension x,y,z NGXF=    64 NGYF=   64 NGZF=   64
   support grid    NGXF=    64 NGYF=   64 NGZF=   64
   ions per type =               4   2   6
 NGX,Y,Z   is equivalent  to a cutoff of   8.18,  8.18,  8.27 a.u.
 NGXF,Y,Z  is equivalent  to a cutoff of  16.37, 16.37, 16.55 a.u.


 I would recommend the setting:
   dimension x,y,z NGX =    32 NGY =   32 NGZ =   31
 SYSTEM =  CGS                                     
 POSCAR =  Cu Ge S                                 

 Startparameter for this run:
   NWRITE =      2    write-flag & timer
   PREC   = normal    normal or accurate (medium, high low for compatibility)
   ISTART =      1    job   : 0-new  1-cont  2-samecut
   ICHARG =      0    charge: 1-file 2-atom 10-const
   ISPIN  =      1    spin polarized calculation?
   LNONCOLLINEAR =      F non collinear calculations
   LSORBIT =      F    spin-orbit coupling
   INIWAV =      1    electr: 0-lowe 1-rand  2-diag
   LASPH  =      F    aspherical Exc in radial PAW
   METAGGA=      F    non-selfconsistent MetaGGA calc.

 Electronic Relaxation 1
   ENCUT  =  400.0 eV  29.40 Ry    5.42 a.u.  10.60 10.60 10.48*2*pi/ulx,y,z
   ENINI  =  400.0     initial cutoff
   ENAUG  =  758.2 eV  augmentation charge cutoff
   NELM   =     60;   NELMIN=  2; NELMDL=  0     # of ELM steps 
   EDIFF  = 0.1E-04   stopping-criterion for ELM
   LREAL  =      F    real-space projection
   NLSPLINE    = F    spline interpolate recip. space projectors
   LCOMPAT=      F    compatible to vasp.4.4
   GGA_COMPAT  = T    GGA compatible to vasp.4.4-vasp.4.6
   LMAXPAW     = -100 max onsite density
   LMAXMIX     =    2 max onsite mixed and CHGCAR
   VOSKOWN=      0    Vosko Wilk Nusair interpolation
   ROPT   =    0.00000   0.00000   0.00000
 Ionic relaxation
   EDIFFG = 0.1E-03   stopping-criterion for IOM
   NSW    =      0    number of steps for IOM
   NBLOCK =      1;   KBLOCK =      1    inner block; outer block 
   IBRION =     -1    ionic relax: 0-MD 1-quasi-New 2-CG
   NFREE  =      0    steps in history (QN), initial steepest desc. (CG)
   ISIF   =      0    stress and relaxation
   IWAVPR =     10    prediction:  0-non 1-charg 2-wave 3-comb
   ISYM   =      3    0-nonsym 1-usesym 2-fastsym
   LCORR  =      T    Harris-Foulkes like correction to forces

   POTIM  = 0.5000    time-step for ionic-motion
   TEIN   =    0.0    initial temperature
   TEBEG  =    0.0;   TEEND  =   0.0 temperature during run
   SMASS  =  -3.00    Nose mass-parameter (am)
   estimated Nose-frequenzy (Omega)   =  0.10E-29 period in steps =****** mass=  -0.966E-27a.u.
   SCALEE = 1.0000    scale energy and forces
   NPACO  =    256;   APACO  = 16.0  distance and # of slots for P.C.
   PSTRESS=    0.0 pullay stress

  Mass of Ions in am
   POMASS =  63.55 72.61 32.07
  Ionic Valenz
   ZVAL   =  17.00  4.00  6.00
  Atomic Wigner-Seitz radii
   RWIGS  =  -1.00 -1.00 -1.00
  virtual crystal weights 
   VCA    =   1.00  1.00  1.00
   NELECT =     112.0000    total number of electrons
   NUPDOWN=      -1.0000    fix difference up-down

 DOS related values:
   EMIN   =  10.00;   EMAX   =-10.00  energy-range for DOS
   EFERMI =   0.00
   ISMEAR =     1;   SIGMA  =   0.10  broadening in eV -4-tet -1-fermi 0-gaus

 Electronic relaxation 2 (details)
   IALGO  =     53    algorithm
   LDIAG  =      T    sub-space diagonalisation (order eigenvalues)
   LSUBROT=      T    optimize rotation matrix (better conditioning)
   TURBO    =      0    0=normal 1=particle mesh
   IRESTART =      0    0=no restart 2=restart with 2 vectors
   NREBOOT  =      0    no. of reboots
   NMIN     =      0    reboot dimension
   EREF     =   0.00    reference energy to select bands
   IMIX   =      4    mixing-type and parameters
     AMIX     =   0.40;   BMIX     =  1.00
     AMIX_MAG =   1.60;   BMIX_MAG =  1.00
     AMIN     =   0.10
     WC   =   100.;   INIMIX=   1;  MIXPRE=   1;  MAXMIX= -45

 Intra band minimization:
   WEIMIN = 0.0000     energy-eigenvalue tresh-hold
   EBREAK =  0.31E-07  absolut break condition
   DEPER  =   0.30     relativ break condition  

   TIME   =   0.40     timestep for ELM

  volume/ion in A,a.u.               =      18.49       124.79
  Fermi-wavevector in a.u.,A,eV,Ry     =   1.303450  2.463163 23.116052  1.698982
  Thomas-Fermi vector in A             =   2.434451
 
 Write flags
   LWAVE  =      T    write WAVECAR
   LCHARG =      T    write CHGCAR
   LVTOT  =      F    write LOCPOT, total local potential
   LVHAR  =      F    write LOCPOT, Hartree potential only
   LELF   =      F    write electronic localiz. function (ELF)
   LORBIT =      0    0 simple, 1 ext, 2 COOP (PROOUT)


 Dipole corrections
   LMONO  =      F    monopole corrections only (constant potential shift)
   LDIPOL =      F    correct potential (dipole corrections)
   IDIPOL =      0    1-x, 2-y, 3-z, 4-all directions 
   EPSILON=  1.0000000 bulk dielectric constant

 Exchange correlation treatment:
   GGA     =    PE    GGA type
   LEXCH   =     8    internal setting for exchange type
   VOSKOWN=      0    Vosko Wilk Nusair interpolation
   EXXOEP  =     0    0=HF, 1=EXX-LHF (local Hartree Fock) 2=EXX OEP
   LHFCALC =     T    Hartree Fock is set to
   LSYMGRAD=     F    symmetrize gradient (conserves proper symmetry)
   PRECFOCK=fast      Normal, Fast or Accurate (Low or Medium for compatibility)
   LRHFCALC=     F    long range Hartree Fock
   LRSCOR  =     F    long range correlation only (use DFT for short range part)
   LTHOMAS =     F    Thomas Fermi screening in HF
   LMODELHF=     F    short range full HF, long range fraction AEXX
   ENCUT4O =  -1.0   cutoff for four orbital integrals eV
   LMAXFOCK=     4    L truncation for augmentation on plane wave grid
   LMAXFOCKAE=  -1    L truncation for all-electron charge restoration on plane wave grid
   NMAXFOCKAE=   1    number of basis functions for all-electron charge restoration
   LFOCKAEDFT=     F  apply the AE augmentation even for DFT
   NKREDX  =     1    reduce k-point grid by
   NKREDY  =     1    reduce k-point grid by
   NKREDZ  =     1    reduce k-point grid by
   SHIFTRED=     F    shift reduced grid of Gamma
   HFKIDENT=     F    idential grid for each k-point
   ODDONLY =     F    use only odd q-grid points
   EVENONLY=     F    use only even q-grid points
   HFALPHA =   -1.0000 decay constant for conv. correction
   MCALPHA =    0.0000 extent of test-charge in conv. correction in multipole expansion
   AEXX    =    0.2500 exact exchange contribution
   HFSCREEN=    0.2000 screening length (either q_TF or 0.3 A-1)
   HFSCREENC=   0.2000 screening length for correlation (either q_TF or 0.3 A-1)
   HFRCUT  =    0.0000 spherical cutoff for potential kernel
   ALDAX   =    0.7500 LDA exchange part
   AGGAX   =    0.7500 GGA exchange part
   ALDAC   =    1.0000 LDA correlation
   AGGAC   =    1.0000 GGA correlation
   NBANDSGWLOW=     1    first orbital included in HF term
 Linear response parameters
   LEPSILON=     F    determine dielectric tensor
   LRPA    =     F    only Hartree local field effects (RPA)
   LNABLA  =     F    use nabla operator in PAW spheres
   LVEL    =     F    velocity operator in full k-point grid
   LINTERFAST=   F  fast interpolation
   KINTER  =     0    interpolate to denser k-point grid
   CSHIFT  =0.1000    complex shift for real part using Kramers Kronig
   OMEGAMAX=  -1.0    maximum frequency
   DEG_THRESHOLD= 0.2000000E-02 threshold for treating states as degnerate
   RTIME   =    0.100 relaxation time in fs

 Orbital magnetization related:
   ORBITALMAG=     F  switch on orbital magnetization
   LCHIMAG   =     F  perturbation theory with respect to B field
   DQ        =  0.001000  dq finite difference perturbation B field



--------------------------------------------------------------------------------------------------------


 Static calculation
 charge density and potential will be updated during run
 non-spin polarized calculation
 Conjugate gradient for all bands, subspace preconditioning
 perform sub-space diagonalisation
    before iterative eigenvector-optimisation
 modified Broyden-mixing scheme, WC =      100.0
 initial mixing is a Kerker type mixing with AMIX =  0.4000 and BMIX =      1.0000
 Hartree-type preconditioning will be used
 using additional bands           24
 reciprocal scheme for non local part
 use partial core corrections
 no Harris-corrections to forces 
 use gradient corrections 
 use of overlap-Matrix (Vanderbilt PP)
 Methfessel and Paxton  Order N= 1 SIGMA  =   0.10


--------------------------------------------------------------------------------------------------------


  energy-cutoff  :      400.00
  volume of cell :      221.90
      direct lattice vectors                 reciprocal lattice vectors
     3.224796000 -5.643830000  0.031572000     0.154525165 -0.088592321  0.053460880
     3.224796000  5.643830000  0.031572000     0.154525165  0.088592321  0.053460880
    -2.101946000  0.000000000  6.075537000    -0.001606004  0.000000000  0.164038877

  length of vectors
     6.500240234  6.500240234  6.428866683     0.185969598  0.185969598  0.164046738


 
 old parameters found on file WAVECAR:
  energy-cutoff  :      400.00
  volume of cell :      222.35
      direct lattice vectors                 reciprocal lattice vectors
     3.227235519 -5.642745207  0.030241751     0.154430495 -0.088609353  0.053450002
     3.227235519  5.642745207  0.030241751     0.154430495  0.088609353  0.053450002
    -2.106135241  0.000000000  6.085154262    -0.001534965  0.000000000  0.163803104

  length of vectors

 
 k-points in units of 2pi/SCALE and weight: pymatgen 4.7.6+ generated KPOINTS with g
   0.00000000  0.00000000  0.00000000       0.013
   0.03863129 -0.02214808  0.01336522       0.025
   0.07726258 -0.04429616  0.02673044       0.013
   0.03863129  0.02214808  0.01336522       0.025
   0.07726258  0.00000000  0.02673044       0.025
   0.11589387 -0.02214808  0.04009566       0.025
   0.00000000  0.04429616  0.00000000       0.025
   0.07726258  0.04429616  0.02673044       0.013
   0.11589387  0.02214808  0.04009566       0.025
   0.15452516  0.00000000  0.05346088       0.013
  -0.00032120  0.00000000  0.03280778       0.025
   0.03831009 -0.02214808  0.04617300       0.025
   0.07694138 -0.04429616  0.05953822       0.025
  -0.03895249  0.02214808  0.01944256       0.025
   0.03831009  0.02214808  0.04617300       0.025
   0.07694138  0.00000000  0.05953822       0.025
   0.11557267 -0.02214808  0.07290344       0.025
  -0.00032120  0.04429616  0.03280778       0.025
   0.07694138  0.04429616  0.05953822       0.025
   0.11557267  0.02214808  0.07290344       0.025
   0.15420396  0.00000000  0.08626865       0.025
   0.03831009  0.06644424  0.04617300       0.025
  -0.03895249 -0.02214808  0.01944256       0.025
  -0.00032120 -0.04429616  0.03280778       0.025
   0.03831009 -0.06644424  0.04617300       0.025
  -0.07758378  0.00000000  0.00607734       0.025
  -0.00064240  0.00000000  0.06561555       0.025
   0.03798889 -0.02214808  0.07898077       0.025
   0.07662018 -0.04429616  0.09234599       0.025
  -0.03927369  0.02214808  0.05225033       0.025
   0.03798889  0.02214808  0.07898077       0.025
   0.07662018  0.00000000  0.09234599       0.025
   0.11525147 -0.02214808  0.10571121       0.025
  -0.00064240  0.04429616  0.06561555       0.025
   0.07662018  0.04429616  0.09234599       0.025
   0.11525147  0.02214808  0.10571121       0.025
   0.15388276  0.00000000  0.11907643       0.025
   0.03798889  0.06644424  0.07898077       0.025
  -0.03927369 -0.02214808  0.05225033       0.025
  -0.00064240 -0.04429616  0.06561555       0.025
   0.03798889 -0.06644424  0.07898077       0.025
  -0.07790498  0.00000000  0.03888511       0.025
 
 k-points in reciprocal lattice and weights: pymatgen 4.7.6+ generated KPOINTS with g
   0.00000000  0.00000000  0.00000000       0.013
   0.25000000  0.00000000  0.00000000       0.025
   0.50000000  0.00000000  0.00000000       0.013
   0.00000000  0.25000000  0.00000000       0.025
   0.25000000  0.25000000  0.00000000       0.025
   0.50000000  0.25000000 -0.00000000       0.025
  -0.25000000  0.25000000  0.00000000       0.025
   0.00000000  0.50000000  0.00000000       0.013
   0.25000000  0.50000000 -0.00000000       0.025
   0.50000000  0.50000000  0.00000000       0.013
  -0.00000000 -0.00000000  0.20000000       0.025
   0.25000000  0.00000000  0.20000000       0.025
   0.50000000  0.00000000  0.20000000       0.025
  -0.25000000 -0.00000000  0.20000000       0.025
   0.00000000  0.25000000  0.20000000       0.025
   0.25000000  0.25000000  0.20000000       0.025
   0.50000000  0.25000000  0.20000000       0.025
  -0.25000000  0.25000000  0.20000000       0.025
   0.00000000  0.50000000  0.20000000       0.025
   0.25000000  0.50000000  0.20000000       0.025
   0.50000000  0.50000000  0.20000000       0.025
  -0.25000000  0.50000000  0.20000000       0.025
  -0.00000000 -0.25000000  0.20000000       0.025
   0.25000000 -0.25000000  0.20000000       0.025
   0.50000000 -0.25000000  0.20000000       0.025
  -0.25000000 -0.25000000  0.20000000       0.025
  -0.00000000 -0.00000000  0.40000000       0.025
   0.25000000  0.00000000  0.40000000       0.025
   0.50000000  0.00000000  0.40000000       0.025
  -0.25000000  0.00000000  0.40000000       0.025
   0.00000000  0.25000000  0.40000000       0.025
   0.25000000  0.25000000  0.40000000       0.025
   0.50000000  0.25000000  0.40000000       0.025
  -0.25000000  0.25000000  0.40000000       0.025
   0.00000000  0.50000000  0.40000000       0.025
   0.25000000  0.50000000  0.40000000       0.025
   0.50000000  0.50000000  0.40000000       0.025
  -0.25000000  0.50000000  0.40000000       0.025
   0.00000000 -0.25000000  0.40000000       0.025
   0.25000000 -0.25000000  0.40000000       0.025
   0.50000000 -0.25000000  0.40000000       0.025
  -0.25000000 -0.25000000  0.40000000       0.025
 
 position of ions in fractional coordinates (direct lattice) 
   0.61844300  0.12117100  0.11953300
   0.12117100  0.61844300  0.61953300
   0.96295700  0.79032200  0.11725752
   0.79032200  0.96295700  0.61881300
   0.43973200  0.26728100  0.59904700
   0.26728100  0.43973200  0.09904700
   0.07949800  0.91167500  0.49736300
   0.57140300  0.41236400  0.98018400
   0.73711100  0.25006200  0.49504900
   0.41236400  0.57140300  0.48018400
   0.91167500  0.07949800  0.99736300
   0.25006200  0.73711100  0.99504900
 
 position of ions in cartesian coordinates  (Angst):
   2.13385236 -2.80651863  0.74957826
   1.08287936  2.80651863  3.78734676
   5.40749814 -0.97432259  0.76775690
   4.35325560  0.97432259  3.81497580
   1.02080825 -0.97328413  3.66185403
   2.07178125  0.97328413  0.62408553
   2.15090056  4.69666552  3.05304062
   1.11215405 -0.89758908  5.98620365
   2.14286528 -2.74882176  3.03885554
   2.16312705  0.89758908  2.94843515
   1.09992756 -4.69666552  6.09080912
   1.09189228  2.74882176  6.07662404
 


--------------------------------------------------------------------------------------------------------


 k-point  1 :   0.0000 0.0000 0.0000  plane waves:    4051
 k-point  2 :   0.2500 0.0000 0.0000  plane waves:    4032
 k-point  3 :   0.5000 0.0000 0.0000  plane waves:    4030
 k-point  4 :   0.0000 0.2500 0.0000  plane waves:    4032
 k-point  5 :   0.2500 0.2500 0.0000  plane waves:    4038
 k-point  6 :   0.5000 0.2500-0.0000  plane waves:    4037
 k-point  7 :  -0.2500 0.2500 0.0000  plane waves:    4042
 k-point  8 :   0.0000 0.5000 0.0000  plane waves:    4030
 k-point  9 :   0.2500 0.5000-0.0000  plane waves:    4037
 k-point 10 :   0.5000 0.5000 0.0000  plane waves:    4026
 k-point 11 :  -0.0000-0.0000 0.2000  plane waves:    4046
 k-point 12 :   0.2500 0.0000 0.2000  plane waves:    4034
 k-point 13 :   0.5000 0.0000 0.2000  plane waves:    4025
 k-point 14 :  -0.2500-0.0000 0.2000  plane waves:    4044
 k-point 15 :   0.0000 0.2500 0.2000  plane waves:    4034
 k-point 16 :   0.2500 0.2500 0.2000  plane waves:    4017
 k-point 17 :   0.5000 0.2500 0.2000  plane waves:    4039
 k-point 18 :  -0.2500 0.2500 0.2000  plane waves:    4042
 k-point 19 :   0.0000 0.5000 0.2000  plane waves:    4025
 k-point 20 :   0.2500 0.5000 0.2000  plane waves:    4039
 k-point 21 :   0.5000 0.5000 0.2000  plane waves:    4030
 k-point 22 :  -0.2500 0.5000 0.2000  plane waves:    4030
 k-point 23 :  -0.0000-0.2500 0.2000  plane waves:    4044
 k-point 24 :   0.2500-0.2500 0.2000  plane waves:    4042
 k-point 25 :   0.5000-0.2500 0.2000  plane waves:    4030
 k-point 26 :  -0.2500-0.2500 0.2000  plane waves:    4020
 k-point 27 :  -0.0000-0.0000 0.4000  plane waves:    4027
 k-point 28 :   0.2500 0.0000 0.4000  plane waves:    4034
 k-point 29 :   0.5000 0.0000 0.4000  plane waves:    4013
 k-point 30 :  -0.2500 0.0000 0.4000  plane waves:    4042
 k-point 31 :   0.0000 0.2500 0.4000  plane waves:    4034
 k-point 32 :   0.2500 0.2500 0.4000  plane waves:    4009
 k-point 33 :   0.5000 0.2500 0.4000  plane waves:    4026
 k-point 34 :  -0.2500 0.2500 0.4000  plane waves:    4027
 k-point 35 :   0.0000 0.5000 0.4000  plane waves:    4013
 k-point 36 :   0.2500 0.5000 0.4000  plane waves:    4026
 k-point 37 :   0.5000 0.5000 0.4000  plane waves:    4037
 k-point 38 :  -0.2500 0.5000 0.4000  plane waves:    4022
 k-point 39 :   0.0000-0.2500 0.4000  plane waves:    4042
 k-point 40 :   0.2500-0.2500 0.4000  plane waves:    4027
 k-point 41 :   0.5000-0.2500 0.4000  plane waves:    4022
 k-point 42 :  -0.2500-0.2500 0.4000  plane waves:    4015

 maximum and minimum number of plane-waves per node :      4051     4009

 maximum number of plane-waves:      4051
 maximum index in each direction: 
   IXMAX=   10   IYMAX=   10   IZMAX=   10
   IXMIN=  -11   IYMIN=  -11   IZMIN=  -10

 WARNING: aliasing errors must be expected set NGX to  44 to avoid them
 WARNING: aliasing errors must be expected set NGY to  44 to avoid them
 WARNING: aliasing errors must be expected set NGZ to  42 to avoid them
 aliasing errors are usually negligible using standard VASP settings
 and one can safely disregard these warnings

 serial   3D FFT for wavefunctions
 parallel 3D FFT for charge:
    minimum data exchange during FFTs selected (reduces bandwidth)


 FFT grid for exact exchange (Hartree Fock) 
  NGX = 24; NGY = 24; NGZ = 24

 
 Radii for the augmentation spheres in the non-local exchange
 for species   1 augmentation radius   1.120 (default was   0.830)
       energy cutoff for augmentation   1600.0
 for species   2 augmentation radius   1.570 (default was   1.163)
       energy cutoff for augmentation   1600.0
 for species   3 augmentation radius   1.034 (default was   0.970)
       energy cutoff for augmentation   1600.0

 total amount of memory used by VASP on root node   151696. kBytes
========================================================================

   base      :      30000. kBytes
   nonl-proj :      74517. kBytes
   fftplans  :        702. kBytes
   grid      :       2400. kBytes
   one-center:        186. kBytes
   HF        :        194. kBytes
   nonlr-proj:       1121. kBytes
   wavefun   :      42576. kBytes
 
 Broyden mixing: mesh for mixing (old mesh)
   NGX = 21   NGY = 21   NGZ = 21
  (NGX  = 64   NGY  = 64   NGZ  = 64)
  gives a total of   9261 points

 charge density for first step will be calculated from the start-wavefunctions


--------------------------------------------------------------------------------------------------------


 Maximum index for augmentation-charges          485 (set IRDMAX)


--------------------------------------------------------------------------------------------------------


 initial charge from wavefunction
 First call to EWALD:  gamma=   0.293
 Maximum number of real-space cells 3x 3x 3
 Maximum number of reciprocal cells 3x 3x 3

 FEWALD executed in parallel
    FEWALD:  cpu time    0.00: real time    0.00


----------------------------------------- Iteration    1(   1)  ---------------------------------------


    POTLOK:  cpu time    0.11: real time    0.12
    SETDIJ:  cpu time    2.04: real time    2.03
 
    SUBROT:  cpu time    1.49: real time    1.49
    SUBROT:  cpu time    0.72: real time    0.72
    SUBROT:  cpu time    0.72: real time    0.72
    --------------------------------------------
    SUBRT+:  cpu time    2.94: real time    2.94

 Broyden mixing:
  rms(total) = 0.30495E-01    rms(broyden)= 0.30481E-01
  rms(prec ) = 0.46070E-01
  weight for this iteration     100.00

 eigenvalues of (default mixing * dielectric matrix)
  average eigenvalue GAMMA=   1.7253
  0.9983  2.4522
 
    TRIAL :  cpu time  242.60: real time  242.41
    CORREC:  cpu time    0.00: real time    0.00
    CHARGE:  cpu time    0.08: real time    0.08
    --------------------------------------------
      LOOP:  cpu time  244.85: real time  244.66

 eigenvalue-minimisations  :     0
 total energy-change (2. order) : 0.7570875E+02  (-0.2136248E+03)
 number of electron     112.0001495 magnetization 
 augmentation part       38.9141718 magnetization 

 Free energy of the ion-electron system (eV)
  ---------------------------------------------------
  alpha Z        PSCENC =       339.31929130
  Ewald energy   TEWEN  =     -9064.57824857
  -1/2 Hartree   DENC   =     -8067.03647062
  -exchange  EXHF       =       327.44027181
  -V(xc)+E(xc)   XCENC  =       369.89401039
  PAW double counting   =     16956.77973864   -17449.51956704
  entropy T*S    EENTRO =        -0.00146749
  eigenvalues    EBANDS =     -1657.57396280
  atomic energy  EATOM  =     18320.98302006
  ---------------------------------------------------
  free energy    TOTEN  =        75.70874646 eV

  energy without entropy =       75.71021395  energy(sigma->0) =       75.70923563


--------------------------------------------------------------------------------------------------------




----------------------------------------- Iteration    1(   2)  ---------------------------------------


    POTLOK:  cpu time    0.10: real time    0.10
    SETDIJ:  cpu time    2.90: real time    2.90
 
    SUBROT:  cpu time    0.74: real time    0.74
    SUBROT:  cpu time    0.39: real time    0.39
    SUBROT:  cpu time    0.39: real time    0.39
    SUBROT:  cpu time    0.37: real time    0.37
    --------------------------------------------
    SUBRT+:  cpu time    1.89: real time    1.92

 Broyden mixing:
  rms(total) = 0.28092E-01    rms(broyden)= 0.28082E-01
  rms(prec ) = 0.51027E-01
  weight for this iteration     100.00

 eigenvalues of (default mixing * dielectric matrix)
  average eigenvalue GAMMA=   1.5795
  2.5452  1.3250  0.8683
 
    TRIAL :  cpu time  250.67: real time  250.47
    CORREC:  cpu time    0.00: real time    0.00
    CHARGE:  cpu time    0.06: real time    0.06
    --------------------------------------------
      LOOP:  cpu time  253.74: real time  253.54

 eigenvalue-minimisations  :     0
 total energy-change (2. order) :-0.8393233E+02  (-0.1472885E+03)
 number of electron     112.0001398 magnetization 
 augmentation part       35.4292026 magnetization 

 Free energy of the ion-electron system (eV)
  ---------------------------------------------------
  alpha Z        PSCENC =       339.31929130
  Ewald energy   TEWEN  =     -9064.57824857
  -1/2 Hartree   DENC   =     -8371.15086226
  -exchange  EXHF       =       338.96667870
  -V(xc)+E(xc)   XCENC  =       377.33730407
  PAW double counting   =     17432.32390649   -17971.58573681
  entropy T*S    EENTRO =        -0.00063536
  eigenvalues    EBANDS =     -1409.83746819
  atomic energy  EATOM  =     18320.98302006
  ---------------------------------------------------
  free energy    TOTEN  =        -8.22358268 eV

  energy without entropy =       -8.22294732  energy(sigma->0) =       -8.22337090


--------------------------------------------------------------------------------------------------------




----------------------------------------- Iteration    1(   3)  ---------------------------------------


    POTLOK:  cpu time    0.14: real time    0.14
    SETDIJ:  cpu time    2.39: real time    2.39
 
    SUBROT:  cpu time    0.76: real time    0.76
    SUBROT:  cpu time    0.36: real time    0.37
    SUBROT:  cpu time    0.37: real time    0.37
    SUBROT:  cpu time    0.35: real time    0.35
    --------------------------------------------
    SUBRT+:  cpu time    1.84: real time    1.86

 Broyden mixing:
  rms(total) = 0.28055E-01    rms(broyden)= 0.28043E-01
  rms(prec ) = 0.52347E-01
  weight for this iteration     100.00

 eigenvalues of (default mixing * dielectric matrix)
  average eigenvalue GAMMA=   1.7755
  1.0116  2.4990  1.8158
 
    TRIAL :  cpu time  250.05: real time  249.84
    CORREC:  cpu time    0.00: real time    0.00
    CHARGE:  cpu time    0.11: real time    0.11
    --------------------------------------------
      LOOP:  cpu time  252.70: real time  252.50

 eigenvalue-minimisations  :     0
 total energy-change (2. order) :-0.6403948E+01  (-0.2019168E+03)
 number of electron     112.0001527 magnetization 
 augmentation part       39.7082112 magnetization 

 Free energy of the ion-electron system (eV)
  ---------------------------------------------------
  alpha Z        PSCENC =       339.31929130
  Ewald energy   TEWEN  =     -9064.57824857
  -1/2 Hartree   DENC   =     -7470.65013487
  -exchange  EXHF       =       324.84516098
  -V(xc)+E(xc)   XCENC  =       357.26029141
  PAW double counting   =     15143.98728388   -15573.15553061
  entropy T*S    EENTRO =         0.00025725
  eigenvalues    EBANDS =     -2392.63802910
  atomic energy  EATOM  =     18320.98302006
  ---------------------------------------------------
  free energy    TOTEN  =       -14.62753088 eV

  energy without entropy =      -14.62778813  energy(sigma->0) =      -14.62761663


--------------------------------------------------------------------------------------------------------




----------------------------------------- Iteration    1(   4)  ---------------------------------------


    POTLOK:  cpu time    0.16: real time    0.16
    SETDIJ:  cpu time    2.29: real time    2.29
 
    SUBROT:  cpu time    0.80: real time    0.80
    SUBROT:  cpu time    0.36: real time    0.36
    SUBROT:  cpu time    0.36: real time    0.36
    SUBROT:  cpu time    0.35: real time    0.35
    SUBROT:  cpu time    0.38: real time    0.38
    --------------------------------------------
    SUBRT+:  cpu time    2.25: real time    2.26

 Broyden mixing:
  rms(total) = 0.11754E+00    rms(broyden)= 0.11738E+00
  rms(prec ) = 0.20714E+00
  weight for this iteration     100.00

 eigenvalues of (default mixing * dielectric matrix)
  average eigenvalue GAMMA=   1.2768
  2.6694  1.4285  0.6486  0.3607
 
    TRIAL :  cpu time  249.16: real time  248.97
    CORREC:  cpu time    0.00: real time    0.00
    CHARGE:  cpu time    0.09: real time    0.09
    --------------------------------------------
      LOOP:  cpu time  251.71: real time  251.52

 eigenvalue-minimisations  :     0
 total energy-change (2. order) :-0.7430228E+01  (-0.1085683E+03)
 number of electron     112.0001445 magnetization 
 augmentation part       37.2379000 magnetization 

 Free energy of the ion-electron system (eV)
  ---------------------------------------------------
  alpha Z        PSCENC =       339.31929130
  Ewald energy   TEWEN  =     -9064.57824857
  -1/2 Hartree   DENC   =     -8548.65884839
  -exchange  EXHF       =       343.06080648
  -V(xc)+E(xc)   XCENC  =       381.78356318
  PAW double counting   =     17656.69035530   -18238.58315497
  entropy T*S    EENTRO =         0.00038295
  eigenvalues    EBANDS =     -1212.07480044
  atomic energy  EATOM  =     18320.98302006
  ---------------------------------------------------
  free energy    TOTEN  =       -22.05775880 eV

  energy without entropy =      -22.05814175  energy(sigma->0) =      -22.05788645


--------------------------------------------------------------------------------------------------------




----------------------------------------- Iteration    1(   5)  ---------------------------------------


    POTLOK:  cpu time    0.20: real time    0.20
    SETDIJ:  cpu time    2.45: real time    2.45
 
    SUBROT:  cpu time    0.78: real time    0.78
    SUBROT:  cpu time    0.36: real time    0.36
    SUBROT:  cpu time    0.37: real time    0.37
    SUBROT:  cpu time    0.37: real time    0.37
    --------------------------------------------
    SUBRT+:  cpu time    1.88: real time    1.88

 Broyden mixing:
  rms(total) = 0.39416E-01    rms(broyden)= 0.39408E-01
  rms(prec ) = 0.82539E-01
  weight for this iteration     100.00

 eigenvalues of (default mixing * dielectric matrix)
  average eigenvalue GAMMA=   1.7010
  2.4606  0.9338  1.7088
 
    TRIAL :  cpu time  249.34: real time  249.14
    CORREC:  cpu time    0.00: real time    0.00
    CHARGE:  cpu time    0.05: real time    0.05
    --------------------------------------------
      LOOP:  cpu time  252.05: real time  251.85

 eigenvalue-minimisations  :     0
 total energy-change (2. order) :-0.3870171E+02  (-0.1516067E+02)
 number of electron     112.0001444 magnetization 
 augmentation part       37.2443017 magnetization 

 Free energy of the ion-electron system (eV)
  ---------------------------------------------------
  alpha Z        PSCENC =       339.31929130
  Ewald energy   TEWEN  =     -9064.57824857
  -1/2 Hartree   DENC   =     -8006.72180064
  -exchange  EXHF       =       336.34487722
  -V(xc)+E(xc)   XCENC  =       368.35954615
  PAW double counting   =     15869.87459614   -16339.19941371
  entropy T*S    EENTRO =         0.00063349
  eigenvalues    EBANDS =     -1885.14171933
  atomic energy  EATOM  =     18320.98302006
  ---------------------------------------------------
  free energy    TOTEN  =       -60.75946843 eV

  energy without entropy =      -60.76010192  energy(sigma->0) =      -60.75967960


--------------------------------------------------------------------------------------------------------




----------------------------------------- Iteration    1(   6)  ---------------------------------------


    POTLOK:  cpu time    0.16: real time    0.16
    SETDIJ:  cpu time    2.57: real time    2.57
 
    SUBROT:  cpu time    0.75: real time    0.75
    SUBROT:  cpu time    0.39: real time    0.39
    SUBROT:  cpu time    0.38: real time    0.38
    SUBROT:  cpu time    0.38: real time    0.38
    --------------------------------------------
    SUBRT+:  cpu time    1.89: real time    1.92

 Broyden mixing:
  rms(total) = 0.26745E-02    rms(broyden)= 0.26739E-02
  rms(prec ) = 0.44772E-02
  weight for this iteration     100.00

 eigenvalues of (default mixing * dielectric matrix)
  average eigenvalue GAMMA=   1.8370
  1.0296  2.5179  1.9634
 
    TRIAL :  cpu time  250.55: real time  250.35
    CORREC:  cpu time    0.00: real time    0.00
    CHARGE:  cpu time    0.05: real time    0.05
    --------------------------------------------
      LOOP:  cpu time  253.34: real time  253.14

 eigenvalue-minimisations  :     0
 total energy-change (2. order) :-0.5150765E+01  (-0.8236052E+01)
 number of electron     112.0001475 magnetization 
 augmentation part       38.2293871 magnetization 

 Free energy of the ion-electron system (eV)
  ---------------------------------------------------
  alpha Z        PSCENC =       339.31929130
  Ewald energy   TEWEN  =     -9064.57824857
  -1/2 Hartree   DENC   =     -8001.39914290
  -exchange  EXHF       =       337.14062000
  -V(xc)+E(xc)   XCENC  =       368.77529671
  PAW double counting   =     15773.06142454   -16241.99774616
  entropy T*S    EENTRO =         0.00072191
  eigenvalues    EBANDS =     -1897.21538202
  atomic energy  EATOM  =     18320.98302006
  ---------------------------------------------------
  free energy    TOTEN  =       -65.91023355 eV

  energy without entropy =      -65.91095546  energy(sigma->0) =      -65.91047418


--------------------------------------------------------------------------------------------------------




----------------------------------------- Iteration    1(   7)  ---------------------------------------


    POTLOK:  cpu time    0.10: real time    0.10
    SETDIJ:  cpu time    2.12: real time    2.12
 
    SUBROT:  cpu time    0.75: real time    0.75
    SUBROT:  cpu time    0.36: real time    0.36
    SUBROT:  cpu time    0.37: real time    0.37
    SUBROT:  cpu time    0.37: real time    0.37
    --------------------------------------------
    SUBRT+:  cpu time    1.84: real time    1.85

 Broyden mixing:
  rms(total) = 0.13327E-01    rms(broyden)= 0.13323E-01
  rms(prec ) = 0.23508E-01
  weight for this iteration     100.00

 eigenvalues of (default mixing * dielectric matrix)
  average eigenvalue GAMMA=   1.5883
  2.5006  0.8884  1.3761
 
    TRIAL :  cpu time  255.03: real time  254.83
    CORREC:  cpu time    0.00: real time    0.00
    CHARGE:  cpu time    0.06: real time    0.06
    --------------------------------------------
      LOOP:  cpu time  257.31: real time  257.12

 eigenvalue-minimisations  :     0
 total energy-change (2. order) :-0.1551613E+01  (-0.4159836E+01)
 number of electron     112.0001458 magnetization 
 augmentation part       37.7051878 magnetization 

 Free energy of the ion-electron system (eV)
  ---------------------------------------------------
  alpha Z        PSCENC =       339.31929130
  Ewald energy   TEWEN  =     -9064.57824857
  -1/2 Hartree   DENC   =     -8244.16671542
  -exchange  EXHF       =       341.63213042
  -V(xc)+E(xc)   XCENC  =       374.57150863
  PAW double counting   =     16209.48788559   -16712.86282947
  entropy T*S    EENTRO =         0.00046389
  eigenvalues    EBANDS =     -1631.84861139
  atomic energy  EATOM  =     18320.98302006
  ---------------------------------------------------
  free energy    TOTEN  =       -67.46184695 eV

  energy without entropy =      -67.46231084  energy(sigma->0) =      -67.46200158


--------------------------------------------------------------------------------------------------------




----------------------------------------- Iteration    1(   8)  ---------------------------------------


    POTLOK:  cpu time    0.13: real time    0.13
    SETDIJ:  cpu time    2.85: real time    2.85
 
    SUBROT:  cpu time    0.84: real time    0.84
    SUBROT:  cpu time    0.37: real time    0.37
    SUBROT:  cpu time    0.38: real time    0.38
    SUBROT:  cpu time    0.38: real time    0.38
    --------------------------------------------
    SUBRT+:  cpu time    1.97: real time    1.98

 Broyden mixing:
  rms(total) = 0.84241E-02    rms(broyden)= 0.84216E-02
  rms(prec ) = 0.14091E-01
  weight for this iteration     100.00

 eigenvalues of (default mixing * dielectric matrix)
  average eigenvalue GAMMA=   1.6706
  2.4575  0.9473  1.6072
 
    TRIAL :  cpu time  252.40: real time  252.19
    CORREC:  cpu time    0.00: real time    0.00
    CHARGE:  cpu time    0.08: real time    0.08
    --------------------------------------------
      LOOP:  cpu time  255.46: real time  255.26

 eigenvalue-minimisations  :     0
 total energy-change (2. order) :-0.1620726E+01  (-0.7750696E+00)
 number of electron     112.0001458 magnetization 
 augmentation part       37.7244117 magnetization 

 Free energy of the ion-electron system (eV)
  ---------------------------------------------------
  alpha Z        PSCENC =       339.31929130
  Ewald energy   TEWEN  =     -9064.57824857
  -1/2 Hartree   DENC   =     -8116.83347395
  -exchange  EXHF       =       339.52361495
  -V(xc)+E(xc)   XCENC  =       371.38126820
  PAW double counting   =     15916.54653361   -16397.85929449
  entropy T*S    EENTRO =         0.00074769
  eigenvalues    EBANDS =     -1777.56574786
  atomic energy  EATOM  =     18320.98302006
  ---------------------------------------------------
  free energy    TOTEN  =       -69.08257286 eV

  energy without entropy =      -69.08332055  energy(sigma->0) =      -69.08282209


--------------------------------------------------------------------------------------------------------




----------------------------------------- Iteration    1(   9)  ---------------------------------------


    POTLOK:  cpu time    0.11: real time    0.11
    SETDIJ:  cpu time    2.59: real time    2.59
 
    SUBROT:  cpu time    1.43: real time    1.43
    SUBROT:  cpu time    0.73: real time    0.73
    SUBROT:  cpu time    0.41: real time    0.41
    SUBROT:  cpu time    0.37: real time    0.37
    --------------------------------------------
    SUBRT+:  cpu time    2.95: real time    2.95

 Broyden mixing:
  rms(total) = 0.50773E-03    rms(broyden)= 0.50712E-03
  rms(prec ) = 0.79784E-03
  weight for this iteration     100.00

 eigenvalues of (default mixing * dielectric matrix)
  average eigenvalue GAMMA=   1.7217
  2.5341  1.0040  1.6269
 
    TRIAL :  cpu time  252.56: real time  252.36
    CORREC:  cpu time    0.00: real time    0.00
    CHARGE:  cpu time    0.08: real time    0.08
    --------------------------------------------
      LOOP:  cpu time  255.34: real time  255.14

 eigenvalue-minimisations  :     0
 total energy-change (2. order) :-0.3114101E+00  (-0.3885496E+00)
 number of electron     112.0001464 magnetization 
 augmentation part       37.9060467 magnetization 

 Free energy of the ion-electron system (eV)
  ---------------------------------------------------
  alpha Z        PSCENC =       339.31929130
  Ewald energy   TEWEN  =     -9064.57824857
  -1/2 Hartree   DENC   =     -8124.46431351
  -exchange  EXHF       =       339.59627623
  -V(xc)+E(xc)   XCENC  =       371.44457416
  PAW double counting   =     15912.56833801   -16393.80522400
  entropy T*S    EENTRO =         0.00088794
  eigenvalues    EBANDS =     -1770.45844435
  atomic energy  EATOM  =     18320.98302006
  ---------------------------------------------------
  free energy    TOTEN  =       -69.39398298 eV

  energy without entropy =      -69.39487092  energy(sigma->0) =      -69.39427896


--------------------------------------------------------------------------------------------------------




----------------------------------------- Iteration    1(  10)  ---------------------------------------


    POTLOK:  cpu time    0.10: real time    0.10
    SETDIJ:  cpu time    2.05: real time    2.05
 
    SUBROT:  cpu time    2.07: real time    2.07
    SUBROT:  cpu time    1.00: real time    1.00
    SUBROT:  cpu time    1.03: real time    1.03
    SUBROT:  cpu time    1.08: real time    1.08
    --------------------------------------------
    SUBRT+:  cpu time    5.18: real time    5.18

 Broyden mixing:
  rms(total) = 0.22866E-02    rms(broyden)= 0.22861E-02
  rms(prec ) = 0.38603E-02
  weight for this iteration     100.00

 eigenvalues of (default mixing * dielectric matrix)
  average eigenvalue GAMMA=   1.6946
  2.4733  0.9899  1.6205
 
    TRIAL :  cpu time  253.10: real time  252.88
    CORREC:  cpu time    0.01: real time    0.01
    CHARGE:  cpu time    0.12: real time    0.13
    --------------------------------------------
      LOOP:  cpu time  255.40: real time  255.17

 eigenvalue-minimisations  :     0
 total energy-change (2. order) :-0.1043422E+00  (-0.1532994E+00)
 number of electron     112.0001462 magnetization 
 augmentation part       37.8185165 magnetization 

 Free energy of the ion-electron system (eV)
  ---------------------------------------------------
  alpha Z        PSCENC =       339.31929130
  Ewald energy   TEWEN  =     -9064.57824857
  -1/2 Hartree   DENC   =     -8171.92769995
  -exchange  EXHF       =       340.39983632
  -V(xc)+E(xc)   XCENC  =       372.54323734
  PAW double counting   =     15994.43379017   -16482.42654995
  entropy T*S    EENTRO =         0.00075462
  eigenvalues    EBANDS =     -1718.24588985
  atomic energy  EATOM  =     18320.98302006
  ---------------------------------------------------
  free energy    TOTEN  =       -69.49832519 eV

  energy without entropy =      -69.49907981  energy(sigma->0) =      -69.49857673


--------------------------------------------------------------------------------------------------------




----------------------------------------- Iteration    1(  11)  ---------------------------------------


    POTLOK:  cpu time    0.15: real time    0.15
    SETDIJ:  cpu time    3.89: real time    3.88
 
    SUBROT:  cpu time    1.46: real time    1.46
    SUBROT:  cpu time    0.70: real time    0.70
    SUBROT:  cpu time    0.74: real time    0.74
    SUBROT:  cpu time    0.65: real time    0.65
    --------------------------------------------
    SUBRT+:  cpu time    3.56: real time    3.57

 Broyden mixing:
  rms(total) = 0.78494E-03    rms(broyden)= 0.78470E-03
  rms(prec ) = 0.15689E-02
  weight for this iteration     100.00

 eigenvalues of (default mixing * dielectric matrix)
  average eigenvalue GAMMA=   1.6711
  2.4947  0.9844  1.5343
 
    TRIAL :  cpu time  257.81: real time  257.61
    CORREC:  cpu time    0.00: real time    0.00
    CHARGE:  cpu time    0.09: real time    0.09
    --------------------------------------------
      LOOP:  cpu time  261.94: real time  261.73

 eigenvalue-minimisations  :     0
 total energy-change (2. order) :-0.7004454E-01  (-0.3715192E-01)
 number of electron     112.0001461 magnetization 
 augmentation part       37.7855891 magnetization 

 Free energy of the ion-electron system (eV)
  ---------------------------------------------------
  alpha Z        PSCENC =       339.31929130
  Ewald energy   TEWEN  =     -9064.57824857
  -1/2 Hartree   DENC   =     -8150.47063780
  -exchange  EXHF       =       340.06931713
  -V(xc)+E(xc)   XCENC  =       372.06762916
  PAW double counting   =     15942.23017160   -16427.17343962
  entropy T*S    EENTRO =         0.00062722
  eigenvalues    EBANDS =     -1742.01622762
  atomic energy  EATOM  =     18320.98302006
  ---------------------------------------------------
  free energy    TOTEN  =       -69.56836973 eV

  energy without entropy =      -69.56899695  energy(sigma->0) =      -69.56857880


--------------------------------------------------------------------------------------------------------




----------------------------------------- Iteration    1(  12)  ---------------------------------------


    POTLOK:  cpu time    0.11: real time    0.11
    SETDIJ:  cpu time    2.72: real time    2.72
 
    SUBROT:  cpu time    1.46: real time    1.46
    SUBROT:  cpu time    0.71: real time    0.71
    SUBROT:  cpu time    0.43: real time    0.43
    SUBROT:  cpu time    0.37: real time    0.37
    --------------------------------------------
    SUBRT+:  cpu time    2.97: real time    2.99

 Broyden mixing:
  rms(total) = 0.20559E-03    rms(broyden)= 0.20550E-03
  rms(prec ) = 0.45102E-03
  weight for this iteration     100.00

 eigenvalues of (default mixing * dielectric matrix)
  average eigenvalue GAMMA=   1.6741
  2.5037  1.0002  1.5183
 
    TRIAL :  cpu time  252.34: real time  252.14
    CORREC:  cpu time    0.00: real time    0.00
    CHARGE:  cpu time    0.10: real time    0.10
    --------------------------------------------
      LOOP:  cpu time  255.28: real time  255.08

 eigenvalue-minimisations  :     0
 total energy-change (2. order) :-0.1245753E-01  (-0.2300132E-01)
 number of electron     112.0001462 magnetization 
 augmentation part       37.8260173 magnetization 

 Free energy of the ion-electron system (eV)
  ---------------------------------------------------
  alpha Z        PSCENC =       339.31929130
  Ewald energy   TEWEN  =     -9064.57824857
  -1/2 Hartree   DENC   =     -8142.06247911
  -exchange  EXHF       =       339.95279829
  -V(xc)+E(xc)   XCENC  =       371.89213837
  PAW double counting   =     15920.36037926   -16404.21547854
  entropy T*S    EENTRO =         0.00057249
  eigenvalues    EBANDS =     -1751.23287555
  atomic energy  EATOM  =     18320.98302006
  ---------------------------------------------------
  free energy    TOTEN  =       -69.58082726 eV

  energy without entropy =      -69.58139975  energy(sigma->0) =      -69.58101809


--------------------------------------------------------------------------------------------------------




----------------------------------------- Iteration    1(  13)  ---------------------------------------


    POTLOK:  cpu time    0.16: real time    0.16
    SETDIJ:  cpu time    2.58: real time    2.58
 
    SUBROT:  cpu time    0.79: real time    0.79
    SUBROT:  cpu time    0.39: real time    0.39
    SUBROT:  cpu time    0.41: real time    0.40
    SUBROT:  cpu time    0.41: real time    0.41
    --------------------------------------------
    SUBRT+:  cpu time    2.00: real time    2.02

 Broyden mixing:
  rms(total) = 0.55874E-03    rms(broyden)= 0.55863E-03
  rms(prec ) = 0.94864E-03
  weight for this iteration     100.00

 eigenvalues of (default mixing * dielectric matrix)
  average eigenvalue GAMMA=   1.6996
  2.4789  0.9966  1.6233
 
    TRIAL :  cpu time  250.07: real time  249.89
    CORREC:  cpu time    0.00: real time    0.00
    CHARGE:  cpu time    0.09: real time    0.09
    --------------------------------------------
      LOOP:  cpu time  252.91: real time  252.74

 eigenvalue-minimisations  :     0
 total energy-change (2. order) :-0.9721149E-02  (-0.5152951E-02)
 number of electron     112.0001462 magnetization 
 augmentation part       37.8299381 magnetization 

 Free energy of the ion-electron system (eV)
  ---------------------------------------------------
  alpha Z        PSCENC =       339.31929130
  Ewald energy   TEWEN  =     -9064.57824857
  -1/2 Hartree   DENC   =     -8151.98332375
  -exchange  EXHF       =       340.12594266
  -V(xc)+E(xc)   XCENC  =       372.12697242
  PAW double counting   =     15936.62938866   -16421.98145874
  entropy T*S    EENTRO =         0.00056162
  eigenvalues    EBANDS =     -1740.23270494
  atomic energy  EATOM  =     18320.98302006
  ---------------------------------------------------
  free energy    TOTEN  =       -69.59054841 eV

  energy without entropy =      -69.59111003  energy(sigma->0) =      -69.59073562


--------------------------------------------------------------------------------------------------------




----------------------------------------- Iteration    1(  14)  ---------------------------------------


    POTLOK:  cpu time    0.12: real time    0.12
    SETDIJ:  cpu time    3.13: real time    3.12
 
    SUBROT:  cpu time    0.82: real time    0.82
    SUBROT:  cpu time    0.39: real time    0.39
    SUBROT:  cpu time    0.39: real time    0.39
    SUBROT:  cpu time    0.40: real time    0.40
    --------------------------------------------
    SUBRT+:  cpu time    2.01: real time    2.01

 Broyden mixing:
  rms(total) = 0.69487E-04    rms(broyden)= 0.69474E-04
  rms(prec ) = 0.14173E-03
  weight for this iteration     100.00

 eigenvalues of (default mixing * dielectric matrix)
  average eigenvalue GAMMA=   1.7046
  2.5109  0.9923  1.6106
 
    TRIAL :  cpu time  250.99: real time  250.76
    CORREC:  cpu time    0.00: real time    0.00
    CHARGE:  cpu time    0.09: real time    0.09
    --------------------------------------------
      LOOP:  cpu time  254.32: real time  254.11

 eigenvalue-minimisations  :     0
 total energy-change (2. order) :-0.2473025E-02  (-0.3804679E-02)
 number of electron     112.0001462 magnetization 
 augmentation part       37.8123385 magnetization 

 Free energy of the ion-electron system (eV)
  ---------------------------------------------------
  alpha Z        PSCENC =       339.31929130
  Ewald energy   TEWEN  =     -9064.57824857
  -1/2 Hartree   DENC   =     -8152.52054505
  -exchange  EXHF       =       340.12423296
  -V(xc)+E(xc)   XCENC  =       372.13655236
  PAW double counting   =     15934.56459995   -16420.08024405
  entropy T*S    EENTRO =         0.00058134
  eigenvalues    EBANDS =     -1739.54224203
  atomic energy  EATOM  =     18320.98302006
  ---------------------------------------------------
  free energy    TOTEN  =       -69.59302143 eV

  energy without entropy =      -69.59360278  energy(sigma->0) =      -69.59321521


--------------------------------------------------------------------------------------------------------




----------------------------------------- Iteration    1(  15)  ---------------------------------------


    POTLOK:  cpu time    0.17: real time    0.17
    SETDIJ:  cpu time    2.49: real time    2.49
 
    SUBROT:  cpu time    1.22: real time    1.22
    SUBROT:  cpu time    0.39: real time    0.39
    SUBROT:  cpu time    0.40: real time    0.40
    SUBROT:  cpu time    0.40: real time    0.40
    --------------------------------------------
    SUBRT+:  cpu time    2.40: real time    2.43

 Broyden mixing:
  rms(total) = 0.19424E-03    rms(broyden)= 0.19418E-03
  rms(prec ) = 0.33237E-03
  weight for this iteration     100.00

 eigenvalues of (default mixing * dielectric matrix)
  average eigenvalue GAMMA=   1.6987
  2.4698  0.9901  1.6361
 
    TRIAL :  cpu time  250.52: real time  250.35
    CORREC:  cpu time    0.00: real time    0.00
    CHARGE:  cpu time    0.08: real time    0.08
    --------------------------------------------
      LOOP:  cpu time  253.26: real time  253.09

 eigenvalue-minimisations  :     0
 total energy-change (2. order) :-0.1514811E-02  (-0.1043766E-02)
 number of electron     112.0001462 magnetization 
 augmentation part       37.8166853 magnetization 

 Free energy of the ion-electron system (eV)
  ---------------------------------------------------
  alpha Z        PSCENC =       339.31929130
  Ewald energy   TEWEN  =     -9064.57824857
  -1/2 Hartree   DENC   =     -8147.79637647
  -exchange  EXHF       =       340.03484589
  -V(xc)+E(xc)   XCENC  =       372.02494067
  PAW double counting   =     15922.45243075   -16407.35419320
  entropy T*S    EENTRO =         0.00059533
  eigenvalues    EBANDS =     -1744.68082801
  atomic energy  EATOM  =     18320.98302006
  ---------------------------------------------------
  free energy    TOTEN  =       -69.59453625 eV

  energy without entropy =      -69.59513158  energy(sigma->0) =      -69.59473469


--------------------------------------------------------------------------------------------------------




----------------------------------------- Iteration    1(  16)  ---------------------------------------


    POTLOK:  cpu time    0.16: real time    0.16
    SETDIJ:  cpu time    3.21: real time    3.21
 
    SUBROT:  cpu time    1.69: real time    1.69
    SUBROT:  cpu time    0.82: real time    0.82
    SUBROT:  cpu time    0.49: real time    0.49
    SUBROT:  cpu time    0.39: real time    0.39
    --------------------------------------------
    SUBRT+:  cpu time    3.39: real time    3.41

 Broyden mixing:
  rms(total) = 0.83357E-04    rms(broyden)= 0.83339E-04
  rms(prec ) = 0.13962E-03
  weight for this iteration     100.00

 eigenvalues of (default mixing * dielectric matrix)
  average eigenvalue GAMMA=   1.6859
  2.4866  0.9895  1.5815
 
    TRIAL :  cpu time  252.30: real time  252.10
    CORREC:  cpu time    0.00: real time    0.00
    CHARGE:  cpu time    0.16: real time    0.16
    --------------------------------------------
      LOOP:  cpu time  255.83: real time  255.63

 eigenvalue-minimisations  :     0
 total energy-change (2. order) :-0.5742847E-03  (-0.4119906E-03)
 number of electron     112.0001462 magnetization 
 augmentation part       37.8215183 magnetization 

 Free energy of the ion-electron system (eV)
  ---------------------------------------------------
  alpha Z        PSCENC =       339.31929130
  Ewald energy   TEWEN  =     -9064.57824857
  -1/2 Hartree   DENC   =     -8148.92240215
  -exchange  EXHF       =       340.05351555
  -V(xc)+E(xc)   XCENC  =       372.05223792
  PAW double counting   =     15923.30626653   -16408.39681390
  entropy T*S    EENTRO =         0.00059612
  eigenvalues    EBANDS =     -1743.41257260
  atomic energy  EATOM  =     18320.98302006
  ---------------------------------------------------
  free energy    TOTEN  =       -69.59511053 eV

[...]
     22      -2.2880      2.00000
     23      -1.9530      2.00000
     24      -1.6190      2.00000
     25      -1.2166      2.00000
     26      -1.0041      2.00000
     27      -0.9765      2.00000
     28      -0.7140      2.00000
     29      -0.5523      2.00000
     30      -0.3893      2.00000
     31      -0.2849      2.00000
     32      -0.1986      2.00000
     33      -0.1850      2.00000
     34      -0.1398      2.00000
     35      -0.0158      2.00000
     36       0.0180      2.00000
     37       1.2960      2.00000
     38       1.3082      2.00000
     39       1.3681      2.00000
     40       1.4113      2.00000
     41       1.4513      2.00000
     42       1.4663      2.00000
     43       1.5068      2.00000
     44       1.5493      2.00000
     45       1.7636      2.00000
     46       1.8940      2.00000
     47       1.9825      2.00000
     48       2.1517      2.00000
     49       2.3689      2.00000
     50       2.5769      2.00000
     51       2.7051      2.00000
     52       2.9121      2.00000
     53       3.0114      2.00000
     54       3.2205      2.00000
     55       3.4000      2.00000
     56       3.6560      2.00000
     57       6.3775     -0.00000
     58       6.5204     -0.00000
     59       7.7195      0.00000
     60       7.9004      0.00000
     61       8.2983      0.00000
     62       8.5755      0.00000
     63       9.3239      0.00000
     64       9.8444      0.00000
     65      10.0205      0.00000
     66      10.3530      0.00000
     67      10.5853      0.00000
     68      10.7870      0.00000
     69      10.9793      0.00000
     70      11.2554      0.00000
     71      11.3084      0.00000
     72      11.7053      0.00000
     73      12.2504      0.00000
     74      12.4609      0.00000
     75      13.0964      0.00000
     76      13.4834      0.00000
     77      13.8204      0.00000
     78      14.6909      0.00000
     79      15.0006      0.00000
     80      15.7149      0.00000

 k-point  40 :       0.2500   -0.2500    0.4000
  band No.  band energies     occupation 
      1     -68.6462      2.00000
      2     -68.6446      2.00000
      3     -68.6343      2.00000
      4     -68.6327      2.00000
      5     -68.6142      2.00000
      6     -68.6127      2.00000
      7     -68.5970      2.00000
      8     -68.5954      2.00000
      9     -68.5769      2.00000
     10     -68.5760      2.00000
     11     -68.5634      2.00000
     12     -68.5599      2.00000
     13     -12.2202      2.00000
     14     -11.8194      2.00000
     15     -10.8221      2.00000
     16     -10.6708      2.00000
     17     -10.3505      2.00000
     18     -10.2760      2.00000
     19      -5.4469      2.00000
     20      -5.1163      2.00000
     21      -2.4300      2.00000
     22      -2.1540      2.00000
     23      -2.0170      2.00000
     24      -1.5228      2.00000
     25      -1.3576      2.00000
     26      -1.1666      2.00000
     27      -0.9364      2.00000
     28      -0.8140      2.00000
     29      -0.5840      2.00000
     30      -0.5333      2.00000
     31      -0.2801      2.00000
     32      -0.2409      2.00000
     33      -0.1363      2.00000
     34      -0.0934      2.00000
     35      -0.0219      2.00000
     36       0.0344      2.00000
     37       1.3129      2.00000
     38       1.3451      2.00000
     39       1.3637      2.00000
     40       1.3963      2.00000
     41       1.4515      2.00000
     42       1.4824      2.00000
     43       1.4993      2.00000
     44       1.5657      2.00000
     45       1.8015      2.00000
     46       1.8464      2.00000
     47       1.9608      2.00000
     48       2.1085      2.00000
     49       2.2965      2.00000
     50       2.5309      2.00000
     51       2.6415      2.00000
     52       2.7695      2.00000
     53       2.9277      2.00000
     54       3.1601      2.00000
     55       3.3043      2.00000
     56       3.5748      2.00000
     57       6.5611     -0.00000
     58       6.7177     -0.00000
     59       7.9646      0.00000
     60       8.0017      0.00000
     61       8.7301      0.00000
     62       9.0932      0.00000
     63       9.4559      0.00000
     64       9.8266      0.00000
     65      10.2975      0.00000
     66      10.3702      0.00000
     67      10.7793      0.00000
     68      10.8494      0.00000
     69      11.1140      0.00000
     70      11.2714      0.00000
     71      11.3716      0.00000
     72      11.6188      0.00000
     73      12.0473      0.00000
     74      12.2941      0.00000
     75      12.6503      0.00000
     76      13.1243      0.00000
     77      13.2841      0.00000
     78      14.2411      0.00000
     79      15.6271      0.00000
     80      15.8271      0.00000

 k-point  41 :       0.5000   -0.2500    0.4000
  band No.  band energies     occupation 
      1     -68.6461      2.00000
      2     -68.6445      2.00000
      3     -68.6341      2.00000
      4     -68.6326      2.00000
      5     -68.6141      2.00000
      6     -68.6128      2.00000
      7     -68.5968      2.00000
      8     -68.5953      2.00000
      9     -68.5769      2.00000
     10     -68.5760      2.00000
     11     -68.5634      2.00000
     12     -68.5598      2.00000
     13     -12.0797      2.00000
     14     -11.7768      2.00000
     15     -10.8484      2.00000
     16     -10.7566      2.00000
     17     -10.5323      2.00000
     18     -10.3167      2.00000
     19      -5.4194      2.00000
     20      -4.9404      2.00000
     21      -2.4010      2.00000
     22      -2.1296      2.00000
     23      -1.8645      2.00000
     24      -1.7223      2.00000
     25      -1.4474      2.00000
     26      -1.1214      2.00000
     27      -0.8868      2.00000
     28      -0.6475      2.00000
     29      -0.5975      2.00000
     30      -0.4498      2.00000
     31      -0.2632      2.00000
     32      -0.1867      2.00000
     33      -0.1224      2.00000
     34      -0.0531      2.00000
     35      -0.0199      2.00000
     36       0.0247      2.00000
     37       1.2623      2.00000
     38       1.3156      2.00000
     39       1.4095      2.00000
     40       1.4378      2.00000
     41       1.4845      2.00000
     42       1.4923      2.00000
     43       1.5157      2.00000
     44       1.5747      2.00000
     45       1.7605      2.00000
     46       1.8412      2.00000
     47       2.1179      2.00000
     48       2.1877      2.00000
     49       2.3668      2.00000
     50       2.4614      2.00000
     51       2.4920      2.00000
     52       2.6957      2.00000
     53       2.8229      2.00000
     54       3.0845      2.00000
     55       3.2907      2.00000
     56       3.5246      2.00000
     57       6.4968     -0.00000
     58       6.5839     -0.00000
     59       7.4537      0.00000
     60       7.7199      0.00000
     61       8.5889      0.00000
     62       8.7443      0.00000
     63       9.3002      0.00000
     64       9.5321      0.00000
     65       9.9514      0.00000
     66      10.1855      0.00000
     67      10.6802      0.00000
     68      11.1153      0.00000
     69      11.2489      0.00000
     70      11.5676      0.00000
     71      11.7055      0.00000
     72      11.8932      0.00000
     73      12.3004      0.00000
     74      12.6574      0.00000
     75      13.0101      0.00000
     76      13.2296      0.00000
     77      13.6679      0.00000
     78      14.0636      0.00000
     79      14.3938      0.00000
     80      16.5186      0.00000

 k-point  42 :      -0.2500   -0.2500    0.4000
  band No.  band energies     occupation 
      1     -68.6463      2.00000
      2     -68.6447      2.00000
      3     -68.6340      2.00000
      4     -68.6326      2.00000
      5     -68.6141      2.00000
      6     -68.6129      2.00000
      7     -68.5969      2.00000
      8     -68.5952      2.00000
      9     -68.5769      2.00000
     10     -68.5760      2.00000
     11     -68.5635      2.00000
     12     -68.5600      2.00000
     13     -12.1791      2.00000
     14     -11.7062      2.00000
     15     -10.7174      2.00000
     16     -10.6937      2.00000
     17     -10.5858      2.00000
     18     -10.3919      2.00000
     19      -5.4462      2.00000
     20      -5.0722      2.00000
     21      -2.5083      2.00000
     22      -2.3793      2.00000
     23      -1.9645      2.00000
     24      -1.3684      2.00000
     25      -1.3309      2.00000
     26      -1.0547      2.00000
     27      -0.8316      2.00000
     28      -0.7684      2.00000
     29      -0.4201      2.00000
     30      -0.3392      2.00000
     31      -0.2706      2.00000
     32      -0.2093      2.00000
     33      -0.1443      2.00000
     34      -0.1382      2.00000
     35      -0.0128      2.00000
     36       0.0291      2.00000
     37       1.1733      2.00000
     38       1.3712      2.00000
     39       1.3970      2.00000
     40       1.4534      2.00000
     41       1.4541      2.00000
     42       1.4987      2.00000
     43       1.5170      2.00000
     44       1.5493      2.00000
     45       1.7436      2.00000
     46       1.8205      2.00000
     47       1.9744      2.00000
     48       2.2272      2.00000
     49       2.3969      2.00000
     50       2.6119      2.00000
     51       2.6561      2.00000
     52       2.9136      2.00000
     53       3.0696      2.00000
     54       3.1174      2.00000
     55       3.2861      2.00000
     56       3.5810      2.00000
     57       6.2917     -0.00000
     58       6.3804     -0.00000
     59       7.3568      0.00000
     60       7.5254      0.00000
     61       8.3085      0.00000
     62       8.3349      0.00000
     63       9.1054      0.00000
     64       9.3590      0.00000
     65       9.7169      0.00000
     66       9.9468      0.00000
     67      10.5242      0.00000
     68      10.9906      0.00000
     69      11.4255      0.00000
     70      11.5629      0.00000
     71      12.0195      0.00000
     72      12.2850      0.00000
     73      12.4299      0.00000
     74      12.4730      0.00000
     75      13.0343      0.00000
     76      13.1483      0.00000
     77      14.1371      0.00000
     78      14.4399      0.00000
     79      15.1648      0.00000
     80      15.8633      0.00000


--------------------------------------------------------------------------------------------------------


 soft charge-density along one line, spin component           1
         0         1         2         3         4         5         6         7         8         9
 total charge-density along one line
 
 pseudopotential strength for first ion, spin component:           1
-65.424   0.002   0.006   7.363   0.000  -0.003   0.001   0.007
  0.002 -65.394  -0.005   0.000   7.353   0.001  -0.001  -0.024
  0.006  -0.005 -65.384  -0.003   0.001   7.350  -0.037  -0.001
  7.363   0.000  -0.003   6.110   0.000   0.001   0.002  -0.004
  0.000   7.353   0.001   0.000   6.113  -0.000   0.000   0.007
 -0.003   0.001   7.350   0.001  -0.000   6.114   0.008   0.000
  0.001  -0.001  -0.037   0.002   0.000   0.008  -2.980  -0.003
  0.007  -0.024  -0.001  -0.004   0.007   0.000  -0.003  -2.985
  0.022   0.043   0.009  -0.005  -0.008  -0.003  -0.003   0.008
 -0.001  -0.017   0.007   0.000   0.005  -0.004   0.004   0.007
  0.025   0.000  -0.034  -0.007  -0.000   0.007  -0.000   0.007
  0.001  -0.001  -0.036   0.002   0.000   0.008  -3.626  -0.003
  0.007  -0.023  -0.001  -0.004   0.007   0.000  -0.003  -3.631
  0.022   0.042   0.009  -0.005  -0.008  -0.002  -0.003   0.008
 -0.001  -0.017   0.007   0.000   0.004  -0.004   0.004   0.007
  0.025   0.000  -0.034  -0.007  -0.000   0.006  -0.000   0.007
  0.007  -0.005   0.004  -0.001   0.001  -0.001  -0.002   0.000
  0.015  -0.010   0.009  -0.002   0.001  -0.002  -0.003   0.001
 total augmentation occupancy for first ion, spin component:           1
  2.000  -0.000   0.000  -0.003  -0.000   0.000   0.007  -0.005   0.001  -0.001  -0.005  -0.007   0.005  -0.001   0.001   0.004
 -0.000   2.000  -0.000  -0.000  -0.003   0.000  -0.001   0.005   0.004   0.001   0.000   0.001  -0.005  -0.005  -0.001  -0.000
  0.000  -0.000   2.000   0.000   0.000  -0.003  -0.000  -0.000  -0.001  -0.005  -0.004   0.001   0.000   0.001   0.005   0.005
 -0.003  -0.000   0.000   0.095   0.006  -0.005  -0.334   0.233  -0.074   0.011   0.017   0.281  -0.197   0.058  -0.007  -0.011
 -0.000  -0.003   0.000   0.006   0.102   0.001   0.020  -0.048  -0.445   0.015   0.011  -0.013   0.037   0.377  -0.011  -0.009
  0.000   0.000  -0.003  -0.005   0.001   0.099   0.097  -0.002  -0.014   0.236   0.354  -0.077   0.001   0.011  -0.202  -0.297
  0.007  -0.001  -0.000  -0.334   0.020   0.097   4.008  -0.793   0.097   0.216   0.147  -1.736   0.744  -0.089  -0.182  -0.142
 -0.005   0.005  -0.000   0.233  -0.048  -0.002  -0.793   3.511   0.292   0.158   0.297   0.744  -1.270  -0.215  -0.114  -0.206
  0.001   0.004  -0.001  -0.074  -0.445  -0.014   0.097   0.292   4.691  -0.041  -0.116  -0.089  -0.215  -2.399   0.035   0.086
 -0.001   0.001  -0.005   0.011   0.015   0.236   0.216   0.158  -0.041   3.635   0.798  -0.182  -0.114   0.035  -1.353  -0.760
 -0.005   0.000  -0.004   0.017   0.011   0.354   0.147   0.297  -0.116   0.798   3.995  -0.142  -0.206   0.086  -0.760  -1.741
 -0.007   0.001   0.001   0.281  -0.013  -0.077  -1.736   0.744  -0.089  -0.182  -0.142   1.442  -0.696   0.082   0.154   0.136
  0.005  -0.005   0.000  -0.197   0.037   0.001   0.744  -1.270  -0.215  -0.114  -0.206  -0.696   1.006   0.154   0.079   0.132
 -0.001  -0.005   0.001   0.058   0.377   0.011  -0.089  -0.215  -2.399   0.035   0.086   0.082   0.154   2.083  -0.029  -0.062
  0.001  -0.001   0.005  -0.007  -0.011  -0.202  -0.182  -0.114   0.035  -1.353  -0.760   0.154   0.079  -0.029   1.059   0.721
  0.004  -0.000   0.005  -0.011  -0.009  -0.297  -0.142  -0.206   0.086  -0.760  -1.741   0.136   0.132  -0.062   0.721   1.461
 -0.024   0.016  -0.013  -0.020   0.011  -0.006   0.080  -0.100  -0.023  -0.006   0.026  -0.063   0.088   0.035   0.006   0.005
  0.012  -0.008   0.006   0.001  -0.000  -0.000  -0.008   0.003  -0.004   0.004  -0.019   0.004  -0.005  -0.002  -0.001   0.003


------------------------ aborting loop because EDIFF is reached ----------------------------------------


    FORLOC:  cpu time    0.00: real time    0.00
    FORHF :  cpu time  608.20: real time  607.64
    FORNL :  cpu time    0.39: real time    0.39
    FORCOR:  cpu time    2.14: real time    2.14

 VOLUME and BASIS-vectors are now :
 -----------------------------------------------------------------------------
  energy-cutoff  :      400.00
  volume of cell :      221.90
      direct lattice vectors                 reciprocal lattice vectors
     3.224796000 -5.643830000  0.031572000     0.154525165 -0.088592321  0.053460880
     3.224796000  5.643830000  0.031572000     0.154525165  0.088592321  0.053460880
    -2.101946000  0.000000000  6.075537000    -0.001606004  0.000000000  0.164038877

  length of vectors
     6.500240234  6.500240234  6.428866683     0.185969598  0.185969598  0.164046738


 FORCES acting on ions:
    Electron-Ion                     Ewald-Force                    Non-Local-Force
 -----------------------------------------------------------------------------------------------
   -.150E+02 -.972E+02 0.103E+02   0.138E+02 0.948E+02 -.873E+01   0.103E+01 0.210E+01 -.142E+01
   -.150E+02 0.973E+02 0.138E+02   0.138E+02 -.949E+02 -.122E+02   0.102E+01 -.211E+01 -.140E+01
   0.274E+02 -.170E+02 -.641E+00   -.242E+02 0.168E+02 0.185E+01   -.288E+01 0.163E+00 -.981E+00
   0.249E+02 0.169E+02 0.658E+01   -.216E+02 -.167E+02 -.532E+01   -.285E+01 -.152E+00 -.110E+01
   -.108E+02 -.315E+02 -.108E+02   0.101E+02 0.302E+02 0.966E+01   0.683E+00 0.134E+01 0.113E+01
   -.111E+02 0.315E+02 -.114E+02   0.104E+02 -.302E+02 0.103E+02   0.683E+00 -.134E+01 0.113E+01
   -.135E+03 -.986E+01 -.465E+02   0.132E+03 0.990E+01 0.457E+02   0.278E+01 -.284E-01 0.745E+00
   0.705E+02 -.126E+03 0.954E+02   -.688E+02 0.123E+03 -.933E+02   -.156E+01 0.230E+01 -.188E+01
   0.666E+02 -.133E+03 -.494E+02   -.651E+02 0.130E+03 0.484E+02   -.135E+01 0.218E+01 0.877E+00
   0.702E+02 0.126E+03 0.965E+02   -.685E+02 -.123E+03 -.944E+02   -.156E+01 -.230E+01 -.187E+01
   -.136E+03 0.863E+01 -.497E+02   0.133E+03 -.864E+01 0.488E+02   0.278E+01 0.217E-01 0.729E+00
   0.662E+02 0.134E+03 -.502E+02   -.647E+02 -.131E+03 0.493E+02   -.136E+01 -.217E+01 0.873E+00
 -----------------------------------------------------------------------------------------------
   0.283E+01 0.274E-02 0.363E+01   0.000E+00 0.000E+00 -.568E-13   -.258E+01 -.231E-02 -.316E+01
 
 
 POSITION                                       TOTAL-FORCE (eV/Angst)
 -----------------------------------------------------------------------------------
      2.13385     -2.80652      0.74958        -0.001432     -0.000850     -0.000271
      1.08288      2.80652      3.78735        -0.001399      0.002016     -0.003277
      5.40750     -0.97432      0.76776        -0.017751      0.000391      0.058279
      4.35326      0.97432      3.81498         0.004240     -0.001046     -0.002445
      1.02081     -0.97328      3.66185        -0.007027      0.006840     -0.002410
      2.07178      0.97328      0.62409         0.001815     -0.009030      0.002422
      2.15090      4.69667      3.05304         0.009555      0.000986     -0.030343
      1.11215     -0.89759      5.98620         0.000336     -0.007367     -0.002922
      2.14287     -2.74882      3.03886        -0.001120      0.002291     -0.002212
      2.16313      0.89759      2.94844         0.000346      0.007113     -0.000380
      1.09993     -4.69667      6.09081         0.005612      0.010626     -0.008212
      1.09189      2.74882      6.07662         0.006825     -0.011970     -0.008230
 -----------------------------------------------------------------------------------
    total drift:                               -0.065907     -0.000106     -0.033794


--------------------------------------------------------------------------------------------------------



  FREE ENERGIE OF THE ION-ELECTRON SYSTEM (eV)
  ---------------------------------------------------
  free  energy   TOTEN  =       -69.59545899 eV

  energy  without entropy=      -69.59604814  energy(sigma->0) =      -69.59565537
 


--------------------------------------------------------------------------------------------------------


    POTLOK:  cpu time    2.19: real time    2.19


--------------------------------------------------------------------------------------------------------


 writing wavefunctions
     LOOP+:  cpu time 5988.12: real time 5987.35
    4ORBIT:  cpu time    0.00: real time    0.00

 total amount of memory used by VASP on root node   155701. kBytes
========================================================================

   base      :      30000. kBytes
   nonl-proj :      74517. kBytes
   fftplans  :        702. kBytes
   grid      :       2400. kBytes
   one-center:        186. kBytes
   HF        :        194. kBytes
   nonlr-proj:       5126. kBytes
   wavefun   :      42576. kBytes
 
  
  
 General timing and accounting informations for this job:
 ========================================================
  
                  Total CPU time used (sec):     6026.389
                            User time (sec):     6021.101
                          System time (sec):        5.288
                         Elapsed time (sec):     6032.853
  
                   Maximum memory used (kb):      295980.
                   Average memory used (kb):           0.
  
                          Minor page faults:        78229
                          Major page faults:            2
                 Voluntary context switches:         4349
