   12   12    1    1
  0.1849176E+02  0.6500240E-09  0.6500240E-09  0.6428867E-09  0.5000000E-15
  1.000000000000000E-004
  CAR 
 CGS                                     
  112   42   80
 
  0.0000000E+00  0.0000000E+00  0.0000000E+00  0.1250000E-01
   1      -68.645791
   2      -68.641536
   3      -68.640711
   4      -68.632867
   5      -68.613928
   6      -68.609473
   7      -68.596476
   8      -68.592277
   9      -68.585683
  10      -68.576654
  11      -68.569884
  12      -68.560077
  13      -12.719255
  14      -11.126967
  15      -10.915727
  16      -10.601652
  17      -10.251669
  18      -10.232874
  19       -5.985921
  20       -4.982461
  21       -2.760167
  22       -2.207991
  23       -2.070921
  24       -1.918565
  25       -1.577788
  26       -0.983624
  27       -0.956472
  28       -0.681509
  29       -0.398610
  30       -0.277350
  31       -0.261750
  32       -0.238915
  33       -0.190938
  34       -0.156423
  35       -0.041057
  36        0.032978
  37        1.349281
  38        1.362165
  39        1.412796
  40        1.455185
  41        1.470667
  42        1.472027
  43        1.519865
  44        1.531780
  45        1.574400
  46        1.709728
  47        1.893766
  48        1.928962
  49        2.057892
  50        2.648493
  51        2.731246
  52        3.091304
  53        3.217798
  54        4.007769
  55        4.037809
  56        4.174801
  57        5.534819
  58        6.353673
  59        7.630974
  60        7.985501
  61        8.615763
  62        8.790414
  63        9.571151
  64        9.736935
  65        9.812781
  66       10.418854
  67       10.586080
  68       10.693021
  69       10.712238
  70       11.283774
  71       11.708349
  72       12.393287
  73       12.455958
  74       12.727232
  75       13.327853
  76       13.381513
  77       13.835182
  78       13.884318
  79       14.141218
  80       14.177879
 
  0.2500000E+00  0.7372575E-17  0.1387779E-16  0.2500000E-01
   1      -68.645767
   2      -68.641497
   3      -68.640665
   4      -68.632841
   5      -68.613821
   6      -68.609363
   7      -68.596478
   8      -68.592306
   9      -68.585633
  10      -68.576587
  11      -68.569843
  12      -68.560042
  13      -12.594060
  14      -11.125071
  15      -10.982317
  16      -10.672715
  17      -10.366458
  18      -10.277094
  19       -5.934190
  20       -4.771920
  21       -2.645429
  22       -2.250058
  23       -2.087166
  24       -1.687873
  25       -1.344590
  26       -0.998974
  27       -0.769585
  28       -0.619735
  29       -0.553954
  30       -0.440341
  31       -0.362449
  32       -0.242751
  33       -0.191944
  34       -0.170919
  35       -0.048985
  36        0.039578
  37        1.278219
  38        1.332696
  39        1.353243
  40        1.392583
  41        1.426477
  42        1.471462
  43        1.496357
  44        1.530308
  45        1.722886
  46        1.860130
  47        2.056285
  48        2.093256
  49        2.230855
  50        2.413726
  51        2.556257
  52        2.825281
  53        2.947656
  54        3.242951
  55        3.663730
  56        4.042329
  57        6.169560
  58        6.902721
  59        8.138395
  60        8.268524
  61        8.589315
  62        9.005828
  63        9.241593
  64        9.532863
  65        9.863821
  66       10.373265
  67       10.634805
  68       10.816932
  69       10.942157
  70       11.188843
  71       11.657555
  72       11.768631
  73       12.119642
  74       12.444811
  75       12.618651
  76       13.006391
  77       13.507301
  78       13.874219
  79       14.216762
  80       14.709106
 
  0.5000000E+00  0.1474515E-16  0.2775558E-16  0.1250000E-01
   1      -68.645598
   2      -68.641441
   3      -68.640535
   4      -68.632754
   5      -68.613807
   6      -68.609306
   7      -68.596411
   8      -68.592223
   9      -68.585628
  10      -68.576532
  11      -68.569670
  12      -68.559926
  13      -12.434300
  14      -11.249447
  15      -10.955584
  16      -10.758060
  17      -10.428324
  18      -10.358243
  19       -5.871720
  20       -4.546714
  21       -2.492714
  22       -2.245520
  23       -1.946068
  24       -1.462635
  25       -1.225281
  26       -1.098764
  27       -0.901744
  28       -0.864562
  29       -0.598778
  30       -0.533507
  31       -0.272573
  32       -0.214185
  33       -0.203264
  34       -0.144107
  35       -0.032365
  36        0.081255
  37        1.251995
  38        1.325269
  39        1.347864
  40        1.396036
  41        1.471778
  42        1.475452
  43        1.498966
  44        1.553776
  45        1.750998
  46        1.791335
  47        1.965028
  48        2.146901
  49        2.318934
  50        2.361531
  51        2.554053
  52        2.670785
  53        2.938169
  54        3.077752
  55        3.255104
  56        3.864194
  57        6.384254
  58        7.093907
  59        7.971613
  60        8.205565
  61        8.519588
  62        8.819525
  63        9.327138
  64        9.892203
  65       10.007305
  66       10.517433
  67       10.692215
  68       10.791577
  69       11.142141
  70       11.410184
  71       11.606256
  72       11.777966
  73       11.946993
  74       12.506762
  75       12.780289
  76       13.004532
  77       13.390510
  78       13.542192
  79       13.934791
  80       14.269746
 
  0.7372575E-17  0.2500000E+00  0.1387779E-16  0.2500000E-01
   1      -68.645745
   2      -68.641510
   3      -68.640684
   4      -68.632826
   5      -68.613817
   6      -68.609368
   7      -68.596504
   8      -68.592281
   9      -68.585611
  10      -68.576601
  11      -68.569852
  12      -68.560043
  13      -12.594473
  14      -11.122417
  15      -10.982392
  16      -10.676034
  17      -10.366621
  18      -10.275527
  19       -5.934137
  20       -4.773571
  21       -2.645132
  22       -2.250574
  23       -2.086895
  24       -1.688248
  25       -1.344066
  26       -0.997786
  27       -0.768718
  28       -0.622471
  29       -0.551434
  30       -0.438685
  31       -0.361994
  32       -0.242101
  33       -0.193503
  34       -0.174293
  35       -0.047024
  36        0.039600
  37        1.278823
  38        1.334769
  39        1.353307
  40        1.390457
  41        1.427435
  42        1.471331
  43        1.498029
  44        1.528089
  45        1.723797
  46        1.857887
  47        2.055702
  48        2.096382
  49        2.231349
  50        2.413652
  51        2.555671
  52        2.824214
  53        2.947036
  54        3.243271
  55        3.664363
  56        4.042207
  57        6.167837
  58        6.901585
  59        8.134323
  60        8.267015
  61        8.594386
  62        9.014048
  63        9.242710
  64        9.523228
  65        9.867015
  66       10.373987
  67       10.632977
  68       10.813876
  69       10.940250
  70       11.191242
  71       11.655881
  72       11.771568
  73       12.118271
  74       12.443119
  75       12.617478
  76       13.008159
  77       13.517535
  78       13.904318
  79       14.269067
  80       14.826889
 
  0.2500000E+00  0.2500000E+00  0.0000000E+00  0.2500000E-01
   1      -68.645768
   2      -68.641384
   3      -68.640702
   4      -68.632725
   5      -68.613954
   6      -68.609498
   7      -68.596381
   8      -68.592182
   9      -68.585742
  10      -68.576718
  11      -68.569870
  12      -68.560059
  13      -12.438743
  14      -11.187377
  15      -10.942544
  16      -10.876151
  17      -10.388492
  18      -10.351384
  19       -5.876939
  20       -4.521839
  21       -2.417748
  22       -2.243925
  23       -1.793233
  24       -1.679023
  25       -1.355153
  26       -1.297074
  27       -1.079542
  28       -0.682218
  29       -0.525801
  30       -0.296033
  31       -0.282529
  32       -0.225283
  33       -0.191181
  34       -0.128221
  35       -0.093623
  36        0.080408
  37        1.292428
  38        1.310059
  39        1.415066
  40        1.425997
  41        1.463224
  42        1.481393
  43        1.492872
  44        1.568330
  45        1.670280
  46        1.880375
  47        1.938879
  48        2.134170
  49        2.279585
  50        2.319658
  51        2.560251
  52        2.650645
  53        2.901301
  54        2.945905
  55        3.700843
  56        3.834857
  57        6.169458
  58        6.988293
  59        8.003580
  60        8.319815
  61        8.433247
  62        8.570238
  63        9.145961
  64        9.245802
  65       10.361651
  66       10.492564
  67       10.918192
  68       11.186199
  69       11.331644
  70       11.557239
  71       11.818389
  72       11.962794
  73       12.318868
  74       12.504170
  75       12.714013
  76       12.908400
  77       13.339119
  78       13.448716
  79       14.256737
  80       14.366284
 
  0.5000000E+00  0.2500000E+00 -0.2775558E-16  0.2500000E-01
   1      -68.645502
   2      -68.641374
   3      -68.640612
   4      -68.632801
   5      -68.613725
   6      -68.609268
   7      -68.596429
   8      -68.592207
   9      -68.585591
  10      -68.576492
  11      -68.569718
  12      -68.559926
  13      -12.438989
  14      -11.351819
  15      -10.937233
  16      -10.734131
  17      -10.390294
  18      -10.270370
  19       -5.948283
  20       -4.642171
  21       -2.391556
  22       -2.225502
  23       -2.056913
  24       -1.638587
  25       -1.361946
  26       -1.281728
  27       -1.020046
  28       -0.511602
  29       -0.489602
  30       -0.327893
  31       -0.283876
  32       -0.216004
  33       -0.151892
  34       -0.133174
  35       -0.011772
  36        0.111311
  37        1.245534
  38        1.314544
  39        1.380885
  40        1.435593
  41        1.460812
  42        1.490557
  43        1.495705
  44        1.549418
  45        1.749399
  46        1.826755
  47        1.921180
  48        2.133161
  49        2.220640
  50        2.385858
  51        2.562053
  52        2.788647
  53        2.980305
  54        3.311742
  55        3.604557
  56        3.751480
  57        6.085575
  58        6.935907
  59        7.610758
  60        8.066920
  61        8.405318
  62        8.612337
  63        8.983583
  64        9.155056
  65       10.082663
  66       10.334073
  67       10.737225
  68       11.106688
  69       11.464682
  70       11.594024
  71       11.800189
  72       12.087540
  73       12.477133
  74       12.921589
  75       13.033553
  76       13.835615
  77       14.192290
  78       14.649663
  79       15.442168
  80       15.642905
 
 -0.2500000E+00  0.2500000E+00  0.0000000E+00  0.2500000E-01
   1      -68.645758
   2      -68.641472
   3      -68.640680
   4      -68.632806
   5      -68.613752
   6      -68.609298
   7      -68.596475
   8      -68.592278
   9      -68.585573
  10      -68.576541
  11      -68.569847
  12      -68.560044
  13      -12.597331
  14      -11.247781
  15      -10.991238
  16      -10.566683
  17      -10.368686
  18      -10.178264
  19       -6.010645
  20       -4.894698
  21       -2.646367
  22       -2.314123
  23       -1.972603
  24       -1.643381
  25       -1.495344
  26       -1.181422
  27       -0.787950
  28       -0.590175
  29       -0.446548
  30       -0.335192
  31       -0.292815
  32       -0.232898
  33       -0.176053
  34       -0.131985
  35       -0.009080
  36        0.069967
  37        1.258583
  38        1.319302
  39        1.365506
  40        1.421242
  41        1.428286
  42        1.474443
  43        1.501829
  44        1.543900
  45        1.725404
  46        1.810912
  47        1.994513
  48        2.071941
  49        2.418580
  50        2.462401
  51        2.527145
  52        2.873582
  53        3.142875
  54        3.229949
  55        3.785933
  56        4.070414
  57        5.975949
  58        6.685119
  59        7.532840
  60        8.221233
  61        8.616227
  62        8.909772
  63        9.310342
  64        9.428634
  65        9.803147
  66       10.272176
  67       10.539761
  68       10.828406
  69       10.973992
  70       11.379580
  71       11.475780
  72       11.732670
  73       12.104459
  74       12.661028
  75       12.942604
  76       13.102820
  77       13.349071
  78       13.522081
  79       14.482502
  80       14.754281
 
  0.1474515E-16  0.5000000E+00  0.2775558E-16  0.1250000E-01
   1      -68.645621
   2      -68.641409
   3      -68.640535
   4      -68.632750
   5      -68.613764
   6      -68.609358
   7      -68.596417
   8      -68.592216
   9      -68.585545
  10      -68.576588
  11      -68.569752
  12      -68.559876
  13      -12.435496
  14      -11.243565
  15      -10.956207
  16      -10.764491
  17      -10.428344
  18      -10.355347
  19       -5.871843
  20       -4.550530
  21       -2.493610
  22       -2.244004
  23       -1.941327
  24       -1.460700
  25       -1.226047
  26       -1.103983
  27       -0.899623
  28       -0.865144
  29       -0.596911
  30       -0.537222
  31       -0.275607
  32       -0.208787
  33       -0.204905
  34       -0.144374
  35       -0.029052
  36        0.080368
  37        1.253492
  38        1.327177
  39        1.345418
  40        1.397304
  41        1.469174
  42        1.478235
  43        1.501263
  44        1.551748
  45        1.751496
  46        1.788880
  47        1.969500
  48        2.145985
  49        2.321373
  50        2.361399
  51        2.555982
  52        2.670293
  53        2.932785
  54        3.078003
  55        3.252692
  56        3.864221
  57        6.382547
  58        7.095610
  59        7.981586
  60        8.202905
  61        8.514591
  62        8.818407
  63        9.320850
  64        9.888123
  65       10.013197
  66       10.516088
  67       10.685523
  68       10.791637
  69       11.137166
  70       11.411317
  71       11.609934
  72       11.784352
  73       11.947859
  74       12.503914
  75       12.823323
  76       13.034361
  77       13.549600
  78       13.684008
  79       14.552977
  80       15.246877
 
  0.2500000E+00  0.5000000E+00 -0.2775558E-16  0.2500000E-01
   1      -68.645533
   2      -68.641312
   3      -68.640625
   4      -68.632787
   5      -68.613696
   6      -68.609320
   7      -68.596426
   8      -68.592226
   9      -68.585540
  10      -68.576526
  11      -68.569764
  12      -68.559890
  13      -12.439627
  14      -11.349405
  15      -10.937518
  16      -10.736611
  17      -10.390242
  18      -10.269180
  19       -5.948353
  20       -4.643624
  21       -2.391511
  22       -2.225766
  23       -2.056672
  24       -1.640108
  25       -1.362205
  26       -1.280611
  27       -1.018805
  28       -0.511727
  29       -0.482031
  30       -0.332993
  31       -0.282651
  32       -0.216574
  33       -0.155280
  34       -0.134437
  35       -0.009592
  36        0.111989
  37        1.245805
  38        1.315294
  39        1.382110
  40        1.436436
  41        1.462419
  42        1.489907
  43        1.495885
  44        1.546976
  45        1.747690
  46        1.827271
  47        1.922629
  48        2.133539
  49        2.221475
  50        2.384908
  51        2.560774
  52        2.791174
  53        2.976988
  54        3.312659
  55        3.604220
  56        3.751106
  57        6.084414
  58        6.934362
  59        7.609347
  60        8.065734
  61        8.408727
  62        8.617574
  63        8.980624
  64        9.152445
  65       10.087615
  66       10.335194
  67       10.732095
  68       11.108570
  69       11.460043
  70       11.577002
  71       11.783562
  72       12.028728
  73       12.518796
  74       12.680768
  75       12.919703
  76       13.212190
  77       14.225826
  78       14.770588
  79       15.257055
  80       15.910368
 
  0.5000000E+00  0.5000000E+00  0.0000000E+00  0.1250000E-01
   1      -68.645358
   2      -68.641159
   3      -68.640430
   4      -68.632610
   5      -68.613596
   6      -68.609199
   7      -68.596226
   8      -68.592055
   9      -68.585450
  10      -68.576421
  11      -68.569527
  12      -68.559712
  13      -12.431472
  14      -11.497589
  15      -10.912861
  16      -10.614521
  17      -10.399199
  18      -10.197704
  19       -6.026637
  20       -4.811204
  21       -2.311928
  22       -2.264708
  23       -2.091922
  24       -1.702816
  25       -1.246477
  26       -1.107315
  27       -0.839403
  28       -0.785458
  29       -0.726513
  30       -0.242559
  31       -0.199210
  32       -0.181870
  33       -0.152155
  34       -0.040591
  35       -0.003425
  36        0.182236
  37        1.263219
  38        1.317647
  39        1.375233
  40        1.412161
  41        1.431485
  42        1.492614
  43        1.507121
  44        1.549426
  45        1.785229
  46        1.846214
  47        1.994869
  48        2.150065
  49        2.252555
  50        2.335890
  51        2.560777
  52        2.762356
  53        2.778456
  54        3.369621
  55        3.768425
  56        4.005953
  57        5.850333
  58        6.764312
  59        7.079857
  60        8.409101
  61        8.559565
  62        8.761211
  63        9.146729
  64        9.239299
  65        9.956786
  66       10.280516
  67       10.727332
  68       10.824023
  69       10.884159
  70       11.273935
  71       11.755603
  72       11.923083
  73       11.971729
  74       12.360736
  75       12.541488
  76       13.461620
  77       14.280026
  78       14.668542
  79       16.747220
  80       16.753754
 
 -0.2168404E-18 -0.2168404E-18  0.2000000E+00  0.2500000E-01
   1      -68.645793
   2      -68.641513
   3      -68.640703
   4      -68.632835
   5      -68.613848
   6      -68.609392
   7      -68.596499
   8      -68.592301
   9      -68.585656
  10      -68.576628
  11      -68.569884
  12      -68.560079
  13      -12.616023
  14      -11.423110
  15      -10.776860
  16      -10.606715
  17      -10.250198
  18      -10.235166
  19       -5.832046
  20       -5.045967
  21       -2.599736
  22       -2.372363
  23       -1.959060
  24       -1.774157
  25       -1.443927
  26       -1.129830
  27       -1.064078
  28       -0.770389
  29       -0.470893
  30       -0.293222
  31       -0.240946
  32       -0.236024
  33       -0.191455
  34       -0.147952
  35       -0.019014
  36        0.024461
  37        1.332235
  38        1.380949
  39        1.416552
  40        1.438457
  41        1.461874
  42        1.466486
  43        1.513198
  44        1.544445
  45        1.631884
  46        1.758053
  47        1.787474
  48        1.952126
  49        2.087420
  50        2.661084
  51        2.717109
  52        3.195982
  53        3.253702
  54        3.520882
  55        3.896073
  56        3.977838
  57        6.042749
  58        6.412720
  59        7.822307
  60        7.909462
  61        8.362137
  62        8.818936
  63        9.771102
  64        9.795099
  65       10.062603
  66       10.585287
  67       10.644077
  68       10.812773
  69       10.853329
  70       11.494286
  71       11.561692
  72       12.028883
  73       12.579422
  74       12.776913
  75       12.911051
  76       13.206034
  77       13.538337
  78       13.822676
  79       14.193160
  80       14.712439
 
  0.2500000E+00  0.1517883E-17  0.2000000E+00  0.2500000E-01
   1      -68.645731
   2      -68.641486
   3      -68.640651
   4      -68.632821
   5      -68.613886
   6      -68.609441
   7      -68.596461
   8      -68.592252
   9      -68.585657
  10      -68.576643
  11      -68.569832
  12      -68.560010
  13      -12.456668
  14      -11.464743
  15      -10.864583
  16      -10.685491
  17      -10.371706
  18      -10.245781
  19       -5.767444
  20       -4.803085
  21       -2.443403
  22       -2.233487
  23       -1.849256
  24       -1.714719
  25       -1.430752
  26       -1.187862
  27       -0.891295
  28       -0.744867
  29       -0.608407
  30       -0.521324
  31       -0.311283
  32       -0.244030
  33       -0.172207
  34       -0.125962
  35       -0.055613
  36        0.059563
  37        1.301634
  38        1.336432
  39        1.369077
  40        1.426868
  41        1.445761
  42        1.479709
  43        1.520460
  44        1.545553
  45        1.642403
  46        1.871726
  47        1.977589
  48        2.047367
  49        2.194482
  50        2.474686
  51        2.594164
  52        2.839147
  53        2.963110
  54        3.133537
  55        3.570126
  56        3.726583
  57        6.440606
  58        6.955106
  59        8.167815
  60        8.243882
  61        8.833848
  62        9.125887
  63        9.457857
  64        9.794268
  65       10.082823
  66       10.302811
  67       10.743788
  68       11.077038
  69       11.288555
  70       11.429496
  71       11.634147
  72       11.726247
  73       12.085978
  74       12.270067
  75       12.537471
  76       12.659933
  77       12.955986
  78       13.058698
  79       13.640421
  80       14.691625
 
  0.5000000E+00  0.9107298E-17  0.2000000E+00  0.2500000E-01
   1      -68.645501
   2      -68.641324
   3      -68.640616
   4      -68.632741
   5      -68.613753
   6      -68.609283
   7      -68.596379
   8      -68.592148
   9      -68.585586
  10      -68.576521
  11      -68.569765
  12      -68.559951
  13      -12.353978
  14      -11.411872
  15      -10.953172
  16      -10.679473
  17      -10.478185
  18      -10.334859
  19       -5.752512
  20       -4.720804
  21       -2.521452
  22       -2.184668
  23       -1.953793
  24       -1.535296
  25       -1.298457
  26       -1.096525
  27       -0.868667
  28       -0.755100
  29       -0.549866
  30       -0.443480
  31       -0.292266
  32       -0.184130
  33       -0.144117
  34       -0.109945
  35       -0.047018
  36        0.023738
  37        1.270278
  38        1.297120
  39        1.351980
  40        1.426964
  41        1.452233
  42        1.479825
  43        1.498683
  44        1.587620
  45        1.717877
  46        1.931741
  47        2.074240
  48        2.146244
  49        2.266044
  50        2.401869
  51        2.567576
  52        2.597408
  53        2.900088
  54        3.010570
  55        3.363288
  56        3.900293
  57        6.364166
  58        6.894824
  59        7.565541
  60        8.085715
  61        8.546535
  62        8.797349
  63        9.280825
  64        9.627378
  65        9.929842
  66       10.275211
  67       10.666996
  68       10.926765
  69       10.971083
  70       11.279475
  71       11.519761
  72       11.788419
  73       12.251527
  74       12.550370
  75       13.089981
  76       13.528513
  77       14.294362
  78       14.573672
  79       15.117306
  80       16.261357
 
 -0.2500000E+00 -0.4098284E-16  0.2000000E+00  0.2500000E-01
   1      -68.645783
   2      -68.641477
   3      -68.640712
   4      -68.632811
   5      -68.613859
   6      -68.609393
   7      -68.596486
   8      -68.592287
   9      -68.585681
  10      -68.576639
  11      -68.569871
  12      -68.560077
  13      -12.539495
  14      -11.334862
  15      -10.872967
  16      -10.602994
  17      -10.399046
  18      -10.281925
  19       -5.825571
  20       -4.973709
  21       -2.665060
  22       -2.452272
  23       -2.036621
  24       -1.576317
  25       -1.171004
  26       -0.982052
  27       -0.792581
  28       -0.653852
  29       -0.517003
  30       -0.397189
  31       -0.269610
  32       -0.256331
  33       -0.191867
  34       -0.144449
  35       -0.047359
  36        0.014844
  37        1.288637
  38        1.309688
  39        1.385108
  40        1.409206
  41        1.433262
  42        1.456582
  43        1.491105
  44        1.563749
  45        1.687259
  46        1.915238
  47        1.984550
  48        2.145407
  49        2.332658
  50        2.566953
  51        2.616896
  52        2.829903
  53        2.973235
  54        3.250024
  55        3.683494
  56        3.945309
  57        6.176970
  58        6.635582
  59        7.767095
  60        7.972192
  61        8.209735
  62        8.562539
  63        9.380073
  64        9.572788
  65        9.907349
  66       10.249133
  67       10.543732
  68       10.788055
  69       10.842289
  70       11.071912
  71       11.568352
  72       12.022409
  73       12.526261
  74       12.752388
  75       12.952247
  76       13.307106
  77       13.410591
  78       13.743336
  79       13.849831
  80       14.724785
 
  0.1517883E-17  0.2500000E+00  0.2000000E+00  0.2500000E-01
   1      -68.645729
   2      -68.641495
   3      -68.640647
   4      -68.632821
   5      -68.613893
   6      -68.609433
   7      -68.596454
   8      -68.592258
   9      -68.585671
  10      -68.576633
  11      -68.569815
  12      -68.560021
  13      -12.457210
  14      -11.463832
  15      -10.861866
  16      -10.689207
  17      -10.371906
  18      -10.244682
  19       -5.767624
  20       -4.804673
  21       -2.443819
  22       -2.233090
  23       -1.847042
  24       -1.713225
  25       -1.432491
  26       -1.188078
  27       -0.889938
  28       -0.744901
  29       -0.607449
  30       -0.522612
  31       -0.313684
  32       -0.244882
  33       -0.173743
  34       -0.125994
  35       -0.053118
  36        0.060851
  37        1.300423
  38        1.335111
  39        1.368488
  40        1.431297
  41        1.446427
  42        1.479134
  43        1.519490
  44        1.547219
  45        1.640311
  46        1.870031
  47        1.980745
  48        2.046173
  49        2.195856
  50        2.475163
  51        2.595802
  52        2.839134
  53        2.962679
  54        3.131486
  55        3.570552
  56        3.725936
  57        6.439503
  58        6.953544
  59        8.170475
  60        8.242799
  61        8.830084
  62        9.127063
  63        9.462995
  64        9.792013
  65       10.084494
  66       10.300489
  67       10.743511
  68       11.079004
  69       11.292113
  70       11.422963
  71       11.633289
  72       11.721453
  73       12.081928
  74       12.268546
  75       12.547006
  76       12.656733
  77       12.956754
  78       13.062153
  79       13.654536
  80       14.693336
 
  0.2500000E+00  0.2500000E+00  0.2000000E+00  0.2500000E-01
   1      -68.645640
   2      -68.641328
   3      -68.640570
   4      -68.632667
   5      -68.613729
   6      -68.609275
   7      -68.596334
   8      -68.592138
   9      -68.585536
  10      -68.576506
  11      -68.569734
  12      -68.559925
  13      -12.325192
  14      -11.472100
  15      -10.861889
  16      -10.856654
  17      -10.403959
  18      -10.287651
  19       -5.748877
  20       -4.691844
  21       -2.241948
  22       -2.136242
  23       -1.927900
  24       -1.848899
  25       -1.452471
  26       -1.396094
  27       -1.036507
  28       -0.518699
  29       -0.461282
  30       -0.350921
  31       -0.251877
  32       -0.220133
  33       -0.162303
  34       -0.112854
  35       -0.091275
  36        0.079933
  37        1.262030
  38        1.347056
  39        1.394660
  40        1.434559
  41        1.451810
  42        1.509301
  43        1.534974
  44        1.543705
  45        1.751452
  46        1.817009
  47        2.038522
  48        2.135672
  49        2.284371
  50        2.310528
  51        2.520855
  52        2.770516
  53        2.898110
  54        3.261884
  55        3.498292
  56        3.802461
  57        6.181853
  58        6.838379
  59        7.824315
  60        8.042503
  61        8.185909
  62        8.727049
  63        9.149360
  64        9.307505
  65       10.222413
  66       10.441964
  67       10.591079
  68       11.002051
  69       11.241874
  70       11.488149
  71       11.814878
  72       12.172406
  73       12.207857
  74       12.573091
  75       12.693220
  76       13.112679
  77       13.418836
  78       13.881400
  79       14.002557
  80       14.530495
 
  0.5000000E+00  0.2500000E+00  0.2000000E+00  0.2500000E-01
   1      -68.645487
   2      -68.641319
   3      -68.640590
   4      -68.632774
   5      -68.613691
   6      -68.609349
   7      -68.596408
   8      -68.592159
   9      -68.585583
  10      -68.576539
  11      -68.569719
  12      -68.559896
  13      -12.371820
  14      -11.470511
  15      -10.937005
  16      -10.649358
  17      -10.420497
  18      -10.303545
  19       -5.801254
  20       -4.836163
  21       -2.526338
  22       -2.243920
  23       -1.870973
  24       -1.643048
  25       -1.502735
  26       -1.307874
  27       -0.898166
  28       -0.531540
  29       -0.381797
  30       -0.354914
  31       -0.223372
  32       -0.180681
  33       -0.158968
  34       -0.076693
  35       -0.026209
  36        0.078448
  37        1.188981
  38        1.362821
  39        1.396567
  40        1.441182
  41        1.462278
  42        1.506701
  43        1.519430
  44        1.582880
  45        1.740036
  46        1.815108
  47        2.034351
  48        2.235101
  49        2.269650
  50        2.364496
  51        2.487027
  52        2.669691
  53        3.055315
  54        3.413500
  55        3.730281
  56        3.863021
  57        5.929228
  58        6.610610
  59        7.352913
  60        7.936227
  61        8.066873
  62        8.725747
  63        8.905791
  64        9.134582
  65        9.843701
  66       10.327792
  67       10.552055
  68       10.928976
  69       11.229294
  70       11.415254
  71       11.746259
  72       12.003254
  73       12.496135
  74       12.835248
  75       13.209381
  76       14.179280
  77       14.712590
  78       15.147320
  79       15.912294
  80       16.564262
 
 -0.2500000E+00  0.2500000E+00  0.2000000E+00  0.2500000E-01
   1      -68.645731
   2      -68.641521
   3      -68.640622
   4      -68.632868
   5      -68.613803