   12   12    1    1
  0.1849176E+02  0.6500240E-09  0.6500240E-09  0.6428867E-09  0.5000000E-15
  1.000000000000000E-004
  CAR 
 CGS                                     
  112   42   80
 
  0.0000000E+00  0.0000000E+00  0.0000000E+00  0.1250000E-01
   1      -68.648112
   2      -68.644742
   3      -68.634507
   4      -68.632625
   5      -68.612871
   6      -68.612696
   7      -68.598319
   8      -68.595200
   9      -68.578740
  10      -68.576926
  11      -68.561829
  12      -68.559872
  13      -12.721915
  14      -11.130159
  15      -10.918815
  16      -10.603687
  17      -10.250204
  18      -10.232745
  19       -5.984984
  20       -4.984616
  21       -2.759871
  22       -2.211755
  23       -2.068622
  24       -1.921753
  25       -1.576681
  26       -0.983873
  27       -0.954364
  28       -0.683586
  29       -0.397906
  30       -0.278715
  31       -0.260718
  32       -0.237457
  33       -0.187353
  34       -0.158851
  35       -0.040713
  36        0.035091
  37        1.350419
  38        1.361561
  39        1.414188
  40        1.457087
  41        1.470699
  42        1.473159
  43        1.520192
  44        1.531760
  45        1.575254
  46        1.711657
  47        1.889758
  48        1.926181
  49        2.059705
  50        2.652401
  51        2.728388
  52        3.094394
  53        3.220283
  54        4.007178
  55        4.036309
  56        4.170819
  57        5.537824
  58        6.355332
  59        7.629526
  60        7.986896
  61        8.617915
  62        8.790771
  63        9.572467
  64        9.737865
  65        9.813475
  66       10.423219
  67       10.581228
  68       10.700021
  69       10.713282
  70       11.282097
  71       11.711022
  72       12.394633
  73       12.451728
  74       12.725835
  75       13.322297
  76       13.386025
  77       13.831047
  78       13.885484
  79       14.141139
  80       14.177662
 
  0.2500000E+00  0.7372575E-17  0.1387779E-16  0.2500000E-01
   1      -68.648089
   2      -68.644695
   3      -68.634481
   4      -68.632587
   5      -68.612707
   6      -68.612637
   7      -68.598329
   8      -68.595226
   9      -68.578670
  10      -68.576875
  11      -68.561794
  12      -68.559838
  13      -12.597000
  14      -11.127169
  15      -10.985053
  16      -10.677384
  17      -10.364171
  18      -10.276199
  19       -5.933333
  20       -4.774131
  21       -2.645639
  22       -2.252357
  23       -2.088308
  24       -1.690452
  25       -1.342928
  26       -0.998900
  27       -0.770258
  28       -0.622587
  29       -0.553011
  30       -0.443510
  31       -0.356458
  32       -0.242784
  33       -0.192483
  34       -0.171190
  35       -0.043956
  36        0.042369
  37        1.278493
  38        1.335800
  39        1.354537
  40        1.391829
  41        1.427816
  42        1.471598
  43        1.498291
  44        1.529623
  45        1.724547
  46        1.858871
  47        2.056034
  48        2.094067
  49        2.229812
  50        2.413954
  51        2.556856
  52        2.826055
  53        2.950033
  54        3.240741
  55        3.662242
  56        4.039666
  57        6.169679
  58        6.904970
  59        8.138024
  60        8.268031
  61        8.593444
  62        9.012534
  63        9.242412
  64        9.530177
  65        9.865436
  66       10.376362
  67       10.636118
  68       10.813564
  69       10.938937
  70       11.192312
  71       11.656146
  72       11.770828
  73       12.117064
  74       12.440687
  75       12.619717
  76       13.007395
  77       13.503628
  78       13.874807
  79       14.213008
  80       14.710352
 
  0.5000000E+00  0.1474515E-16  0.2775558E-16  0.1250000E-01
   1      -68.647922
   2      -68.644581
   3      -68.634410
   4      -68.632500
   5      -68.612691
   6      -68.612585
   7      -68.598262
   8      -68.595140
   9      -68.578617
  10      -68.576860
  11      -68.561679
  12      -68.559668
  13      -12.437751
  14      -11.249631
  15      -10.958923
  16      -10.764358
  17      -10.426088
  18      -10.356335
  19       -5.871053
  20       -4.549119
  21       -2.495423
  22       -2.243833
  23       -1.948520
  24       -1.464330
  25       -1.224820
  26       -1.101310
  27       -0.902989
  28       -0.863683
  29       -0.604138
  30       -0.536165
  31       -0.270940
  32       -0.204227
  33       -0.202452
  34       -0.145395
  35       -0.026355
  36        0.083099
  37        1.254209
  38        1.328498
  39        1.346795
  40        1.396912
  41        1.471238
  42        1.478980
  43        1.499484
  44        1.552111
  45        1.752937
  46        1.791550
  47        1.968316
  48        2.146679
  49        2.321098
  50        2.362541
  51        2.554875
  52        2.667930
  53        2.935703
  54        3.076799
  55        3.248969
  56        3.863812
  57        6.383837
  58        7.098244
  59        7.981829
  60        8.205224
  61        8.515122
  62        8.819952
  63        9.327314
  64        9.890205
  65       10.011356
  66       10.518218
  67       10.691418
  68       10.791303
  69       11.139947
  70       11.404293
  71       11.609802
  72       11.776827
  73       11.944793
  74       12.505507
  75       12.779800
  76       13.000280
  77       13.396435
  78       13.540703
  79       13.941093
  80       14.273459
 
  0.7372575E-17  0.2500000E+00  0.1387779E-16  0.2500000E-01
   1      -68.648067
   2      -68.644718
   3      -68.634467
   4      -68.632601
   5      -68.612705
   6      -68.612641
   7      -68.598355
   8      -68.595199
   9      -68.578685
  10      -68.576860
  11      -68.561792
  12      -68.559839
  13      -12.597046
  14      -11.126444
  15      -10.984687
  16      -10.679735
  17      -10.362691
  18      -10.276367
  19       -5.933168
  20       -4.774257
  21       -2.645454
  22       -2.255638
  23       -2.085001
  24       -1.689357
  25       -1.346740
  26       -0.999431
  27       -0.768299
  28       -0.618891
  29       -0.555017
  30       -0.438744
  31       -0.360112
  32       -0.243718
  33       -0.191486
  34       -0.168195
  35       -0.045715
  36        0.038768
  37        1.278901
  38        1.335309
  39        1.354705
  40        1.392314
  41        1.427359
  42        1.471558
  43        1.497703
  44        1.530844
  45        1.724693
  46        1.857773
  47        2.057093
  48        2.093056
  49        2.230939
  50        2.412952
  51        2.557750
  52        2.827104
  53        2.948144
  54        3.242353
  55        3.661570
  56        4.038705
  57        6.170841
  58        6.904294
  59        8.137339
  60        8.268712
  61        8.594880
  62        9.011138
  63        9.244039
  64        9.531090
  65        9.865051
  66       10.376586
  67       10.633304
  68       10.811878
  69       10.939447
  70       11.192101
  71       11.656762
  72       11.770995
  73       12.116533
  74       12.443209
  75       12.619124
  76       13.007697
  77       13.514132
  78       13.899364
  79       14.269473
  80       14.828942
 
  0.2500000E+00  0.2500000E+00  0.0000000E+00  0.2500000E-01
   1      -68.648089
   2      -68.644719
   3      -68.634375
   4      -68.632480
   5      -68.612847
   6      -68.612764
   7      -68.598235
   8      -68.595100
   9      -68.578802
  10      -68.576991
  11      -68.561813
  12      -68.559855
  13      -12.441645
  14      -11.190412
  15      -10.944815
  16      -10.879315
  17      -10.390345
  18      -10.347550
  19       -5.875962
  20       -4.522620
  21       -2.418540
  22       -2.247302
  23       -1.793297
  24       -1.682829
  25       -1.354468
  26       -1.299387
  27       -1.082456
  28       -0.683431
  29       -0.521497
  30       -0.295973
  31       -0.281867
  32       -0.223474
  33       -0.186427
  34       -0.124705
  35       -0.093779
  36        0.080609
  37        1.293660
  38        1.311244
  39        1.415584
  40        1.425939
  41        1.462990
  42        1.482412
  43        1.494706
  44        1.570463
  45        1.671377
  46        1.878685
  47        1.940151
  48        2.134698
  49        2.279326
  50        2.321175
  51        2.559532
  52        2.649485
  53        2.901585
  54        2.945458
  55        3.697768
  56        3.832542
  57        6.171444
  58        6.989742
  59        8.005119
  60        8.327363
  61        8.433855
  62        8.570025
  63        9.145458
  64        9.248171
  65       10.361798
  66       10.495667
  67       10.919125
  68       11.183770
  69       11.328073
  70       11.558353
  71       11.816408
  72       11.962867
  73       12.313593
  74       12.504308
  75       12.708581
  76       12.912082
  77       13.340092
  78       13.446393
  79       14.260945
  80       14.368121
 
  0.5000000E+00  0.2500000E+00 -0.2775558E-16  0.2500000E-01
   1      -68.647846
   2      -68.644524
   3      -68.634420
   4      -68.632582
   5      -68.612615
   6      -68.612545
   7      -68.598277
   8      -68.595160
   9      -68.578507
  10      -68.576881
  11      -68.561660
  12      -68.559714
  13      -12.442067
  14      -11.353684
  15      -10.940042
  16      -10.739126
  17      -10.385825
  18      -10.271371
  19       -5.947955
  20       -4.643410
  21       -2.392105
  22       -2.228038
  23       -2.057048
  24       -1.639866
  25       -1.359657
  26       -1.285029
  27       -1.024209
  28       -0.512596
  29       -0.483020
  30       -0.330458
  31       -0.282178
  32       -0.217676
  33       -0.150818
  34       -0.131781
  35       -0.008290
  36        0.114873
  37        1.246708
  38        1.315633
  39        1.382633
  40        1.436544
  41        1.462290
  42        1.491725
  43        1.496112
  44        1.549353
  45        1.748003
  46        1.828223
  47        1.922333
  48        2.134045
  49        2.220368
  50        2.385878
  51        2.561770
  52        2.787193
  53        2.979165
  54        3.310263
  55        3.602018
  56        3.750266
  57        6.086468
  58        6.939346
  59        7.611501
  60        8.068835
  61        8.411075
  62        8.614195
  63        8.982954
  64        9.152110
  65       10.087661
  66       10.335706
  67       10.733237
  68       11.108557
  69       11.459939
  70       11.595086
  71       11.800149
  72       12.085578
  73       12.474922
  74       12.918057
  75       13.031958
  76       13.830712
  77       14.195778
  78       14.653751
  79       15.434390
  80       15.644667
 
 -0.2500000E+00  0.2500000E+00  0.0000000E+00  0.2500000E-01
   1      -68.648080
   2      -68.644708
   3      -68.634448
   4      -68.632565
   5      -68.612639
   6      -68.612570
   7      -68.598327
   8      -68.595197
   9      -68.578629
  10      -68.576813
  11      -68.561794
  12      -68.559840
  13      -12.600005
  14      -11.250805
  15      -10.993789
  16      -10.572216
  17      -10.363437
  18      -10.179128
  19       -6.010320
  20       -4.895788
  21       -2.646054
  22       -2.315840
  23       -1.972304
  24       -1.645801
  25       -1.495475
  26       -1.181592
  27       -0.790650
  28       -0.586838
  29       -0.451377
  30       -0.334467
  31       -0.292840
  32       -0.229399
  33       -0.176415
  34       -0.131479
  35       -0.005708
  36        0.071656
  37        1.258887
  38        1.320138
  39        1.365514
  40        1.422658
  41        1.430760
  42        1.475644
  43        1.503796
  44        1.543476
  45        1.725347
  46        1.812634
  47        1.993565
  48        2.072228
  49        2.416680
  50        2.462491
  51        2.527559
  52        2.875608
  53        3.142475
  54        3.228166
  55        3.783435
  56        4.067529
  57        5.978708
  58        6.687854
  59        7.534468
  60        8.222592
  61        8.618323
  62        8.913477
  63        9.306277
  64        9.430851
  65        9.804185
  66       10.272558
  67       10.542921
  68       10.834128
  69       10.972171
  70       11.381294
  71       11.472279
  72       11.733349
  73       12.102027
  74       12.662193
  75       12.943534
  76       13.097286
  77       13.351523
  78       13.518464
  79       14.475151
  80       14.755337
 
  0.1474515E-16  0.5000000E+00  0.2775558E-16  0.1250000E-01
   1      -68.647942
   2      -68.644547
   3      -68.634394
   4      -68.632515
   5      -68.612652
   6      -68.612629
   7      -68.598271
   8      -68.595137
   9      -68.578676
  10      -68.576802
  11      -68.561621
  12      -68.559731
  13      -12.437897
  14      -11.247855
  15      -10.958722
  16      -10.768702
  17      -10.421574
  18      -10.358333
  19       -5.870728
  20       -4.549365
  21       -2.494526
  22       -2.248438
  23       -1.944549
  24       -1.465368
  25       -1.225434
  26       -1.106098
  27       -0.900319
  28       -0.864400
  29       -0.596855
  30       -0.529865
  31       -0.273397
  32       -0.211286
  33       -0.198925
  34       -0.140966
  35       -0.031838
  36        0.079493
  37        1.253653
  38        1.326073
  39        1.349345
  40        1.398872
  41        1.470890
  42        1.477399
  43        1.500212
  44        1.553850
  45        1.753148
  46        1.791369
  47        1.966606
  48        2.146817
  49        2.320447
  50        2.359680
  51        2.554289
  52        2.669910
  53        2.937562
  54        3.081231
  55        3.248641
  56        3.860108
  57        6.385834
  58        7.097028
  59        7.981395
  60        8.201189
  61        8.520721
  62        8.821158
  63        9.326680
  64        9.888689
  65       10.010227
  66       10.519024
  67       10.691621
  68       10.793064
  69       11.140525
  70       11.403932
  71       11.611160
  72       11.776090
  73       11.942133
  74       12.503387
  75       12.824842
  76       13.030959
  77       13.550244
  78       13.688942
  79       14.553874
  80       15.251852
 
  0.2500000E+00  0.5000000E+00 -0.2775558E-16  0.2500000E-01
   1      -68.647873
   2      -68.644502
   3      -68.634363
   4      -68.632598
   5      -68.612608
   6      -68.612572
   7      -68.598278
   8      -68.595182
   9      -68.578543
  10      -68.576842
  11      -68.561600
  12      -68.559772
  13      -12.442141
  14      -11.353145
  15      -10.940003
  16      -10.740002
  17      -10.386613
  18      -10.270204
  19       -5.947813
  20       -4.643515
  21       -2.391610
  22       -2.229012
  23       -2.057257
  24       -1.639584
  25       -1.365482
  26       -1.279868
  27       -1.022633
  28       -0.510254
  29       -0.485438
  30       -0.332569
  31       -0.281657
  32       -0.214475
  33       -0.149165
  34       -0.130216
  35       -0.011050
  36        0.111728
  37        1.246382
  38        1.316328
  39        1.381274
  40        1.437402
  41        1.461585
  42        1.491733
  43        1.496721
  44        1.550298
  45        1.748618
  46        1.827925
  47        1.921643
  48        2.134757
  49        2.220860
  50        2.384251
  51        2.559736
  52        2.791210
  53        2.978792
  54        3.311444
  55        3.601931
  56        3.747530
  57        6.087607
  58        6.938790
  59        7.611945
  60        8.069217
  61        8.409441
  62        8.616662
  63        8.983166
  64        9.151523
  65       10.085826
  66       10.337089
  67       10.731521
  68       11.108136
  69       11.459178
  70       11.577506
  71       11.786730
  72       12.032629
  73       12.524418
  74       12.680234
  75       12.916981
  76       13.209586
  77       14.226927
  78       14.768287
  79       15.250371
  80       15.912278
 
  0.5000000E+00  0.5000000E+00  0.0000000E+00  0.1250000E-01
   1      -68.647707
   2      -68.644322
   3      -68.634212
   4      -68.632399
   5      -68.612447
   6      -68.612509
   7      -68.598085
   8      -68.594975
   9      -68.578510
  10      -68.576691
  11      -68.561457
  12      -68.559513
  13      -12.434144
  14      -11.500590
  15      -10.915271
  16      -10.619690
  17      -10.394690
  18      -10.198403
  19       -6.026571
  20       -4.811660
  21       -2.311636
  22       -2.266214
  23       -2.091047
  24       -1.704380
  25       -1.246200
  26       -1.111536
  27       -0.844633
  28       -0.779483
  29       -0.731113
  30       -0.242133
  31       -0.197177
  32       -0.175479
  33       -0.154645
  34       -0.041709
  35        0.000942
  36        0.184243
  37        1.265209
  38        1.318419
  39        1.375528
  40        1.413612
  41        1.432918
  42        1.493441
  43        1.507321
  44        1.549955
  45        1.787125
  46        1.848810
  47        1.994562
  48        2.149682
  49        2.250642
  50        2.337173
  51        2.561474
  52        2.759089
  53        2.775907
  54        3.367328
  55        3.765442
  56        4.004908
  57        5.853266
  58        6.766160
  59        7.082562
  60        8.411671
  61        8.561021
  62        8.770149
  63        9.141896
  64        9.241993
  65        9.959096
  66       10.286088
  67       10.728050
  68       10.826495
  69       10.874227
  70       11.274260
  71       11.754927
  72       11.918957
  73       11.971049
  74       12.366722
  75       12.541544
  76       13.455534
  77       14.287453
  78       14.672389
  79       16.748214
  80       16.754757
 
 -0.2168404E-18 -0.2168404E-18  0.2000000E+00  0.2500000E-01
   1      -68.648116
   2      -68.644743
   3      -68.634476
   4      -68.632595
   5      -68.612757
   6      -68.612643
   7      -68.598352
   8      -68.595220
   9      -68.578713
  10      -68.576900
  11      -68.561830
  12      -68.559875
  13      -12.618737
  14      -11.426378
  15      -10.779595
  16      -10.608790
  17      -10.249286
  18      -10.234488
  19       -5.831459
  20       -5.047943
  21       -2.599819
  22       -2.373087
  23       -1.961839
  24       -1.774523
  25       -1.443934
  26       -1.127116
  27       -1.066909
  28       -0.769780
  29       -0.469844
  30       -0.291896
  31       -0.241774
  32       -0.235051
  33       -0.191865
  34       -0.146218
  35       -0.017810
  36        0.025704
  37        1.333553
  38        1.380598
  39        1.416576
  40        1.439222
  41        1.464214
  42        1.466092
  43        1.513937
  44        1.545080
  45        1.632996
  46        1.758640
  47        1.785593
  48        1.947868
  49        2.088964
  50        2.659037
  51        2.719726
  52        3.198285
  53        3.255993
  54        3.518946
  55        3.895888
  56        3.976737
  57        6.045522
  58        6.413858
  59        7.824966
  60        7.907243
  61        8.365114
  62        8.818441
  63        9.774453
  64        9.795917
  65       10.062607
  66       10.584348
  67       10.647609
  68       10.813435
  69       10.857753
  70       11.493238
  71       11.557213
  72       12.026553
  73       12.580099
  74       12.776719
  75       12.913392
  76       13.204743
  77       13.534440
  78       13.820254
  79       14.196454
  80       14.701209
 
  0.2500000E+00  0.1517883E-17  0.2000000E+00  0.2500000E-01
   1      -68.648053
   2      -68.644679
   3      -68.634461
   4      -68.632580
   5      -68.612776
   6      -68.612715
   7      -68.598310
   8      -68.595171
   9      -68.578728
  10      -68.576906
  11      -68.561760
  12      -68.559818
  13      -12.459701
  14      -11.468038
  15      -10.865328
  16      -10.688867
  17      -10.372462
  18      -10.243650
  19       -5.767098
  20       -4.804944
  21       -2.445500
  22       -2.233311
  23       -1.852942
  24       -1.714657
  25       -1.429872
  26       -1.188534
  27       -0.891706
  28       -0.746067
  29       -0.604141
  30       -0.523311
  31       -0.311939
  32       -0.245959
  33       -0.174535
  34       -0.121184
  35       -0.050460
  36        0.062453
  37        1.301603
  38        1.335347
  39        1.369597
  40        1.432286
  41        1.445878
  42        1.479460
  43        1.520538
  44        1.546646
  45        1.643153
  46        1.869791
  47        1.979366
  48        2.046885
  49        2.193508
  50        2.475241
  51        2.595875
  52        2.837588
  53        2.963306
  54        3.134415
  55        3.568935
  56        3.725371
  57        6.441273
  58        6.956432
  59        8.170177
  60        8.246628
  61        8.832804
  62        9.128013
  63        9.464463
  64        9.795811
  65       10.084439
  66       10.300609
  67       10.739726
  68       11.078745
  69       11.289716
  70       11.423288
  71       11.632284
  72       11.725406
  73       12.085356
  74       12.266856
  75       12.540133
  76       12.658743
  77       12.956235
  78       13.060730
  79       13.640460
  80       14.691449
 
  0.5000000E+00  0.9107298E-17  0.2000000E+00  0.2500000E-01
   1      -68.647848
   2      -68.644550
   3      -68.634342
   4      -68.632529
   5      -68.612623
   6      -68.612576
   7      -68.598237
   8      -68.595080
   9      -68.578565
  10      -68.576871
  11      -68.561682
  12      -68.559752
  13      -12.357452
  14      -11.414894
  15      -10.953871
  16      -10.683814
  17      -10.476598
  18      -10.333936
  19       -5.752199
  20       -4.722959
  21       -2.523658
  22       -2.184807
  23       -1.954716
  24       -1.534141
  25       -1.302105
  26       -1.094376
  27       -0.868920
  28       -0.762031
  29       -0.550969
  30       -0.447350
  31       -0.287253
  32       -0.180936
  33       -0.144552
  34       -0.106909
  35       -0.040983
  36        0.025403
  37        1.273273
  38        1.296812
  39        1.351199
  40        1.429348
  41        1.451914
  42        1.480752
  43        1.501181
  44        1.586856
  45        1.719919
  46        1.933128
  47        2.076157
  48        2.146710
  49        2.267652
  50        2.403887
  51        2.568257
  52        2.598022
  53        2.895989
  54        3.006717
  55        3.358174
  56        3.899959
  57        6.364869
  58        6.897622
  59        7.573273
  60        8.084326
  61        8.547014
  62        8.797136
  63        9.279500
  64        9.628580
  65        9.931231
  66       10.275925
  67       10.657516
  68       10.928127
  69       10.970618
  70       11.280940
  71       11.518318
  72       11.789072
  73       12.248360
  74       12.547043
  75       13.101962
  76       13.518230
  77       14.303974
  78       14.619231
  79       15.122049
  80       16.272225
 
 -0.2500000E+00 -0.4098284E-16  0.2000000E+00  0.2500000E-01
   1      -68.648106
   2      -68.644740
   3      -68.634451
   4      -68.632570
   5      -68.612754
   6      -68.612657
   7      -68.598341
   8      -68.595204
   9      -68.578722
  10      -68.576925
  11      -68.561829
  12      -68.559863
  13      -12.542450
  14      -11.338281
  15      -10.874968
  16      -10.606445
  17      -10.395386
  18      -10.282933
  19       -5.824921
  20       -4.975793
  21       -2.665319
  22       -2.453994
  23       -2.037527
  24       -1.578524
  25       -1.169589
  26       -0.984230
  27       -0.796078
  28       -0.651601
  29       -0.519534
  30       -0.389666
  31       -0.272373
  32       -0.256308
  33       -0.189788
  34       -0.145310
  35       -0.044505
  36        0.018108
  37        1.289710
  38        1.309071
  39        1.389262
  40        1.408286
  41        1.434096
  42        1.455561
  43        1.492234
  44        1.565763
  45        1.688689
  46        1.914979
  47        1.986389
  48        2.145766
  49        2.333268
  50        2.564481
  51        2.616587
  52        2.829617
  53        2.975519
  54        3.248145
  55        3.681258
  56        3.943455
  57        6.178963
  58        6.636692
  59        7.766604
  60        7.972991
  61        8.213257
  62        8.562011
  63        9.379566
  64        9.577551
  65        9.908510
  66       10.251654
  67       10.545328
  68       10.787703
  69       10.843222
  70       11.070360
  71       11.565514
  72       12.022133
  73       12.525850
  74       12.754047
  75       12.952501
  76       13.306986
  77       13.411000
  78       13.738501
  79       13.845319
  80       14.725931
 
  0.1517883E-17  0.2500000E+00  0.2000000E+00  0.2500000E-01
   1      -68.648050
   2      -68.644681
   3      -68.634461
   4      -68.632581
   5      -68.612783
   6      -68.612706
   7      -68.598303
   8      -68.595178
   9      -68.578717
  10      -68.576917
  11      -68.561773
  12      -68.559806
  13      -12.459825
  14      -11.467442
  15      -10.864114
  16      -10.691907
  17      -10.371613
  18      -10.243162
  19       -5.766724
  20       -4.805242
  21       -2.445387
  22       -2.234268
  23       -1.850622
  24       -1.714223
  25       -1.435256
  26       -1.189746
  27       -0.889883
  28       -0.739999
  29       -0.604659
  30       -0.526863
  31       -0.309533
  32       -0.241144
  33       -0.174922
  34       -0.123318
  35       -0.051722
  36        0.059434
  37        1.301663
  38        1.336732
  39        1.368336
  40        1.430522
  41        1.446606
  42        1.478924
  43        1.521564
  44        1.547137
  45        1.644278
  46        1.869652
  47        1.976889
  48        2.047462
  49        2.194337
  50        2.474617
  51        2.596755
  52        2.839254
  53        2.962994
  54        3.135447
  55        3.566519
  56        3.724964
  57        6.442387
  58        6.955528
  59        8.170530
  60        8.246735
  61        8.833892
  62        9.127698
  63        9.464091
  64        9.796722
  65       10.086148
  66       10.298424
  67       10.737602
  68       11.078913
  69       11.291003
  70       11.424285
  71       11.631428
  72       11.724447
  73       12.085723
  74       12.266142
  75       12.542113
  76       12.658584
  77       12.952262
  78       13.056167
  79       13.657450
  80       14.697149
 
  0.2500000E+00  0.2500000E+00  0.2000000E+00  0.2500000E-01
   1      -68.647961
   2      -68.644590
   3      -68.634318
   4      -68.632422
   5      -68.612614
   6      -68.612549
   7      -68.598187
   8      -68.595054
   9      -68.578598
  10      -68.576774
  11      -68.561683
  12      -68.559717
  13      -12.328133
  14      -11.476049
  15      -10.864709
  16      -10.855998
  17      -10.407577
  18      -10.284273
  19       -5.748157
  20       -4.692548
  21       -2.242562
  22       -2.139614
  23       -1.929504
  24       -1.851195
  25       -1.451882
  26       -1.395630
  27       -1.040570
  28       -0.519679
  29       -0.464603
  30       -0.350770
  31       -0.245385
  32       -0.216080
  33       -0.158048
  34       -0.111329
  35       -0.092129
  36        0.080749
  37        1.261678
  38        1.347617
  39        1.396936
  40        1.434882
  41        1.452905
  42        1.510279
  43        1.536012
  44        1.542979
  45        1.753520
  46        1.816088
  47        2.039610
  48        2.136724
  49        2.286337
  50        2.310884
  51        2.521797
  52        2.770500
  53        2.895303
  54        3.260728
  55        3.496186
  56        3.800185
  57        6.184062
  58        6.840577
  59        7.827254
  60        8.042862
  61        8.188826
  62        8.726059
  63        9.153380
  64        9.307424
  65       10.218334
  66       10.441043
  67       10.592667
  68       11.006300
  69       11.238538
  70       11.488587
  71       11.810727
  72       12.172419
  73       12.208634
  74       12.574333
  75       12.693102
  76       13.113885
  77       13.416483
  78       13.883121
  79       14.004341
  80       14.524911
 
  0.5000000E+00  0.2500000E+00  0.2000000E+00  0.2500000E-01
   1      -68.647826
   2      -68.644463
   3      -68.634362
   4      -68.632603
   5      -68.612600
   6      -68.612608
   7      -68.598259
   8      -68.595120
   9      -68.578491
  10      -68.576935
  11      -68.561573
  12      -68.559761
  13      -12.374867
  14      -11.473982
  15      -10.937639
  16      -10.654950
  17      -10.415138
  18      -10.305369
  19       -5.801022
  20       -4.837449
  21       -2.527985
  22       -2.242988
  23       -1.873182
  24       -1.644425
  25       -1.502623
  26       -1.308393
  27       -0.902349
  28       -0.537577
  29       -0.376969
  30       -0.349109
  31       -0.223469
  32       -0.177069
  33       -0.162603
  34       -0.076210
  35       -0.022327
  36        0.080711
  37        1.189253
  38        1.364059
  39        1.397913
  40        1.440995
  41        1.463207
  42        1.506208
  43        1.519234
  44        1.585821
  45        1.739995
  46        1.819132
  47        2.036698
  48        2.235819
  49        2.270075
  50        2.362085
  51        2.488867
  52        2.668187
  53        3.052264
  54        3.410544
  55        3.727089
  56        3.863248
  57        5.931962
  58        6.613021
  59        7.353563
  60        7.941515
  61        8.064239
  62        8.724218
  63        8.905147
  64        9.139612
  65        9.843417
  66       10.328733
  67       10.557464
  68       10.927078
  69       11.221769
  70       11.418809
  71       11.750821
  72       12.004986
  73       12.496242
  74       12.831729
  75       13.203678
  76       14.184682
  77       14.713645
  78       15.163024
  79       15.914058
  80       16.567195
 
 -0.2500000E+00  0.2500000E+00  0.2000000E+00  0.2500000E-01
   1      -68.648051
   2      -68.644645
   3      -68.634511
   4      -68.632619
   5      -68.612693