 vasp.5.3.3 18Dez12 (build Nov 13 2015 09:58:40) complex                        
  
 executed on             LinuxIFC date 2017.10.18  13:03:59
 running on   48 total cores
 distrk:  each k-point on   16 cores,    3 groups
 distr:  one band on NCORES_PER_BAND=   1 cores,   16 groups


--------------------------------------------------------------------------------------------------------


 INCAR:
 POTCAR:    PAW_PBE Cu_pv 06Sep2000               
 POTCAR:    PAW_PBE Ge 05Jan2001                  
 POTCAR:    PAW_PBE S 17Jan2003                   

 ----------------------------------------------------------------------------- 
|                                                                             |
|           W    W    AA    RRRRR   N    N  II  N    N   GGGG   !!!           |
|           W    W   A  A   R    R  NN   N  II  NN   N  G    G  !!!           |
|           W    W  A    A  R    R  N N  N  II  N N  N  G       !!!           |
|           W WW W  AAAAAA  RRRRR   N  N N  II  N  N N  G  GGG   !            |
|           WW  WW  A    A  R   R   N   NN  II  N   NN  G    G                |
|           W    W  A    A  R    R  N    N  II  N    N   GGGG   !!!           |
|                                                                             |
|      For optimal performance we recommend that you set                      |
|        NPAR = 4 - approx SQRT( number of cores)                             |
|      (number of cores/NPAR must be integer)                                 |
|      This setting will greatly improve the performance of VASP for DFT.     |
|      The default NPAR=number of cores might be grossly inefficient          |
|      on modern multi-core architectures or massively parallel machines.     |
|      Do your own testing.                                                   |
|      Unfortunately you need to use the default for hybrid, GW and RPA       |
|      calculations.                                                          |
|                                                                             |
 ----------------------------------------------------------------------------- 


 ----------------------------------------------------------------------------- 
|                                                                             |
|           W    W    AA    RRRRR   N    N  II  N    N   GGGG   !!!           |
|           W    W   A  A   R    R  NN   N  II  NN   N  G    G  !!!           |
|           W    W  A    A  R    R  N N  N  II  N N  N  G       !!!           |
|           W WW W  AAAAAA  RRRRR   N  N N  II  N  N N  G  GGG   !            |
|           WW  WW  A    A  R   R   N   NN  II  N   NN  G    G                |
|           W    W  A    A  R    R  N    N  II  N    N   GGGG   !!!           |
|                                                                             |
|      You have enabled k-point parallelism (KPAR>1).                         |
|      This developmental code was originally  written by Paul Kent at ORNL,  |
|      and carefully double checked in Vienna.                                |
|      GW as well as linear response parallelism added by Martijn Marsman     |
|      and Georg Kresse.                                                      |
|      Carefully verify results versus KPAR=1.                                |
|      Report problems to Paul Kent and Vienna.                               |
|                                                                             |
 ----------------------------------------------------------------------------- 

 POTCAR:    PAW_PBE Cu_pv 06Sep2000               
   VRHFIN =Cu: d10 p1                                                           
   LEXCH  = PE                                                                  
   EATOM  =  4120.1201 eV,  302.8203 Ry                                         
                                                                                
   TITEL  = PAW_PBE Cu_pv 06Sep2000                                             
   LULTRA =        F    use ultrasoft PP ?                                      
   IUNSCR =        1    unscreen: 0-lin 1-nonlin 2-no                           
   RPACOR =    1.500    partial core radius                                     
   POMASS =   63.546; ZVAL   =   17.000    mass and valenz                      
   RCORE  =    2.000    outmost cutoff radius                                   
   RWIGS  =    2.000; RWIGS  =    1.058    wigner-seitz radius (au A)           
   ENMAX  =  368.648; ENMIN  =  276.486 eV                                      
   RCLOC  =    1.304    cutoff for local pot                                    
   LCOR   =        T    correct aug charges                                     
   LPAW   =        T    paw PP                                                  
   EAUG   =  758.233                                                            
   DEXC   =    0.000                                                            
   RMAX   =    2.046    core radius for proj-oper                               
   RAUG   =    1.300    factor for augmentation sphere                          
   RDEP   =    2.025    radius for radial grids                                 
   RDEPT  =    1.558    core radius for aug-charge                              
                                                                                
   Atomic configuration                                                         
    8 entries                                                                   
     n  l   j            E        occ.                                          
     1  0  0.50     -8850.2467   2.0000                                         
     2  0  0.50     -1062.3498   2.0000                                         
     2  1  1.50      -916.8226   6.0000                                         
     3  0  0.50      -114.6929   2.0000                                         
     3  1  1.50       -72.1325   6.0000                                         
     3  2  2.50        -5.0394  10.0000                                         
     4  0  0.50        -4.6097   1.0000                                         
     4  3  2.50        -1.3606   0.0000                                         
   Description                                                                  
     l       E           TYP  RCUT    TYP  RCUT                                 
     1    -72.1324777     23  1.700                                             
     1     -1.3605826     23  1.700                                             
     2     -5.0393776     23  2.000                                             
     2     -6.3999602     23  2.000                                             
     0     -4.6097062     23  1.800                                             
     0     14.1620818     23  1.800                                             
  local pseudopotential read in
  partial core-charges read in
  partial kinetic energy density read in
  atomic valenz-charges read in
  non local Contribution for L=           1  read in
    real space projection operators read in
  non local Contribution for L=           1  read in
    real space projection operators read in
  non local Contribution for L=           2  read in
    real space projection operators read in
  non local Contribution for L=           2  read in
    real space projection operators read in
  non local Contribution for L=           0  read in
    real space projection operators read in
  non local Contribution for L=           0  read in
    real space projection operators read in
    PAW grid and wavefunctions read in
 
   number of l-projection  operators is LMAX  =           6
   number of lm-projection operators is LMMAX =          18
 
 POTCAR:    PAW_PBE Ge 05Jan2001                  
   VRHFIN =Ge: s2p2                                                             
   LEXCH  = PE                                                                  
   EATOM  =   104.9960 eV,    7.7170 Ry                                         
                                                                                
   TITEL  = PAW_PBE Ge 05Jan2001                                                
   LULTRA =        F    use ultrasoft PP ?                                      
   IUNSCR =        1    unscreen: 0-lin 1-nonlin 2-no                           
   RPACOR =    2.170    partial core radius                                     
   POMASS =   72.610; ZVAL   =    4.000    mass and valenz                      
   RCORE  =    2.300    outmost cutoff radius                                   
   RWIGS  =    2.300; RWIGS  =    1.217    wigner-seitz radius (au A)           
   ENMAX  =  173.807; ENMIN  =  130.355 eV                                      
   ICORE  =        3    local potential                                         
   LCOR   =        T    correct aug charges                                     
   LPAW   =        T    paw PP                                                  
   EAUG   =  385.843                                                            
   DEXC   =    0.000                                                            
   RMAX   =    2.342    core radius for proj-oper                               
   RAUG   =    1.300    factor for augmentation sphere                          
   RDEP   =    2.318    radius for radial grids                                 
   RDEPT  =    2.103    core radius for aug-charge                              
                                                                                
   Atomic configuration                                                         
   10 entries                                                                   
     n  l   j            E        occ.                                          
     1  0  0.50    -10959.8463   2.0000                                         
     2  0  0.50     -1371.6056   2.0000                                         
     2  1  1.50     -1198.4791   6.0000                                         
     3  0  0.50      -168.4733   2.0000                                         
     3  1  1.50      -115.6019   6.0000                                         
     3  2  2.50       -29.3106  10.0000                                         
     4  0  0.50       -11.7309   2.0000                                         
     4  1  0.50        -3.8952   2.0000                                         
     4  2  1.50        -4.0817   0.0000                                         
     4  3  2.50        -4.0817   0.0000                                         
   Description                                                                  
     l       E           TYP  RCUT    TYP  RCUT                                 
     0    -11.7309493     23  2.300                                             
     0     -7.4578696     23  2.300                                             
     1     -3.8952261     23  2.300                                             
     1      6.1178114     23  2.300                                             
     2     -4.0817478     23  2.300                                             
     3     -1.3605826      7  2.300                                             
  local pseudopotential read in
  partial core-charges read in
  partial kinetic energy density read in
  atomic valenz-charges read in
  non local Contribution for L=           0  read in
    real space projection operators read in
  non local Contribution for L=           0  read in
    real space projection operators read in
  non local Contribution for L=           1  read in
    real space projection operators read in
  non local Contribution for L=           1  read in
    real space projection operators read in
  non local Contribution for L=           2  read in
    real space projection operators read in
    PAW grid and wavefunctions read in
 
   number of l-projection  operators is LMAX  =           5
   number of lm-projection operators is LMMAX =          13
 
 POTCAR:    PAW_PBE S 17Jan2003                   
   VRHFIN =S : s2p4                                                             
   LEXCH  = PE                                                                  
   EATOM  =   276.8230 eV,   20.3459 Ry                                         
                                                                                
   TITEL  = PAW_PBE S 17Jan2003                                                 
   LULTRA =        F    use ultrasoft PP ?                                      
   IUNSCR =        1    unscreen: 0-lin 1-nonlin 2-no                           
   RPACOR =    1.500    partial core radius                                     
   POMASS =   32.066; ZVAL   =    6.000    mass and valenz                      
   RCORE  =    1.900    outmost cutoff radius                                   
   RWIGS  =    2.200; RWIGS  =    1.164    wigner-seitz radius (au A)           
   ENMAX  =  280.000; ENMIN  =  194.016 eV                                      
   ICORE  =        2    local potential                                         
   LCOR   =        T    correct aug charges                                     
   LPAW   =        T    paw PP                                                  
   EAUG   =  335.092                                                            
   DEXC   =     .000                                                            
   RMAX   =    2.867    core radius for proj-oper                               
   RAUG   =    1.300    factor for augmentation sphere                          
   RDEP   =    1.954    radius for radial grids                                 
   QCUT   =   -4.360; QGAM   =    8.721    optimization parameters              
                                                                                
   Description                                                                  
     l     E      TYP  RCUT    TYP  RCUT                                        
     0   .000     23  1.900                                                     
     0   .000     23  1.900                                                     
     1   .000     23  1.900                                                     
     1   .000     23  1.900                                                     
     2   .000     23  1.900                                                     
  local pseudopotential read in
  partial core-charges read in
  atomic valenz-charges read in
  non local Contribution for L=           0  read in
    real space projection operators read in
  non local Contribution for L=           0  read in
    real space projection operators read in
  non local Contribution for L=           1  read in
    real space projection operators read in
  non local Contribution for L=           1  read in
    real space projection operators read in
    PAW grid and wavefunctions read in
 
   number of l-projection  operators is LMAX  =           4
   number of lm-projection operators is LMMAX =           8
 
  PAW_PBE Cu_pv 06Sep2000               :
 energy of atom  1       EATOM=-4120.1201
 kinetic energy error for atom=    0.0996 (will be added to EATOM!!)
  PAW_PBE Ge 05Jan2001                  :
 energy of atom  2       EATOM= -104.9960
 kinetic energy error for atom=    0.0003 (will be added to EATOM!!)
  PAW_PBE S 17Jan2003                   :
 energy of atom  3       EATOM= -276.8230
 kinetic energy error for atom=    0.0046 (will be added to EATOM!!)
 
 
 POSCAR: Cu Ge S                                 
  positions in direct lattice
  No initial velocities read in
 exchange correlation table for  LEXCH =        8
   RHO(1)=    0.500       N(1)  =     2000
   RHO(2)=  100.500       N(2)  =     4000
 


--------------------------------------------------------------------------------------------------------


 ion  position               nearest neighbor table
   1  0.618  0.121  0.118-  11 2.29   9 2.30  12 2.30   8 2.34
   2  0.121  0.618  0.620-  12 2.29   7 2.29   9 2.30  10 2.35
   3  0.963  0.790  0.119-  11 2.30  12 2.30   7 2.31   8 2.36
   4  0.790  0.963  0.619-   7 2.30   9 2.30  11 2.31  10 2.36
   5  0.440  0.267  0.599-   7 2.19   9 2.19  10 2.31   8 2.33
   6  0.267  0.440  0.099-  11 2.19  12 2.19   8 2.31  10 2.33
   7  0.079  0.912  0.497-   5 2.19   2 2.29   4 2.30   3 2.31
   8  0.571  0.412  0.980-   6 2.31   5 2.33   1 2.34   3 2.36
   9  0.737  0.250  0.495-   5 2.19   4 2.30   1 2.30   2 2.30
  10  0.412  0.571  0.480-   5 2.31   6 2.33   2 2.35   4 2.36
  11  0.912  0.079  0.997-   6 2.19   1 2.29   3 2.30   4 2.31
  12  0.250  0.737  0.995-   6 2.19   2 2.29   3 2.30   1 2.30
 
  Warning from LATTYP: Got some problem with cell dimensions!
  Tried to take original basis but could not verify dimensions!
  LATTYP: Found a base centered monoclinic cell.
 ALAT       =     6.4499010947
 B/A-ratio  =     1.7500516418
 C/A-ratio  =     1.9305142024
 COS(beta)  =    -0.4326083233
  
  Lattice vectors:
  
 A1 = (   3.2247960000,   5.6438300000,   0.0315720000)
 A2 = (   3.2247960000,  -5.6438300000,   0.0315720000)
 A3 = ( -10.7972380000,   0.0000000000,  -6.2018250000)


Analysis of symmetry for initial positions (statically):
=====================================================================
 Subroutine PRICEL returns:
 Original cell was already a primitive cell.
 

 Routine SETGRP: Setting up the symmetry group for a 
 base centered monoclinic supercell.


 Subroutine GETGRP returns: Found  1 space group operations
 (whereof  1 operations were pure point group operations)
 out of a pool of  4 trial point group operations.


The static configuration has the point symmetry C_1 .


Analysis of symmetry for dynamics (positions and initial velocities):
=====================================================================
 Subroutine PRICEL returns:
 Original cell was already a primitive cell.
 

 Routine SETGRP: Setting up the symmetry group for a 
 base centered monoclinic supercell.


 Subroutine GETGRP returns: Found  1 space group operations
 (whereof  1 operations were pure point group operations)
 out of a pool of  4 trial point group operations.


The dynamic configuration has the point symmetry C_1 .


 irot  :   1
 --------------------------------------------------------------------
 isymop:   1   0   0
           0   1   0
           0   0   1

 gtrans:     0.0000000     0.0000000     0.0000000

 ptrans:     0.0000000     0.0000000     0.0000000
 rotmap:
 (   1->   1)  (   2->   2)  (   3->   3)  (   4->   4)  (   5->   5) 
 (   6->   6)  (   7->   7)  (   8->   8)  (   9->   9)  (  10->  10) 
 (  11->  11)  (  12->  12) 
 
 
 KPOINTS: pymatgen 4.7.6+ generated KPOINTS with g

Automatic generation of k-mesh.
Space group operators:
 irot       det(A)        alpha          n_x          n_y          n_z        tau_x        tau_y        tau_z
    1     1.000000     0.000000     1.000000     0.000000     0.000000     0.000000     0.000000     0.000000
 
 Subroutine IBZKPT returns following result:
 ===========================================
 
 Found     42 irreducible k-points:
 
 Following reciprocal coordinates:
            Coordinates               Weight
  0.000000  0.000000  0.000000      1.000000
  0.250000  0.000000  0.000000      2.000000
  0.500000  0.000000  0.000000      1.000000
  0.000000  0.250000  0.000000      2.000000
  0.250000  0.250000  0.000000      2.000000
  0.500000  0.250000 -0.000000      2.000000
 -0.250000  0.250000  0.000000      2.000000
  0.000000  0.500000  0.000000      1.000000
  0.250000  0.500000 -0.000000      2.000000
  0.500000  0.500000  0.000000      1.000000
 -0.000000 -0.000000  0.200000      2.000000
  0.250000  0.000000  0.200000      2.000000
  0.500000  0.000000  0.200000      2.000000
 -0.250000 -0.000000  0.200000      2.000000
  0.000000  0.250000  0.200000      2.000000
  0.250000  0.250000  0.200000      2.000000
  0.500000  0.250000  0.200000      2.000000
 -0.250000  0.250000  0.200000      2.000000
  0.000000  0.500000  0.200000      2.000000
  0.250000  0.500000  0.200000      2.000000
  0.500000  0.500000  0.200000      2.000000
 -0.250000  0.500000  0.200000      2.000000
 -0.000000 -0.250000  0.200000      2.000000
  0.250000 -0.250000  0.200000      2.000000
  0.500000 -0.250000  0.200000      2.000000
 -0.250000 -0.250000  0.200000      2.000000
 -0.000000 -0.000000  0.400000      2.000000
  0.250000  0.000000  0.400000      2.000000
  0.500000  0.000000  0.400000      2.000000
 -0.250000  0.000000  0.400000      2.000000
  0.000000  0.250000  0.400000      2.000000
  0.250000  0.250000  0.400000      2.000000
  0.500000  0.250000  0.400000      2.000000
 -0.250000  0.250000  0.400000      2.000000
  0.000000  0.500000  0.400000      2.000000
  0.250000  0.500000  0.400000      2.000000
  0.500000  0.500000  0.400000      2.000000
 -0.250000  0.500000  0.400000      2.000000
  0.000000 -0.250000  0.400000      2.000000
  0.250000 -0.250000  0.400000      2.000000
  0.500000 -0.250000  0.400000      2.000000
 -0.250000 -0.250000  0.400000      2.000000
 
 Following cartesian coordinates:
            Coordinates               Weight
  0.000000  0.000000  0.000000      1.000000
  0.038631 -0.022148  0.013365      2.000000
  0.077263 -0.044296  0.026730      1.000000
  0.038631  0.022148  0.013365      2.000000
  0.077263  0.000000  0.026730      2.000000
  0.115894 -0.022148  0.040096      2.000000
  0.000000  0.044296  0.000000      2.000000
  0.077263  0.044296  0.026730      1.000000
  0.115894  0.022148  0.040096      2.000000
  0.154525  0.000000  0.053461      1.000000
 -0.000321  0.000000  0.032808      2.000000
  0.038310 -0.022148  0.046173      2.000000
  0.076941 -0.044296  0.059538      2.000000
 -0.038952  0.022148  0.019443      2.000000
  0.038310  0.022148  0.046173      2.000000
  0.076941  0.000000  0.059538      2.000000
  0.115573 -0.022148  0.072903      2.000000
 -0.000321  0.044296  0.032808      2.000000
  0.076941  0.044296  0.059538      2.000000
  0.115573  0.022148  0.072903      2.000000
  0.154204  0.000000  0.086269      2.000000
  0.038310  0.066444  0.046173      2.000000
 -0.038952 -0.022148  0.019443      2.000000
 -0.000321 -0.044296  0.032808      2.000000
  0.038310 -0.066444  0.046173      2.000000
 -0.077584  0.000000  0.006077      2.000000
 -0.000642  0.000000  0.065616      2.000000
  0.037989 -0.022148  0.078981      2.000000
  0.076620 -0.044296  0.092346      2.000000
 -0.039274  0.022148  0.052250      2.000000
  0.037989  0.022148  0.078981      2.000000
  0.076620  0.000000  0.092346      2.000000
  0.115251 -0.022148  0.105711      2.000000
 -0.000642  0.044296  0.065616      2.000000
  0.076620  0.044296  0.092346      2.000000
  0.115251  0.022148  0.105711      2.000000
  0.153883  0.000000  0.119076      2.000000
  0.037989  0.066444  0.078981      2.000000
 -0.039274 -0.022148  0.052250      2.000000
 -0.000642 -0.044296  0.065616      2.000000
  0.037989 -0.066444  0.078981      2.000000
 -0.077905  0.000000  0.038885      2.000000
 
 
 Subroutine IBZKPT_HF returns following result:
 ==============================================
 
 Found     80 k-points in 1st BZ
 the following     80 k-points will be used (e.g. in the exchange kernel)
 Following reciprocal coordinates:   # in IRBZ
  0.000000  0.000000  0.000000       1 t-inv F
  0.250000  0.000000  0.000000       2 t-inv F
  0.500000  0.000000  0.000000       3 t-inv F
  0.000000  0.250000  0.000000       4 t-inv F
  0.250000  0.250000  0.000000       5 t-inv F
  0.500000  0.250000 -0.000000       6 t-inv F
 -0.250000  0.250000  0.000000       7 t-inv F
  0.000000  0.500000  0.000000       8 t-inv F
  0.250000  0.500000 -0.000000       9 t-inv F
  0.500000  0.500000  0.000000      10 t-inv F
 -0.000000 -0.000000  0.200000      11 t-inv F
  0.250000  0.000000  0.200000      12 t-inv F
  0.500000  0.000000  0.200000      13 t-inv F
 -0.250000 -0.000000  0.200000      14 t-inv F
  0.000000  0.250000  0.200000      15 t-inv F
  0.250000  0.250000  0.200000      16 t-inv F
  0.500000  0.250000  0.200000      17 t-inv F
 -0.250000  0.250000  0.200000      18 t-inv F
  0.000000  0.500000  0.200000      19 t-inv F
  0.250000  0.500000  0.200000      20 t-inv F
  0.500000  0.500000  0.200000      21 t-inv F
 -0.250000  0.500000  0.200000      22 t-inv F
 -0.000000 -0.250000  0.200000      23 t-inv F
  0.250000 -0.250000  0.200000      24 t-inv F
  0.500000 -0.250000  0.200000      25 t-inv F
 -0.250000 -0.250000  0.200000      26 t-inv F
 -0.000000 -0.000000  0.400000      27 t-inv F
  0.250000  0.000000  0.400000      28 t-inv F
  0.500000  0.000000  0.400000      29 t-inv F
 -0.250000  0.000000  0.400000      30 t-inv F
  0.000000  0.250000  0.400000      31 t-inv F
  0.250000  0.250000  0.400000      32 t-inv F
  0.500000  0.250000  0.400000      33 t-inv F
 -0.250000  0.250000  0.400000      34 t-inv F
  0.000000  0.500000  0.400000      35 t-inv F
  0.250000  0.500000  0.400000      36 t-inv F
  0.500000  0.500000  0.400000      37 t-inv F
 -0.250000  0.500000  0.400000      38 t-inv F
  0.000000 -0.250000  0.400000      39 t-inv F
  0.250000 -0.250000  0.400000      40 t-inv F
  0.500000 -0.250000  0.400000      41 t-inv F
 -0.250000 -0.250000  0.400000      42 t-inv F
 -0.250000 -0.000000 -0.000000       2 t-inv T
 -0.000000 -0.250000 -0.000000       4 t-inv T
 -0.250000 -0.250000  0.000000       5 t-inv T
 -0.500000 -0.250000  0.000000       6 t-inv T
  0.250000 -0.250000  0.000000       7 t-inv T
 -0.250000 -0.500000  0.000000       9 t-inv T
  0.000000  0.000000 -0.200000      11 t-inv T
 -0.250000 -0.000000 -0.200000      12 t-inv T
 -0.500000 -0.000000 -0.200000      13 t-inv T
  0.250000  0.000000 -0.200000      14 t-inv T
 -0.000000 -0.250000 -0.200000      15 t-inv T
 -0.250000 -0.250000 -0.200000      16 t-inv T
 -0.500000 -0.250000 -0.200000      17 t-inv T
  0.250000 -0.250000 -0.200000      18 t-inv T
 -0.000000 -0.500000 -0.200000      19 t-inv T
 -0.250000 -0.500000 -0.200000      20 t-inv T
 -0.500000 -0.500000 -0.200000      21 t-inv T
  0.250000 -0.500000 -0.200000      22 t-inv T
  0.000000  0.250000 -0.200000      23 t-inv T
 -0.250000  0.250000 -0.200000      24 t-inv T
 -0.500000  0.250000 -0.200000      25 t-inv T
  0.250000  0.250000 -0.200000      26 t-inv T
  0.000000  0.000000 -0.400000      27 t-inv T
 -0.250000 -0.000000 -0.400000      28 t-inv T
 -0.500000 -0.000000 -0.400000      29 t-inv T
  0.250000 -0.000000 -0.400000      30 t-inv T
 -0.000000 -0.250000 -0.400000      31 t-inv T
 -0.250000 -0.250000 -0.400000      32 t-inv T
 -0.500000 -0.250000 -0.400000      33 t-inv T
  0.250000 -0.250000 -0.400000      34 t-inv T
 -0.000000 -0.500000 -0.400000      35 t-inv T
 -0.250000 -0.500000 -0.400000      36 t-inv T
 -0.500000 -0.500000 -0.400000      37 t-inv T
  0.250000 -0.500000 -0.400000      38 t-inv T
 -0.000000  0.250000 -0.400000      39 t-inv T
 -0.250000  0.250000 -0.400000      40 t-inv T
 -0.500000  0.250000 -0.400000      41 t-inv T
  0.250000  0.250000 -0.400000      42 t-inv T


--------------------------------------------------------------------------------------------------------




 Dimension of arrays:
   k-points           NKPTS =     42   k-points in BZ     NKDIM =     80   number of bands    NBANDS=     80
   number of dos      NEDOS =    301   number of ions     NIONS =     12
   non local maximal  LDIM  =      6   non local SUM 2l+1 LMDIM =     18
   total plane-waves  NPLWV =  32768
   max r-space proj   IRMAX =      1   max aug-charges    IRDMAX=   8224
   dimension x,y,z NGX =    32 NGY =   32 NGZ =   32
   dimension x,y,z NGXF=    64 NGYF=   64 NGZF=   64
   support grid    NGXF=    64 NGYF=   64 NGZF=   64
   ions per type =               4   2   6
 NGX,Y,Z   is equivalent  to a cutoff of   8.18,  8.18,  8.27 a.u.
 NGXF,Y,Z  is equivalent  to a cutoff of  16.37, 16.37, 16.55 a.u.


 I would recommend the setting:
   dimension x,y,z NGX =    32 NGY =   32 NGZ =   31
 SYSTEM =  CGS                                     
 POSCAR =  Cu Ge S                                 

 Startparameter for this run:
   NWRITE =      2    write-flag & timer
   PREC   = normal    normal or accurate (medium, high low for compatibility)
   ISTART =      1    job   : 0-new  1-cont  2-samecut
   ICHARG =      0    charge: 1-file 2-atom 10-const
   ISPIN  =      1    spin polarized calculation?
   LNONCOLLINEAR =      F non collinear calculations
   LSORBIT =      F    spin-orbit coupling
   INIWAV =      1    electr: 0-lowe 1-rand  2-diag
   LASPH  =      F    aspherical Exc in radial PAW
   METAGGA=      F    non-selfconsistent MetaGGA calc.

 Electronic Relaxation 1
   ENCUT  =  400.0 eV  29.40 Ry    5.42 a.u.  10.60 10.60 10.48*2*pi/ulx,y,z
   ENINI  =  400.0     initial cutoff
   ENAUG  =  758.2 eV  augmentation charge cutoff
   NELM   =     60;   NELMIN=  2; NELMDL=  0     # of ELM steps 
   EDIFF  = 0.1E-04   stopping-criterion for ELM
   LREAL  =      F    real-space projection
   NLSPLINE    = F    spline interpolate recip. space projectors
   LCOMPAT=      F    compatible to vasp.4.4
   GGA_COMPAT  = T    GGA compatible to vasp.4.4-vasp.4.6
   LMAXPAW     = -100 max onsite density
   LMAXMIX     =    2 max onsite mixed and CHGCAR
   VOSKOWN=      0    Vosko Wilk Nusair interpolation
   ROPT   =    0.00000   0.00000   0.00000
 Ionic relaxation
   EDIFFG = 0.1E-03   stopping-criterion for IOM
   NSW    =      0    number of steps for IOM
   NBLOCK =      1;   KBLOCK =      1    inner block; outer block 
   IBRION =     -1    ionic relax: 0-MD 1-quasi-New 2-CG
   NFREE  =      0    steps in history (QN), initial steepest desc. (CG)
   ISIF   =      0    stress and relaxation
   IWAVPR =     10    prediction:  0-non 1-charg 2-wave 3-comb
   ISYM   =      3    0-nonsym 1-usesym 2-fastsym
   LCORR  =      T    Harris-Foulkes like correction to forces

   POTIM  = 0.5000    time-step for ionic-motion
   TEIN   =    0.0    initial temperature
   TEBEG  =    0.0;   TEEND  =   0.0 temperature during run
   SMASS  =  -3.00    Nose mass-parameter (am)
   estimated Nose-frequenzy (Omega)   =  0.10E-29 period in steps =****** mass=  -0.966E-27a.u.
   SCALEE = 1.0000    scale energy and forces
   NPACO  =    256;   APACO  = 16.0  distance and # of slots for P.C.
   PSTRESS=    0.0 pullay stress

  Mass of Ions in am
   POMASS =  63.55 72.61 32.07
  Ionic Valenz
   ZVAL   =  17.00  4.00  6.00
  Atomic Wigner-Seitz radii
   RWIGS  =  -1.00 -1.00 -1.00
  virtual crystal weights 
   VCA    =   1.00  1.00  1.00
   NELECT =     112.0000    total number of electrons
   NUPDOWN=      -1.0000    fix difference up-down

 DOS related values:
   EMIN   =  10.00;   EMAX   =-10.00  energy-range for DOS
   EFERMI =   0.00
   ISMEAR =     1;   SIGMA  =   0.10  broadening in eV -4-tet -1-fermi 0-gaus

 Electronic relaxation 2 (details)
   IALGO  =     53    algorithm
   LDIAG  =      T    sub-space diagonalisation (order eigenvalues)
   LSUBROT=      T    optimize rotation matrix (better conditioning)
   TURBO    =      0    0=normal 1=particle mesh
   IRESTART =      0    0=no restart 2=restart with 2 vectors
   NREBOOT  =      0    no. of reboots
   NMIN     =      0    reboot dimension
   EREF     =   0.00    reference energy to select bands
   IMIX   =      4    mixing-type and parameters
     AMIX     =   0.40;   BMIX     =  1.00
     AMIX_MAG =   1.60;   BMIX_MAG =  1.00
     AMIN     =   0.10
     WC   =   100.;   INIMIX=   1;  MIXPRE=   1;  MAXMIX= -45

 Intra band minimization:
   WEIMIN = 0.0000     energy-eigenvalue tresh-hold
   EBREAK =  0.31E-07  absolut break condition
   DEPER  =   0.30     relativ break condition  

   TIME   =   0.40     timestep for ELM

  volume/ion in A,a.u.               =      18.49       124.79
  Fermi-wavevector in a.u.,A,eV,Ry     =   1.303450  2.463163 23.116052  1.698982
  Thomas-Fermi vector in A             =   2.434451
 
 Write flags
   LWAVE  =      T    write WAVECAR
   LCHARG =      T    write CHGCAR
   LVTOT  =      F    write LOCPOT, total local potential
   LVHAR  =      F    write LOCPOT, Hartree potential only
   LELF   =      F    write electronic localiz. function (ELF)
   LORBIT =      0    0 simple, 1 ext, 2 COOP (PROOUT)


 Dipole corrections
   LMONO  =      F    monopole corrections only (constant potential shift)
   LDIPOL =      F    correct potential (dipole corrections)
   IDIPOL =      0    1-x, 2-y, 3-z, 4-all directions 
   EPSILON=  1.0000000 bulk dielectric constant

 Exchange correlation treatment:
   GGA     =    PE    GGA type
   LEXCH   =     8    internal setting for exchange type
   VOSKOWN=      0    Vosko Wilk Nusair interpolation
   EXXOEP  =     0    0=HF, 1=EXX-LHF (local Hartree Fock) 2=EXX OEP
   LHFCALC =     T    Hartree Fock is set to
   LSYMGRAD=     F    symmetrize gradient (conserves proper symmetry)
   PRECFOCK=fast      Normal, Fast or Accurate (Low or Medium for compatibility)
   LRHFCALC=     F    long range Hartree Fock
   LRSCOR  =     F    long range correlation only (use DFT for short range part)
   LTHOMAS =     F    Thomas Fermi screening in HF
   LMODELHF=     F    short range full HF, long range fraction AEXX
   ENCUT4O =  -1.0   cutoff for four orbital integrals eV
   LMAXFOCK=     4    L truncation for augmentation on plane wave grid
   LMAXFOCKAE=  -1    L truncation for all-electron charge restoration on plane wave grid
   NMAXFOCKAE=   1    number of basis functions for all-electron charge restoration
   LFOCKAEDFT=     F  apply the AE augmentation even for DFT
   NKREDX  =     1    reduce k-point grid by
   NKREDY  =     1    reduce k-point grid by
   NKREDZ  =     1    reduce k-point grid by
   SHIFTRED=     F    shift reduced grid of Gamma
   HFKIDENT=     F    idential grid for each k-point
   ODDONLY =     F    use only odd q-grid points
   EVENONLY=     F    use only even q-grid points
   HFALPHA =   -1.0000 decay constant for conv. correction
   MCALPHA =    0.0000 extent of test-charge in conv. correction in multipole expansion
   AEXX    =    0.2500 exact exchange contribution
   HFSCREEN=    0.2000 screening length (either q_TF or 0.3 A-1)
   HFSCREENC=   0.2000 screening length for correlation (either q_TF or 0.3 A-1)
   HFRCUT  =    0.0000 spherical cutoff for potential kernel
   ALDAX   =    0.7500 LDA exchange part
   AGGAX   =    0.7500 GGA exchange part
   ALDAC   =    1.0000 LDA correlation
   AGGAC   =    1.0000 GGA correlation
   NBANDSGWLOW=     1    first orbital included in HF term
 Linear response parameters
   LEPSILON=     F    determine dielectric tensor
   LRPA    =     F    only Hartree local field effects (RPA)
   LNABLA  =     F    use nabla operator in PAW spheres
   LVEL    =     F    velocity operator in full k-point grid
   LINTERFAST=   F  fast interpolation
   KINTER  =     0    interpolate to denser k-point grid
   CSHIFT  =0.1000    complex shift for real part using Kramers Kronig
   OMEGAMAX=  -1.0    maximum frequency
   DEG_THRESHOLD= 0.2000000E-02 threshold for treating states as degnerate
   RTIME   =    0.100 relaxation time in fs

 Orbital magnetization related:
   ORBITALMAG=     F  switch on orbital magnetization
   LCHIMAG   =     F  perturbation theory with respect to B field
   DQ        =  0.001000  dq finite difference perturbation B field



--------------------------------------------------------------------------------------------------------


 Static calculation
 charge density and potential will be updated during run
 non-spin polarized calculation
 Conjugate gradient for all bands, subspace preconditioning
 perform sub-space diagonalisation
    before iterative eigenvector-optimisation
 modified Broyden-mixing scheme, WC =      100.0
 initial mixing is a Kerker type mixing with AMIX =  0.4000 and BMIX =      1.0000
 Hartree-type preconditioning will be used
 using additional bands           24
 reciprocal scheme for non local part
 use partial core corrections
 no Harris-corrections to forces 
 use gradient corrections 
 use of overlap-Matrix (Vanderbilt PP)
 Methfessel and Paxton  Order N= 1 SIGMA  =   0.10


--------------------------------------------------------------------------------------------------------


  energy-cutoff  :      400.00
  volume of cell :      221.90
      direct lattice vectors                 reciprocal lattice vectors
     3.224796000 -5.643830000  0.031572000     0.154525165 -0.088592321  0.053460880
     3.224796000  5.643830000  0.031572000     0.154525165  0.088592321  0.053460880
    -2.101946000  0.000000000  6.075537000    -0.001606004  0.000000000  0.164038877

  length of vectors
     6.500240234  6.500240234  6.428866683     0.185969598  0.185969598  0.164046738


 
 old parameters found on file WAVECAR:
  energy-cutoff  :      400.00
  volume of cell :      222.35
      direct lattice vectors                 reciprocal lattice vectors
     3.227235519 -5.642745207  0.030241751     0.154430495 -0.088609353  0.053450002
     3.227235519  5.642745207  0.030241751     0.154430495  0.088609353  0.053450002
    -2.106135241  0.000000000  6.085154262    -0.001534965  0.000000000  0.163803104

  length of vectors

 
 k-points in units of 2pi/SCALE and weight: pymatgen 4.7.6+ generated KPOINTS with g
   0.00000000  0.00000000  0.00000000       0.013
   0.03863129 -0.02214808  0.01336522       0.025
   0.07726258 -0.04429616  0.02673044       0.013
   0.03863129  0.02214808  0.01336522       0.025
   0.07726258  0.00000000  0.02673044       0.025
   0.11589387 -0.02214808  0.04009566       0.025
   0.00000000  0.04429616  0.00000000       0.025
   0.07726258  0.04429616  0.02673044       0.013
   0.11589387  0.02214808  0.04009566       0.025
   0.15452516  0.00000000  0.05346088       0.013
  -0.00032120  0.00000000  0.03280778       0.025
   0.03831009 -0.02214808  0.04617300       0.025
   0.07694138 -0.04429616  0.05953822       0.025
  -0.03895249  0.02214808  0.01944256       0.025
   0.03831009  0.02214808  0.04617300       0.025
   0.07694138  0.00000000  0.05953822       0.025
   0.11557267 -0.02214808  0.07290344       0.025
  -0.00032120  0.04429616  0.03280778       0.025
   0.07694138  0.04429616  0.05953822       0.025
   0.11557267  0.02214808  0.07290344       0.025
   0.15420396  0.00000000  0.08626865       0.025
   0.03831009  0.06644424  0.04617300       0.025
  -0.03895249 -0.02214808  0.01944256       0.025
  -0.00032120 -0.04429616  0.03280778       0.025
   0.03831009 -0.06644424  0.04617300       0.025
  -0.07758378  0.00000000  0.00607734       0.025
  -0.00064240  0.00000000  0.06561555       0.025
   0.03798889 -0.02214808  0.07898077       0.025
   0.07662018 -0.04429616  0.09234599       0.025
  -0.03927369  0.02214808  0.05225033       0.025
   0.03798889  0.02214808  0.07898077       0.025
   0.07662018  0.00000000  0.09234599       0.025
   0.11525147 -0.02214808  0.10571121       0.025
  -0.00064240  0.04429616  0.06561555       0.025
   0.07662018  0.04429616  0.09234599       0.025
   0.11525147  0.02214808  0.10571121       0.025
   0.15388276  0.00000000  0.11907643       0.025
   0.03798889  0.06644424  0.07898077       0.025
  -0.03927369 -0.02214808  0.05225033       0.025
  -0.00064240 -0.04429616  0.06561555       0.025
   0.03798889 -0.06644424  0.07898077       0.025
  -0.07790498  0.00000000  0.03888511       0.025
 
 k-points in reciprocal lattice and weights: pymatgen 4.7.6+ generated KPOINTS with g
   0.00000000  0.00000000  0.00000000       0.013
   0.25000000  0.00000000  0.00000000       0.025
   0.50000000  0.00000000  0.00000000       0.013
   0.00000000  0.25000000  0.00000000       0.025
   0.25000000  0.25000000  0.00000000       0.025
   0.50000000  0.25000000 -0.00000000       0.025
  -0.25000000  0.25000000  0.00000000       0.025
   0.00000000  0.50000000  0.00000000       0.013
   0.25000000  0.50000000 -0.00000000       0.025
   0.50000000  0.50000000  0.00000000       0.013
  -0.00000000 -0.00000000  0.20000000       0.025
   0.25000000  0.00000000  0.20000000       0.025
   0.50000000  0.00000000  0.20000000       0.025
  -0.25000000 -0.00000000  0.20000000       0.025
   0.00000000  0.25000000  0.20000000       0.025
   0.25000000  0.25000000  0.20000000       0.025
   0.50000000  0.25000000  0.20000000       0.025
  -0.25000000  0.25000000  0.20000000       0.025
   0.00000000  0.50000000  0.20000000       0.025
   0.25000000  0.50000000  0.20000000       0.025
   0.50000000  0.50000000  0.20000000       0.025
  -0.25000000  0.50000000  0.20000000       0.025
  -0.00000000 -0.25000000  0.20000000       0.025
   0.25000000 -0.25000000  0.20000000       0.025
   0.50000000 -0.25000000  0.20000000       0.025
  -0.25000000 -0.25000000  0.20000000       0.025
  -0.00000000 -0.00000000  0.40000000       0.025
   0.25000000  0.00000000  0.40000000       0.025
   0.50000000  0.00000000  0.40000000       0.025
  -0.25000000  0.00000000  0.40000000       0.025
   0.00000000  0.25000000  0.40000000       0.025
   0.25000000  0.25000000  0.40000000       0.025
   0.50000000  0.25000000  0.40000000       0.025
  -0.25000000  0.25000000  0.40000000       0.025
   0.00000000  0.50000000  0.40000000       0.025
   0.25000000  0.50000000  0.40000000       0.025
   0.50000000  0.50000000  0.40000000       0.025
  -0.25000000  0.50000000  0.40000000       0.025
   0.00000000 -0.25000000  0.40000000       0.025
   0.25000000 -0.25000000  0.40000000       0.025
   0.50000000 -0.25000000  0.40000000       0.025
  -0.25000000 -0.25000000  0.40000000       0.025
 
 position of ions in fractional coordinates (direct lattice) 
   0.61844300  0.12117100  0.11797752
   0.12117100  0.61844300  0.61953300
   0.96295700  0.79032200  0.11881300
   0.79032200  0.96295700  0.61881300
   0.43973200  0.26728100  0.59904700
   0.26728100  0.43973200  0.09904700
   0.07949800  0.91167500  0.49736300
   0.57140300  0.41236400  0.98018400
   0.73711100  0.25006200  0.49504900
   0.41236400  0.57140300  0.48018400
   0.91167500  0.07949800  0.99736300
   0.25006200  0.73711100  0.99504900
 
 position of ions in cartesian coordinates  (Angst):
   2.13712190 -2.80651863  0.74012786
   1.08287936  2.80651863  3.78734676
   5.40422860 -0.97432259  0.77720730
   4.35325560  0.97432259  3.81497580
   1.02080825 -0.97328413  3.66185403
   2.07178125  0.97328413  0.62408553
   2.15090056  4.69666552  3.05304062
   1.11215405 -0.89758908  5.98620365
   2.14286528 -2.74882176  3.03885554
   2.16312705  0.89758908  2.94843515
   1.09992756 -4.69666552  6.09080912
   1.09189228  2.74882176  6.07662404
 


--------------------------------------------------------------------------------------------------------


 k-point  1 :   0.0000 0.0000 0.0000  plane waves:    4051
 k-point  2 :   0.2500 0.0000 0.0000  plane waves:    4032
 k-point  3 :   0.5000 0.0000 0.0000  plane waves:    4030
 k-point  4 :   0.0000 0.2500 0.0000  plane waves:    4032
 k-point  5 :   0.2500 0.2500 0.0000  plane waves:    4038
 k-point  6 :   0.5000 0.2500-0.0000  plane waves:    4037
 k-point  7 :  -0.2500 0.2500 0.0000  plane waves:    4042
 k-point  8 :   0.0000 0.5000 0.0000  plane waves:    4030
 k-point  9 :   0.2500 0.5000-0.0000  plane waves:    4037
 k-point 10 :   0.5000 0.5000 0.0000  plane waves:    4026
 k-point 11 :  -0.0000-0.0000 0.2000  plane waves:    4046
 k-point 12 :   0.2500 0.0000 0.2000  plane waves:    4034
 k-point 13 :   0.5000 0.0000 0.2000  plane waves:    4025
 k-point 14 :  -0.2500-0.0000 0.2000  plane waves:    4044
 k-point 15 :   0.0000 0.2500 0.2000  plane waves:    4034
 k-point 16 :   0.2500 0.2500 0.2000  plane waves:    4017
 k-point 17 :   0.5000 0.2500 0.2000  plane waves:    4039
 k-point 18 :  -0.2500 0.2500 0.2000  plane waves:    4042
 k-point 19 :   0.0000 0.5000 0.2000  plane waves:    4025
 k-point 20 :   0.2500 0.5000 0.2000  plane waves:    4039
 k-point 21 :   0.5000 0.5000 0.2000  plane waves:    4030
 k-point 22 :  -0.2500 0.5000 0.2000  plane waves:    4030
 k-point 23 :  -0.0000-0.2500 0.2000  plane waves:    4044
 k-point 24 :   0.2500-0.2500 0.2000  plane waves:    4042
 k-point 25 :   0.5000-0.2500 0.2000  plane waves:    4030
 k-point 26 :  -0.2500-0.2500 0.2000  plane waves:    4020
 k-point 27 :  -0.0000-0.0000 0.4000  plane waves:    4027
 k-point 28 :   0.2500 0.0000 0.4000  plane waves:    4034
 k-point 29 :   0.5000 0.0000 0.4000  plane waves:    4013
 k-point 30 :  -0.2500 0.0000 0.4000  plane waves:    4042
 k-point 31 :   0.0000 0.2500 0.4000  plane waves:    4034
 k-point 32 :   0.2500 0.2500 0.4000  plane waves:    4009
 k-point 33 :   0.5000 0.2500 0.4000  plane waves:    4026
 k-point 34 :  -0.2500 0.2500 0.4000  plane waves:    4027
 k-point 35 :   0.0000 0.5000 0.4000  plane waves:    4013
 k-point 36 :   0.2500 0.5000 0.4000  plane waves:    4026
 k-point 37 :   0.5000 0.5000 0.4000  plane waves:    4037
 k-point 38 :  -0.2500 0.5000 0.4000  plane waves:    4022
 k-point 39 :   0.0000-0.2500 0.4000  plane waves:    4042
 k-point 40 :   0.2500-0.2500 0.4000  plane waves:    4027
 k-point 41 :   0.5000-0.2500 0.4000  plane waves:    4022
 k-point 42 :  -0.2500-0.2500 0.4000  plane waves:    4015

 maximum and minimum number of plane-waves per node :      4051     4009

 maximum number of plane-waves:      4051
 maximum index in each direction: 
   IXMAX=   10   IYMAX=   10   IZMAX=   10
   IXMIN=  -11   IYMIN=  -11   IZMIN=  -10

 WARNING: aliasing errors must be expected set NGX to  44 to avoid them
 WARNING: aliasing errors must be expected set NGY to  44 to avoid them
 WARNING: aliasing errors must be expected set NGZ to  42 to avoid them
 aliasing errors are usually negligible using standard VASP settings
 and one can safely disregard these warnings

 serial   3D FFT for wavefunctions
 parallel 3D FFT for charge:
    minimum data exchange during FFTs selected (reduces bandwidth)


 FFT grid for exact exchange (Hartree Fock) 
  NGX = 24; NGY = 24; NGZ = 24

 
 Radii for the augmentation spheres in the non-local exchange
 for species   1 augmentation radius   1.120 (default was   0.830)
       energy cutoff for augmentation   1600.0
 for species   2 augmentation radius   1.570 (default was   1.163)
       energy cutoff for augmentation   1600.0
 for species   3 augmentation radius   1.034 (default was   0.970)
       energy cutoff for augmentation   1600.0

 total amount of memory used by VASP on root node   151697. kBytes
========================================================================

   base      :      30000. kBytes
   nonl-proj :      74517. kBytes
   fftplans  :        702. kBytes
   grid      :       2400. kBytes
   one-center:        186. kBytes
   HF        :        194. kBytes
   nonlr-proj:       1122. kBytes
   wavefun   :      42576. kBytes
 
 Broyden mixing: mesh for mixing (old mesh)
   NGX = 21   NGY = 21   NGZ = 21
  (NGX  = 64   NGY  = 64   NGZ  = 64)
  gives a total of   9261 points

 charge density for first step will be calculated from the start-wavefunctions


--------------------------------------------------------------------------------------------------------


 Maximum index for augmentation-charges          485 (set IRDMAX)


--------------------------------------------------------------------------------------------------------


 initial charge from wavefunction
 First call to EWALD:  gamma=   0.293
 Maximum number of real-space cells 3x 3x 3
 Maximum number of reciprocal cells 3x 3x 3

 FEWALD executed in parallel
    FEWALD:  cpu time    0.00: real time    0.00


----------------------------------------- Iteration    1(   1)  ---------------------------------------


    POTLOK:  cpu time    0.05: real time    0.05
    SETDIJ:  cpu time    1.99: real time    1.99
 
    SUBROT:  cpu time    0.80: real time    0.80
    SUBROT:  cpu time    0.37: real time    0.37
    SUBROT:  cpu time    0.41: real time    0.41
    --------------------------------------------
    SUBRT+:  cpu time    1.57: real time    1.58

 Broyden mixing:
  rms(total) = 0.32147E-01    rms(broyden)= 0.32131E-01
  rms(prec ) = 0.47755E-01
  weight for this iteration     100.00

 eigenvalues of (default mixing * dielectric matrix)
  average eigenvalue GAMMA=   1.7468
  1.0449  2.4486
 
    TRIAL :  cpu time  233.93: real time  233.73
    CORREC:  cpu time    0.00: real time    0.00
    CHARGE:  cpu time    0.05: real time    0.06
    --------------------------------------------
      LOOP:  cpu time  236.04: real time  235.85

 eigenvalue-minimisations  :     0
 total energy-change (2. order) : 0.7570287E+02  (-0.2135775E+03)
 number of electron     112.0001512 magnetization 
 augmentation part       38.9139614 magnetization 

 Free energy of the ion-electron system (eV)
  ---------------------------------------------------
  alpha Z        PSCENC =       339.31929130
  Ewald energy   TEWEN  =     -9064.76111523
  -1/2 Hartree   DENC   =     -8066.93758166
  -exchange  EXHF       =       327.44135010
  -V(xc)+E(xc)   XCENC  =       369.89461486
  PAW double counting   =     16958.32573226   -17451.06144575
  entropy T*S    EENTRO =        -0.00145805
  eigenvalues    EBANDS =     -1657.50165645
  atomic energy  EATOM  =     18320.98302006
  ---------------------------------------------------
  free energy    TOTEN  =        75.70287278 eV

  energy without entropy =       75.70433084  energy(sigma->0) =       75.70335880


--------------------------------------------------------------------------------------------------------




----------------------------------------- Iteration    1(   2)  ---------------------------------------


    POTLOK:  cpu time    0.05: real time    0.05
    SETDIJ:  cpu time    1.99: real time    1.98
 
    SUBROT:  cpu time    0.79: real time    0.79
    SUBROT:  cpu time    0.40: real time    0.40
    SUBROT:  cpu time    0.39: real time    0.39
    SUBROT:  cpu time    0.39: real time    0.39
    --------------------------------------------
    SUBRT+:  cpu time    1.97: real time    1.98

 Broyden mixing:
  rms(total) = 0.28387E-01    rms(broyden)= 0.28377E-01
  rms(prec ) = 0.51638E-01
  weight for this iteration     100.00

 eigenvalues of (default mixing * dielectric matrix)
  average eigenvalue GAMMA=   1.5348
  2.5352  1.2196  0.8495
 
    TRIAL :  cpu time  238.71: real time  238.50
    CORREC:  cpu time    0.00: real time    0.00
    CHARGE:  cpu time    0.06: real time    0.06
    --------------------------------------------
      LOOP:  cpu time  240.81: real time  240.61

 eigenvalue-minimisations  :     0
 total energy-change (2. order) :-0.8394625E+02  (-0.1472077E+03)
 number of electron     112.0001414 magnetization 
 augmentation part       35.4412268 magnetization 

 Free energy of the ion-electron system (eV)
  ---------------------------------------------------
  alpha Z        PSCENC =       339.31929130
  Ewald energy   TEWEN  =     -9064.76111523
  -1/2 Hartree   DENC   =     -8370.91298401
  -exchange  EXHF       =       338.96444304
  -V(xc)+E(xc)   XCENC  =       377.33512541
  PAW double counting   =     17433.08645606   -17972.33972793
  entropy T*S    EENTRO =        -0.00116166
  eigenvalues    EBANDS =     -1409.91642949
  atomic energy  EATOM  =     18320.98302006
  ---------------------------------------------------
  free energy    TOTEN  =        -8.24337884 eV

  energy without entropy =       -8.24221718  energy(sigma->0) =       -8.24299162


--------------------------------------------------------------------------------------------------------




----------------------------------------- Iteration    1(   3)  ---------------------------------------


    POTLOK:  cpu time    0.05: real time    0.05
    SETDIJ:  cpu time    1.98: real time    1.98
 
    SUBROT:  cpu time    0.80: real time    0.80
    SUBROT:  cpu time    0.36: real time    0.36
    SUBROT:  cpu time    0.37: real time    0.37
    SUBROT:  cpu time    0.36: real time    0.36
    --------------------------------------------
    SUBRT+:  cpu time    1.89: real time    1.90

 Broyden mixing:
  rms(total) = 0.28087E-01    rms(broyden)= 0.28076E-01
  rms(prec ) = 0.52366E-01
  weight for this iteration     100.00

 eigenvalues of (default mixing * dielectric matrix)
  average eigenvalue GAMMA=   1.7752
  1.0114  2.4989  1.8151
 
    TRIAL :  cpu time  234.69: real time  234.53
    CORREC:  cpu time    0.00: real time    0.00
    CHARGE:  cpu time    0.06: real time    0.06
    --------------------------------------------
      LOOP:  cpu time  236.78: real time  236.63

 eigenvalue-minimisations  :     0
 total energy-change (2. order) :-0.6622357E+01  (-0.2063303E+03)
 number of electron     112.0001544 magnetization 
 augmentation part       39.6958562 magnetization 

 Free energy of the ion-electron system (eV)
  ---------------------------------------------------
  alpha Z        PSCENC =       339.31929130
  Ewald energy   TEWEN  =     -9064.76111523
  -1/2 Hartree   DENC   =     -7473.89635556
  -exchange  EXHF       =       324.91164013
  -V(xc)+E(xc)   XCENC  =       357.32362248
  PAW double counting   =     15149.43205835   -15578.74413773
  entropy T*S    EENTRO =         0.00024031
  eigenvalues    EBANDS =     -2389.43259757
  atomic energy  EATOM  =     18320.98302006
  ---------------------------------------------------
  free energy    TOTEN  =       -14.86573543 eV

  energy without entropy =      -14.86597574  energy(sigma->0) =      -14.86581553


--------------------------------------------------------------------------------------------------------




----------------------------------------- Iteration    1(   4)  ---------------------------------------


    POTLOK:  cpu time    0.10: real time    0.10
    SETDIJ:  cpu time    1.96: real time    1.96
 
    SUBROT:  cpu time    0.77: real time    0.77
    SUBROT:  cpu time    0.37: real time    0.37
    SUBROT:  cpu time    0.37: real time    0.37
    SUBROT:  cpu time    0.37: real time    0.37
    SUBROT:  cpu time    0.38: real time    0.38
    --------------------------------------------
    SUBRT+:  cpu time    2.27: real time    2.28

 Broyden mixing:
  rms(total) = 0.12853E+00    rms(broyden)= 0.12832E+00
  rms(prec ) = 0.22571E+00
  weight for this iteration     100.00

 eigenvalues of (default mixing * dielectric matrix)
  average eigenvalue GAMMA=   1.1816
  2.5269  1.2080  0.6203  0.3711
 
    TRIAL :  cpu time  239.84: real time  239.64
    CORREC:  cpu time    0.00: real time    0.00
    CHARGE:  cpu time    0.06: real time    0.06
    --------------------------------------------
      LOOP:  cpu time  241.97: real time  241.76

 eigenvalue-minimisations  :     0
 total energy-change (2. order) :-0.7459335E+01  (-0.1080828E+03)
 number of electron     112.0001461 magnetization 
 augmentation part       37.2358394 magnetization 

 Free energy of the ion-electron system (eV)
  ---------------------------------------------------
  alpha Z        PSCENC =       339.31929130
  Ewald energy   TEWEN  =     -9064.76111523
  -1/2 Hartree   DENC   =     -8545.57284126
  -exchange  EXHF       =       343.02079533
  -V(xc)+E(xc)   XCENC  =       381.71370308
  PAW double counting   =     17644.41823795   -18225.71560379
  entropy T*S    EENTRO =         0.00037447
  eigenvalues    EBANDS =     -1215.73079774
  atomic energy  EATOM  =     18320.98302006
  ---------------------------------------------------
  free energy    TOTEN  =       -22.32506999 eV

  energy without entropy =      -22.32544446  energy(sigma->0) =      -22.32519481


--------------------------------------------------------------------------------------------------------




----------------------------------------- Iteration    1(   5)  ---------------------------------------


    POTLOK:  cpu time    0.05: real time    0.05
    SETDIJ:  cpu time    1.96: real time    1.96
 
    SUBROT:  cpu time    0.79: real time    0.79
    SUBROT:  cpu time    0.37: real time    0.37
    SUBROT:  cpu time    0.37: real time    0.37
    SUBROT:  cpu time    0.38: real time    0.38
    --------------------------------------------
    SUBRT+:  cpu time    1.90: real time    1.90

 Broyden mixing:
  rms(total) = 0.47572E-01    rms(broyden)= 0.47561E-01
  rms(prec ) = 0.96175E-01
  weight for this iteration     100.00

 eigenvalues of (default mixing * dielectric matrix)
  average eigenvalue GAMMA=   1.6805
  2.4593  0.9356  1.6466
 
    TRIAL :  cpu time  237.96: real time  237.75
    CORREC:  cpu time    0.00: real time    0.00
    CHARGE:  cpu time    0.05: real time    0.05
    --------------------------------------------
      LOOP:  cpu time  240.03: real time  239.82

 eigenvalue-minimisations  :     0
 total energy-change (2. order) :-0.3843355E+02  (-0.1513775E+02)
 number of electron     112.0001460 magnetization 
 augmentation part       37.2397829 magnetization 

 Free energy of the ion-electron system (eV)
  ---------------------------------------------------
  alpha Z        PSCENC =       339.31929130
  Ewald energy   TEWEN  =     -9064.76111523
  -1/2 Hartree   DENC   =     -8005.66923762
  -exchange  EXHF       =       336.33224241
  -V(xc)+E(xc)   XCENC  =       368.34595639
  PAW double counting   =     15867.28239714   -16336.59332569
  entropy T*S    EENTRO =         0.00060171
  eigenvalues    EBANDS =     -1885.99822641
  atomic energy  EATOM  =     18320.98302006
  ---------------------------------------------------
  free energy    TOTEN  =       -60.75862317 eV

  energy without entropy =      -60.75922488  energy(sigma->0) =      -60.75882374


--------------------------------------------------------------------------------------------------------




----------------------------------------- Iteration    1(   6)  ---------------------------------------


    POTLOK:  cpu time    0.07: real time    0.07
    SETDIJ:  cpu time    1.96: real time    1.96
 
    SUBROT:  cpu time    0.77: real time    0.77
    SUBROT:  cpu time    0.38: real time    0.38
    SUBROT:  cpu time    0.38: real time    0.38
    SUBROT:  cpu time    0.38: real time    0.38
    --------------------------------------------
    SUBRT+:  cpu time    1.91: real time    1.91

 Broyden mixing:
  rms(total) = 0.28259E-02    rms(broyden)= 0.28253E-02
  rms(prec ) = 0.46465E-02
  weight for this iteration     100.00

 eigenvalues of (default mixing * dielectric matrix)
  average eigenvalue GAMMA=   1.8198
  0.9991  1.9306  2.5297
 
    TRIAL :  cpu time  237.91: real time  237.69
    CORREC:  cpu time    0.00: real time    0.00
    CHARGE:  cpu time    0.05: real time    0.05
    --------------------------------------------
      LOOP:  cpu time  239.99: real time  239.78

 eigenvalue-minimisations  :     0
 total energy-change (2. order) :-0.5127816E+01  (-0.8285751E+01)
 number of electron     112.0001491 magnetization 
 augmentation part       38.2311690 magnetization 

 Free energy of the ion-electron system (eV)
  ---------------------------------------------------
  alpha Z        PSCENC =       339.31929130
  Ewald energy   TEWEN  =     -9064.76111523
  -1/2 Hartree   DENC   =     -7998.94986818
  -exchange  EXHF       =       337.09558004
  -V(xc)+E(xc)   XCENC  =       368.74023980
  PAW double counting   =     15769.01041931   -16238.04638362
  entropy T*S    EENTRO =         0.00066416
  eigenvalues    EBANDS =     -1899.27822486
  atomic energy  EATOM  =     18320.98302006
  ---------------------------------------------------
  free energy    TOTEN  =       -65.88643966 eV

  energy without entropy =      -65.88710383  energy(sigma->0) =      -65.88666105


--------------------------------------------------------------------------------------------------------




----------------------------------------- Iteration    1(   7)  ---------------------------------------


    POTLOK:  cpu time    0.05: real time    0.05
    SETDIJ:  cpu time    1.98: real time    1.97
 
    SUBROT:  cpu time    0.77: real time    0.77
    SUBROT:  cpu time    0.36: real time    0.36
    SUBROT:  cpu time    0.37: real time    0.37
    SUBROT:  cpu time    0.36: real time    0.36
    --------------------------------------------
    SUBRT+:  cpu time    1.87: real time    1.88

 Broyden mixing:
  rms(total) = 0.13439E-01    rms(broyden)= 0.13435E-01
  rms(prec ) = 0.23878E-01
  weight for this iteration     100.00

 eigenvalues of (default mixing * dielectric matrix)
  average eigenvalue GAMMA=   1.6113
  2.5033  0.8867  1.4439
 
    TRIAL :  cpu time  236.22: real time  236.02
    CORREC:  cpu time    0.00: real time    0.00
    CHARGE:  cpu time    0.05: real time    0.05
    --------------------------------------------
      LOOP:  cpu time  238.30: real time  238.10

 eigenvalue-minimisations  :     0
 total energy-change (2. order) :-0.1558192E+01  (-0.4192531E+01)
 number of electron     112.0001474 magnetization 
 augmentation part       37.7031806 magnetization 

 Free energy of the ion-electron system (eV)
  ---------------------------------------------------
  alpha Z        PSCENC =       339.31929130
  Ewald energy   TEWEN  =     -9064.76111523
  -1/2 Hartree   DENC   =     -8243.73655064
  -exchange  EXHF       =       341.61781423
  -V(xc)+E(xc)   XCENC  =       374.57381106
  PAW double counting   =     16210.19196645   -16713.82875142
  entropy T*S    EENTRO =         0.00044284
  eigenvalues    EBANDS =     -1631.80478195
  atomic energy  EATOM  =     18320.98302006
  ---------------------------------------------------
  free energy    TOTEN  =       -67.44463198 eV

  energy without entropy =      -67.44507482  energy(sigma->0) =      -67.44477959


--------------------------------------------------------------------------------------------------------




----------------------------------------- Iteration    1(   8)  ---------------------------------------


    POTLOK:  cpu time    0.05: real time    0.05
    SETDIJ:  cpu time    1.99: real time    1.99
 
    SUBROT:  cpu time    0.75: real time    0.76
    SUBROT:  cpu time    0.37: real time    0.37
    SUBROT:  cpu time    0.38: real time    0.38
    SUBROT:  cpu time    0.38: real time    0.38
    --------------------------------------------
    SUBRT+:  cpu time    1.89: real time    1.89

 Broyden mixing:
  rms(total) = 0.85303E-02    rms(broyden)= 0.85277E-02
  rms(prec ) = 0.14315E-01
  weight for this iteration     100.00

 eigenvalues of (default mixing * dielectric matrix)
  average eigenvalue GAMMA=   1.6721
  2.4568  0.9457  1.6137
 
    TRIAL :  cpu time  234.44: real time  234.23
    CORREC:  cpu time    0.00: real time    0.00
    CHARGE:  cpu time    0.08: real time    0.08
    --------------------------------------------
      LOOP:  cpu time  236.56: real time  236.36

 eigenvalue-minimisations  :     0
 total energy-change (2. order) :-0.1634181E+01  (-0.7795743E+00)
 number of electron     112.0001474 magnetization 
 augmentation part       37.7233695 magnetization 

 Free energy of the ion-electron system (eV)
  ---------------------------------------------------
  alpha Z        PSCENC =       339.31929130
  Ewald energy   TEWEN  =     -9064.76111523
  -1/2 Hartree   DENC   =     -8115.88413539
  -exchange  EXHF       =       339.50095981
  -V(xc)+E(xc)   XCENC  =       371.36370568
  PAW double counting   =     15915.64182808   -16396.97885112
  entropy T*S    EENTRO =         0.00074624
  eigenvalues    EBANDS =     -1778.26395871
  atomic energy  EATOM  =     18320.98302006
  ---------------------------------------------------
  free energy    TOTEN  =       -69.07881268 eV

  energy without entropy =      -69.07955892  energy(sigma->0) =      -69.07906142


--------------------------------------------------------------------------------------------------------




----------------------------------------- Iteration    1(   9)  ---------------------------------------


    POTLOK:  cpu time    0.05: real time    0.05
    SETDIJ:  cpu time    1.96: real time    1.96
 
    SUBROT:  cpu time    0.81: real time    0.81
    SUBROT:  cpu time    0.38: real time    0.38
    SUBROT:  cpu time    0.39: real time    0.39
    SUBROT:  cpu time    0.38: real time    0.38
    --------------------------------------------
    SUBRT+:  cpu time    1.95: real time    1.95

 Broyden mixing:
  rms(total) = 0.52208E-03    rms(broyden)= 0.52145E-03
  rms(prec ) = 0.83587E-03
  weight for this iteration     100.00

 eigenvalues of (default mixing * dielectric matrix)
  average eigenvalue GAMMA=   1.6660
  2.5150  0.9979  1.4850
 
    TRIAL :  cpu time  234.33: real time  234.12
    CORREC:  cpu time    0.00: real time    0.00
    CHARGE:  cpu time    0.06: real time    0.06
    --------------------------------------------
      LOOP:  cpu time  236.40: real time  236.20

 eigenvalue-minimisations  :     0
 total energy-change (2. order) :-0.3142647E+00  (-0.3909862E+00)
 number of electron     112.0001481 magnetization 
 augmentation part       37.9064614 magnetization 

 Free energy of the ion-electron system (eV)
  ---------------------------------------------------
  alpha Z        PSCENC =       339.31929130
  Ewald energy   TEWEN  =     -9064.76111523
  -1/2 Hartree   DENC   =     -8123.96486981
  -exchange  EXHF       =       339.58543910
  -V(xc)+E(xc)   XCENC  =       371.43594361
  PAW double counting   =     15912.50514182   -16393.73885521
  entropy T*S    EENTRO =         0.00088393
  eigenvalues    EBANDS =     -1770.75781927
  atomic energy  EATOM  =     18320.98302006
  ---------------------------------------------------
  free energy    TOTEN  =       -69.39307739 eV

  energy without entropy =      -69.39396132  energy(sigma->0) =      -69.39337203


--------------------------------------------------------------------------------------------------------




----------------------------------------- Iteration    1(  10)  ---------------------------------------


    POTLOK:  cpu time    0.10: real time    0.10
    SETDIJ:  cpu time    1.98: real time    1.98
 
    SUBROT:  cpu time    0.79: real time    0.79
    SUBROT:  cpu time    0.39: real time    0.40
    SUBROT:  cpu time    0.40: real time    0.40
    SUBROT:  cpu time    0.40: real time    0.40
    --------------------------------------------
    SUBRT+:  cpu time    1.98: real time    1.99

 Broyden mixing:
  rms(total) = 0.23269E-02    rms(broyden)= 0.23264E-02
  rms(prec ) = 0.38978E-02
  weight for this iteration     100.00

 eigenvalues of (default mixing * dielectric matrix)
  average eigenvalue GAMMA=   1.6768
  2.4766  0.9872  1.5667
 
    TRIAL :  cpu time  234.60: real time  234.40
    CORREC:  cpu time    0.00: real time    0.00
    CHARGE:  cpu time    0.07: real time    0.07
    --------------------------------------------
      LOOP:  cpu time  236.76: real time  236.56

 eigenvalue-minimisations  :     0
 total energy-change (2. order) :-0.1047719E+00  (-0.1543356E+00)
 number of electron     112.0001478 magnetization 
 augmentation part       37.8184046 magnetization 

 Free energy of the ion-electron system (eV)
  ---------------------------------------------------
  alpha Z        PSCENC =       339.31929130
  Ewald energy   TEWEN  =     -9064.76111523
  -1/2 Hartree   DENC   =     -8171.85425285
  -exchange  EXHF       =       340.40009013
  -V(xc)+E(xc)   XCENC  =       372.54516018
  PAW double counting   =     15995.10013444   -16483.11097212
  entropy T*S    EENTRO =         0.00072979
  eigenvalues    EBANDS =     -1718.12008913
  atomic energy  EATOM  =     18320.98302006
  ---------------------------------------------------
  free energy    TOTEN  =       -69.49784930 eV

  energy without entropy =      -69.49857908  energy(sigma->0) =      -69.49809256


--------------------------------------------------------------------------------------------------------




----------------------------------------- Iteration    1(  11)  ---------------------------------------


    POTLOK:  cpu time    0.05: real time    0.05
    SETDIJ:  cpu time    1.98: real time    1.98
 
    SUBROT:  cpu time    0.81: real time    0.81
    SUBROT:  cpu time    0.39: real time    0.39
    SUBROT:  cpu time    0.39: real time    0.39
    SUBROT:  cpu time    0.39: real time    0.39
    --------------------------------------------
    SUBRT+:  cpu time    1.97: real time    1.99

 Broyden mixing:
  rms(total) = 0.79322E-03    rms(broyden)= 0.79296E-03
  rms(prec ) = 0.15868E-02
  weight for this iteration     100.00

 eigenvalues of (default mixing * dielectric matrix)
  average eigenvalue GAMMA=   1.6698
  2.4946  0.9840  1.5306
 
    TRIAL :  cpu time  234.64: real time  234.44
    CORREC:  cpu time    0.00: real time    0.00
    CHARGE:  cpu time    0.08: real time    0.09
    --------------------------------------------
      LOOP:  cpu time  236.76: real time  236.56

 eigenvalue-minimisations  :     0
 total energy-change (2. order) :-0.7050296E-01  (-0.3708121E-01)
 number of electron     112.0001477 magnetization 
 augmentation part       37.7854992 magnetization 

 Free energy of the ion-electron system (eV)
  ---------------------------------------------------
  alpha Z        PSCENC =       339.31929130
  Ewald energy   TEWEN  =     -9064.76111523
  -1/2 Hartree   DENC   =     -8150.26805404
  -exchange  EXHF       =       340.06916043
  -V(xc)+E(xc)   XCENC  =       372.06697862
  PAW double counting   =     15942.44310715   -16427.37221402
  entropy T*S    EENTRO =         0.00061487
  eigenvalues    EBANDS =     -1742.04925632
  atomic energy  EATOM  =     18320.98302006
  ---------------------------------------------------
  free energy    TOTEN  =       -69.56835226 eV

  energy without entropy =      -69.56896713  energy(sigma->0) =      -69.56855722


--------------------------------------------------------------------------------------------------------




----------------------------------------- Iteration    1(  12)  ---------------------------------------


    POTLOK:  cpu time    0.10: real time    0.10
    SETDIJ:  cpu time    1.97: real time    1.97
 
    SUBROT:  cpu time    0.81: real time    0.82
    SUBROT:  cpu time    0.40: real time    0.40
    SUBROT:  cpu time    0.39: real time    0.39
    SUBROT:  cpu time    0.39: real time    0.39
    --------------------------------------------
    SUBRT+:  cpu time    1.99: real time    2.00

 Broyden mixing:
  rms(total) = 0.21244E-03    rms(broyden)= 0.21235E-03
  rms(prec ) = 0.46062E-03
  weight for this iteration     100.00

 eigenvalues of (default mixing * dielectric matrix)
  average eigenvalue GAMMA=   1.6237
  2.5082  0.9982  1.3647
 
    TRIAL :  cpu time  234.60: real time  234.40
    CORREC:  cpu time    0.00: real time    0.00
    CHARGE:  cpu time    0.08: real time    0.08
    --------------------------------------------
      LOOP:  cpu time  236.75: real time  236.57

 eigenvalue-minimisations  :     0
 total energy-change (2. order) :-0.1237441E-01  (-0.2314463E-01)
 number of electron     112.0001478 magnetization 
 augmentation part       37.8261777 magnetization 

 Free energy of the ion-electron system (eV)
  ---------------------------------------------------
  alpha Z        PSCENC =       339.31929130
  Ewald energy   TEWEN  =     -9064.76111523
  -1/2 Hartree   DENC   =     -8141.86607906
  -exchange  EXHF       =       339.95283443
  -V(xc)+E(xc)   XCENC  =       371.89138159
  PAW double counting   =     15920.39323831   -16404.23214494
  entropy T*S    EENTRO =         0.00056203
  eigenvalues    EBANDS =     -1751.26176799
  atomic energy  EATOM  =     18320.98302006
  ---------------------------------------------------
  free energy    TOTEN  =       -69.58072667 eV

  energy without entropy =      -69.58128870  energy(sigma->0) =      -69.58091401


--------------------------------------------------------------------------------------------------------




----------------------------------------- Iteration    1(  13)  ---------------------------------------


    POTLOK:  cpu time    0.05: real time    0.05
    SETDIJ:  cpu time    1.98: real time    1.98
 
    SUBROT:  cpu time    0.81: real time    0.81
    SUBROT:  cpu time    0.40: real time    0.40
    SUBROT:  cpu time    0.39: real time    0.39
    SUBROT:  cpu time    0.39: real time    0.39
    --------------------------------------------
    SUBRT+:  cpu time    1.99: real time    2.01

 Broyden mixing:
  rms(total) = 0.56057E-03    rms(broyden)= 0.56045E-03
  rms(prec ) = 0.95324E-03
  weight for this iteration     100.00

 eigenvalues of (default mixing * dielectric matrix)
  average eigenvalue GAMMA=   1.6901
  2.4812  0.9959  1.5931
 
    TRIAL :  cpu time  234.49: real time  234.29
    CORREC:  cpu time    0.00: real time    0.00
    CHARGE:  cpu time    0.08: real time    0.09
    --------------------------------------------
      LOOP:  cpu time  236.62: real time  236.42

 eigenvalue-minimisations  :     0
 total energy-change (2. order) :-0.9790351E-02  (-0.5170944E-02)
 number of electron     112.0001478 magnetization 
 augmentation part       37.8300700 magnetization 

 Free energy of the ion-electron system (eV)
  ---------------------------------------------------
  alpha Z        PSCENC =       339.31929130
  Ewald energy   TEWEN  =     -9064.76111523
  -1/2 Hartree   DENC   =     -8151.84704655
  -exchange  EXHF       =       340.12654282
  -V(xc)+E(xc)   XCENC  =       372.12729320
  PAW double counting   =     15936.63194795   -16421.97888638
  entropy T*S    EENTRO =         0.00054998
  eigenvalues    EBANDS =     -1740.19212621
  atomic energy  EATOM  =     18320.98302006
  ---------------------------------------------------
  free energy    TOTEN  =       -69.59051702 eV

  energy without entropy =      -69.59106700  energy(sigma->0) =      -69.59070035


--------------------------------------------------------------------------------------------------------




----------------------------------------- Iteration    1(  14)  ---------------------------------------


    POTLOK:  cpu time    0.05: real time    0.05
    SETDIJ:  cpu time    1.98: real time    1.98
 
    SUBROT:  cpu time    0.81: real time    0.81
    SUBROT:  cpu time    0.40: real time    0.39
    SUBROT:  cpu time    0.39: real time    0.39
    SUBROT:  cpu time    0.39: real time    0.39
    --------------------------------------------
    SUBRT+:  cpu time    1.99: real time    2.00

 Broyden mixing:
  rms(total) = 0.70250E-04    rms(broyden)= 0.70235E-04
  rms(prec ) = 0.14366E-03
  weight for this iteration     100.00

 eigenvalues of (default mixing * dielectric matrix)
  average eigenvalue GAMMA=   1.6407
  2.5190  0.9887  1.4146
 
    TRIAL :  cpu time  234.46: real time  234.26
    CORREC:  cpu time    0.00: real time    0.00
    CHARGE:  cpu time    0.09: real time    0.09
    --------------------------------------------
      LOOP:  cpu time  236.57: real time  236.38

 eigenvalue-minimisations  :     0
 total energy-change (2. order) :-0.2486383E-02  (-0.3831516E-02)
 number of electron     112.0001478 magnetization 
 augmentation part       37.8123641 magnetization 

 Free energy of the ion-electron system (eV)
  ---------------------------------------------------
  alpha Z        PSCENC =       339.31929130
  Ewald energy   TEWEN  =     -9064.76111523
  -1/2 Hartree   DENC   =     -8152.36912831
  -exchange  EXHF       =       340.12426327
  -V(xc)+E(xc)   XCENC  =       372.13648082
  PAW double counting   =     15934.49243418   -16420.00524130
  entropy T*S    EENTRO =         0.00056866
  eigenvalues    EBANDS =     -1739.51355816
  atomic energy  EATOM  =     18320.98302006
  ---------------------------------------------------
  free energy    TOTEN  =       -69.59300340 eV

  energy without entropy =      -69.59357206  energy(sigma->0) =      -69.59319295


--------------------------------------------------------------------------------------------------------




----------------------------------------- Iteration    1(  15)  ---------------------------------------


    POTLOK:  cpu time    0.05: real time    0.05
    SETDIJ:  cpu time    1.99: real time    1.99
 
    SUBROT:  cpu time    0.84: real time    0.84
    SUBROT:  cpu time    0.40: real time    0.40
    SUBROT:  cpu time    0.40: real time    0.40
    SUBROT:  cpu time    0.39: real time    0.39
    --------------------------------------------
    SUBRT+:  cpu time    2.02: real time    2.04

 Broyden mixing:
  rms(total) = 0.19444E-03    rms(broyden)= 0.19438E-03
  rms(prec ) = 0.33126E-03
  weight for this iteration     100.00

 eigenvalues of (default mixing * dielectric matrix)
  average eigenvalue GAMMA=   1.6742
  2.4736  0.9884  1.5606
 
    TRIAL :  cpu time  233.40: real time  233.20
    CORREC:  cpu time    0.00: real time    0.00
    CHARGE:  cpu time    0.08: real time    0.08
    --------------------------------------------
      LOOP:  cpu time  235.53: real time  235.34

 eigenvalue-minimisations  :     0
 total energy-change (2. order) :-0.1528629E-02  (-0.1052425E-02)
 number of electron     112.0001478 magnetization 
 augmentation part       37.8167123 magnetization 

 Free energy of the ion-electron system (eV)
  ---------------------------------------------------
  alpha Z        PSCENC =       339.31929130
  Ewald energy   TEWEN  =     -9064.76111523
  -1/2 Hartree   DENC   =     -8147.61038487
  -exchange  EXHF       =       340.03424427
  -V(xc)+E(xc)   XCENC  =       372.02422546
  PAW double counting   =     15922.31079257   -16407.20900402
  entropy T*S    EENTRO =         0.00058167
  eigenvalues    EBANDS =     -1744.68617023
  atomic energy  EATOM  =     18320.98302006
  ---------------------------------------------------
  free energy    TOTEN  =       -69.59453203 eV

  energy without entropy =      -69.59511371  energy(sigma->0) =      -69.59472592


--------------------------------------------------------------------------------------------------------




----------------------------------------- Iteration    1(  16)  ---------------------------------------


    POTLOK:  cpu time    0.05: real time    0.05
    SETDIJ:  cpu time    1.96: real time    1.96
 
    SUBROT:  cpu time    0.81: real time    0.81
    SUBROT:  cpu time    0.39: real time    0.39
    SUBROT:  cpu time    0.39: real time    0.40
    SUBROT:  cpu time    0.39: real time    0.39
    --------------------------------------------
    SUBRT+:  cpu time    1.99: real time    2.01

 Broyden mixing:
  rms(total) = 0.86205E-04    rms(broyden)= 0.86187E-04
  rms(prec ) = 0.14330E-03
  weight for this iteration     100.00

 eigenvalues of (default mixing * dielectric matrix)
  average eigenvalue GAMMA=   1.6876
  2.4860  0.9896  1.5873
 
    TRIAL :  cpu time  233.47: real time  233.28
    CORREC:  cpu time    0.00: real time    0.00
    CHARGE:  cpu time    0.08: real time    0.08
    --------------------------------------------
      LOOP:  cpu time  235.56: real time  235.40

 eigenvalue-minimisations  :     0
 total energy-change (2. order) :-0.5811696E-03  (-0.4158845E-03)
 number of electron     112.0001478 magnetization 
 augmentation part       37.8215674 magnetization 

 Free energy of the ion-electron system (eV)
  ---------------------------------------------------
  alpha Z        PSCENC =       339.31929130
  Ewald energy   TEWEN  =     -9064.76111523
  -1/2 Hartree   DENC   =     -8148.73246300
  -exchange  EXHF       =       340.05287843
  -V(xc)+E(xc)   XCENC  =       372.05156729
  PAW double counting   =     15923.14156153   -16408.23024625
  entropy T*S    EENTRO =         0.00058215
  eigenvalues    EBANDS =     -1743.42018901
  atomic energy  EATOM  =     18320.98302006
  ---------------------------------------------------
  free energy    TOTEN  =       -69.59511320 eV

[...]
     22      -2.2890      2.00000
     23      -1.9511      2.00000
     24      -1.6188      2.00000
     25      -1.2177      2.00000
     26      -1.0064      2.00000
     27      -0.9760      2.00000
     28      -0.7091      2.00000
     29      -0.5536      2.00000
     30      -0.3931      2.00000
     31      -0.2867      2.00000
     32      -0.1976      2.00000
     33      -0.1837      2.00000
     34      -0.1353      2.00000
     35      -0.0193      2.00000
     36       0.0192      2.00000
     37       1.2956      2.00000
     38       1.3082      2.00000
     39       1.3682      2.00000
     40       1.4114      2.00000
     41       1.4510      2.00000
     42       1.4669      2.00000
     43       1.5066      2.00000
     44       1.5490      2.00000
     45       1.7640      2.00000
     46       1.8934      2.00000
     47       1.9833      2.00000
     48       2.1540      2.00000
     49       2.3702      2.00000
     50       2.5760      2.00000
     51       2.7042      2.00000
     52       2.9099      2.00000
     53       3.0137      2.00000
     54       3.2192      2.00000
     55       3.4003      2.00000
     56       3.6557      2.00000
     57       6.3775     -0.00000
     58       6.5189     -0.00000
     59       7.7196      0.00000
     60       7.9012      0.00000
     61       8.2973      0.00000
     62       8.5730      0.00000
     63       9.3253      0.00000
     64       9.8450      0.00000
     65      10.0218      0.00000
     66      10.3537      0.00000
     67      10.5854      0.00000
     68      10.7865      0.00000
     69      10.9786      0.00000
     70      11.2560      0.00000
     71      11.3061      0.00000
     72      11.7028      0.00000
     73      12.2508      0.00000
     74      12.4632      0.00000
     75      13.1002      0.00000
     76      13.4830      0.00000
     77      13.8193      0.00000
     78      14.6911      0.00000
     79      15.0002      0.00000
     80      15.7157      0.00000

 k-point  40 :       0.2500   -0.2500    0.4000
  band No.  band energies     occupation 
      1     -68.6479      2.00000
      2     -68.6445      2.00000
      3     -68.6344      2.00000
      4     -68.6326      2.00000
      5     -68.6126      2.00000
      6     -68.6126      2.00000
      7     -68.5983      2.00000
      8     -68.5951      2.00000
      9     -68.5786      2.00000
     10     -68.5768      2.00000
     11     -68.5616      2.00000
     12     -68.5597      2.00000
     13     -12.2210      2.00000
     14     -11.8201      2.00000
     15     -10.8224      2.00000
     16     -10.6712      2.00000
     17     -10.3483      2.00000
     18     -10.2755      2.00000
     19      -5.4472      2.00000
     20      -5.1168      2.00000
     21      -2.4303      2.00000
     22      -2.1545      2.00000
     23      -2.0191      2.00000
     24      -1.5231      2.00000
     25      -1.3547      2.00000
     26      -1.1656      2.00000
     27      -0.9371      2.00000
     28      -0.8145      2.00000
     29      -0.5838      2.00000
     30      -0.5342      2.00000
     31      -0.2784      2.00000
     32      -0.2411      2.00000
     33      -0.1350      2.00000
     34      -0.0909      2.00000
     35      -0.0225      2.00000
     36       0.0329      2.00000
     37       1.3131      2.00000
     38       1.3454      2.00000
     39       1.3631      2.00000
     40       1.3962      2.00000
     41       1.4516      2.00000
     42       1.4817      2.00000
     43       1.4990      2.00000
     44       1.5647      2.00000
     45       1.8016      2.00000
     46       1.8460      2.00000
     47       1.9596      2.00000
     48       2.1096      2.00000
     49       2.2957      2.00000
     50       2.5309      2.00000
     51       2.6383      2.00000
     52       2.7711      2.00000
     53       2.9293      2.00000
     54       3.1602      2.00000
     55       3.3046      2.00000
     56       3.5745      2.00000
     57       6.5619     -0.00000
     58       6.7181     -0.00000
     59       7.9643      0.00000
     60       8.0023      0.00000
     61       8.7298      0.00000
     62       9.0916      0.00000
     63       9.4585      0.00000
     64       9.8271      0.00000
     65      10.2977      0.00000
     66      10.3665      0.00000
     67      10.7771      0.00000
     68      10.8503      0.00000
     69      11.1137      0.00000
     70      11.2702      0.00000
     71      11.3702      0.00000
     72      11.6190      0.00000
     73      12.0473      0.00000
     74      12.2920      0.00000
     75      12.6523      0.00000
     76      13.1222      0.00000
     77      13.2764      0.00000
     78      14.2430      0.00000
     79      15.6298      0.00000
     80      15.8437      0.00000

 k-point  41 :       0.5000   -0.2500    0.4000
  band No.  band energies     occupation 
      1     -68.6478      2.00000
      2     -68.6444      2.00000
      3     -68.6342      2.00000
      4     -68.6324      2.00000
      5     -68.6126      2.00000
      6     -68.6126      2.00000
      7     -68.5981      2.00000
      8     -68.5950      2.00000
      9     -68.5786      2.00000
     10     -68.5768      2.00000
     11     -68.5616      2.00000
     12     -68.5596      2.00000
     13     -12.0805      2.00000
     14     -11.7780      2.00000
     15     -10.8495      2.00000
     16     -10.7550      2.00000
     17     -10.5312      2.00000
     18     -10.3160      2.00000
     19      -5.4195      2.00000
     20      -4.9408      2.00000
     21      -2.4026      2.00000
     22      -2.1302      2.00000
     23      -1.8640      2.00000
     24      -1.7232      2.00000
     25      -1.4478      2.00000
     26      -1.1210      2.00000
     27      -0.8817      2.00000
     28      -0.6490      2.00000
     29      -0.6008      2.00000
     30      -0.4483      2.00000
     31      -0.2629      2.00000
     32      -0.1862      2.00000
     33      -0.1208      2.00000
     34      -0.0517      2.00000
     35      -0.0209      2.00000
     36       0.0242      2.00000
     37       1.2613      2.00000
     38       1.3160      2.00000
     39       1.4095      2.00000
     40       1.4378      2.00000
     41       1.4844      2.00000
     42       1.4921      2.00000
     43       1.5157      2.00000
     44       1.5743      2.00000
     45       1.7606      2.00000
     46       1.8406      2.00000
     47       2.1181      2.00000
     48       2.1852      2.00000
     49       2.3665      2.00000
     50       2.4617      2.00000
     51       2.4917      2.00000
     52       2.6950      2.00000
     53       2.8233      2.00000
     54       3.0868      2.00000
     55       3.2907      2.00000
     56       3.5239      2.00000
     57       6.4967     -0.00000
     58       6.5851     -0.00000
     59       7.4544      0.00000
     60       7.7181      0.00000
     61       8.5880      0.00000
     62       8.7436      0.00000
     63       9.3009      0.00000
     64       9.5326      0.00000
     65       9.9511      0.00000
     66      10.1858      0.00000
     67      10.6773      0.00000
     68      11.1129      0.00000
     69      11.2493      0.00000
     70      11.5684      0.00000
     71      11.7079      0.00000
     72      11.8959      0.00000
     73      12.3007      0.00000
     74      12.6576      0.00000
     75      13.0093      0.00000
     76      13.2275      0.00000
     77      13.6672      0.00000
     78      14.0776      0.00000
     79      14.4028      0.00000
     80      16.5476      0.00000

 k-point  42 :      -0.2500   -0.2500    0.4000
  band No.  band energies     occupation 
      1     -68.6480      2.00000
      2     -68.6446      2.00000
      3     -68.6342      2.00000
      4     -68.6324      2.00000
      5     -68.6126      2.00000
      6     -68.6126      2.00000
      7     -68.5981      2.00000
      8     -68.5950      2.00000
      9     -68.5785      2.00000
     10     -68.5769      2.00000
     11     -68.5617      2.00000
     12     -68.5598      2.00000
     13     -12.1800      2.00000
     14     -11.7073      2.00000
     15     -10.7180      2.00000
     16     -10.6916      2.00000
     17     -10.5866      2.00000
     18     -10.3903      2.00000
     19      -5.4460      2.00000
     20      -5.0728      2.00000
     21      -2.5096      2.00000
     22      -2.3813      2.00000
     23      -1.9622      2.00000
     24      -1.3699      2.00000
     25      -1.3316      2.00000
     26      -1.0545      2.00000
     27      -0.8316      2.00000
     28      -0.7645      2.00000
     29      -0.4240      2.00000
     30      -0.3379      2.00000
     31      -0.2733      2.00000
     32      -0.2104      2.00000
     33      -0.1437      2.00000
     34      -0.1372      2.00000
     35      -0.0104      2.00000
     36       0.0289      2.00000
     37       1.1727      2.00000
     38       1.3709      2.00000
     39       1.3973      2.00000
     40       1.4526      2.00000
     41       1.4545      2.00000
     42       1.4981      2.00000
     43       1.5171      2.00000
     44       1.5505      2.00000
     45       1.7439      2.00000
     46       1.8192      2.00000
     47       1.9780      2.00000
     48       2.2283      2.00000
     49       2.3983      2.00000
     50       2.6123      2.00000
     51       2.6532      2.00000
     52       2.9147      2.00000
     53       3.0688      2.00000
     54       3.1175      2.00000
     55       3.2863      2.00000
     56       3.5795      2.00000
     57       6.2905     -0.00000
     58       6.3799     -0.00000
     59       7.3587      0.00000
     60       7.5225      0.00000
     61       8.3084      0.00000
     62       8.3330      0.00000
     63       9.1060      0.00000
     64       9.3595      0.00000
     65       9.7162      0.00000
     66       9.9478      0.00000
     67      10.5269      0.00000
     68      10.9889      0.00000
     69      11.4240      0.00000
     70      11.5665      0.00000
     71      12.0179      0.00000
     72      12.2851      0.00000
     73      12.4267      0.00000
     74      12.4748      0.00000
     75      13.0349      0.00000
     76      13.1497      0.00000
     77      14.1395      0.00000
     78      14.4374      0.00000
     79      15.1665      0.00000
     80      15.8670      0.00000


--------------------------------------------------------------------------------------------------------


 soft charge-density along one line, spin component           1
         0         1         2         3         4         5         6         7         8         9
 total charge-density along one line
 
 pseudopotential strength for first ion, spin component:           1
-65.425   0.002   0.006   7.364   0.000  -0.002   0.001   0.007
  0.002 -65.393  -0.004   0.000   7.352   0.001  -0.001  -0.024
  0.006  -0.004 -65.385  -0.002   0.001   7.350  -0.037  -0.001
  7.364   0.000  -0.002   6.110   0.000   0.000   0.002  -0.003
  0.000   7.352   0.001   0.000   6.113  -0.000   0.000   0.007
 -0.002   0.001   7.350   0.000  -0.000   6.114   0.009   0.000
  0.001  -0.001  -0.037   0.002   0.000   0.009  -2.981  -0.003
  0.007  -0.024  -0.001  -0.003   0.007   0.000  -0.003  -2.985
  0.022   0.042   0.009  -0.005  -0.008  -0.003  -0.003   0.008
 -0.001  -0.017   0.007   0.000   0.004  -0.003   0.004   0.007
  0.025   0.000  -0.034  -0.007  -0.000   0.007  -0.000   0.007
  0.002  -0.001  -0.036   0.002   0.000   0.008  -3.628  -0.003
  0.007  -0.023  -0.001  -0.003   0.007   0.000  -0.003  -3.631
  0.022   0.041   0.009  -0.005  -0.008  -0.002  -0.003   0.008
 -0.001  -0.017   0.007   0.000   0.004  -0.003   0.004   0.007
  0.025   0.000  -0.034  -0.007  -0.000   0.006  -0.000   0.007
  0.007  -0.005   0.004  -0.001   0.001  -0.001  -0.001   0.000
  0.015  -0.010   0.009  -0.002   0.001  -0.002  -0.003   0.001
 total augmentation occupancy for first ion, spin component:           1
  2.000  -0.000   0.000  -0.003  -0.000   0.000   0.007  -0.005   0.001  -0.001  -0.005  -0.007   0.005  -0.001   0.001   0.004
 -0.000   2.000  -0.000  -0.000  -0.003   0.000  -0.001   0.005   0.005   0.001   0.000   0.001  -0.005  -0.005  -0.001  -0.000
  0.000  -0.000   2.000   0.000   0.000  -0.003  -0.000  -0.000  -0.001  -0.004  -0.004   0.001   0.000   0.001   0.005   0.005
 -0.003  -0.000   0.000   0.096   0.006  -0.005  -0.339   0.234  -0.074   0.012   0.017   0.285  -0.199   0.058  -0.007  -0.011
 -0.000  -0.003   0.000   0.006   0.101   0.001   0.020  -0.047  -0.438   0.015   0.009  -0.013   0.036   0.370  -0.010  -0.008
  0.000   0.000  -0.003  -0.005   0.001   0.100   0.098  -0.002  -0.012   0.235   0.357  -0.077   0.001   0.010  -0.202  -0.299
  0.007  -0.001  -0.000  -0.339   0.020   0.098   4.020  -0.795   0.095   0.216   0.148  -1.752   0.747  -0.088  -0.181  -0.143
 -0.005   0.005  -0.000   0.234  -0.047  -0.002  -0.795   3.509   0.293   0.152   0.300   0.747  -1.267  -0.215  -0.110  -0.209
  0.001   0.005  -0.001  -0.074  -0.438  -0.012   0.095   0.293   4.680  -0.040  -0.112  -0.088  -0.216  -2.382   0.035   0.081
 -0.001   0.001  -0.004   0.012   0.015   0.235   0.216   0.152  -0.040   3.623   0.794  -0.181  -0.110   0.035  -1.340  -0.756
 -0.005   0.000  -0.004   0.017   0.009   0.357   0.148   0.300  -0.112   0.794   4.006  -0.143  -0.208   0.081  -0.756  -1.756
 -0.007   0.001   0.001   0.285  -0.013  -0.077  -1.752   0.747  -0.088  -0.181  -0.143   1.461  -0.700   0.082   0.152   0.137
  0.005  -0.005   0.000  -0.199   0.036   0.001   0.747  -1.267  -0.216  -0.110  -0.208  -0.700   1.002   0.153   0.075   0.134
 -0.001  -0.005   0.001   0.058   0.370   0.010  -0.088  -0.215  -2.382   0.035   0.081   0.082   0.153   2.061  -0.030  -0.056
  0.001  -0.001   0.005  -0.007  -0.010  -0.202  -0.181  -0.110   0.035  -1.340  -0.756   0.152   0.075  -0.030   1.044   0.718
  0.004  -0.000   0.005  -0.011  -0.008  -0.299  -0.143  -0.209   0.081  -0.756  -1.756   0.137   0.134  -0.056   0.718   1.479
 -0.025   0.015  -0.013  -0.020   0.008  -0.005   0.080  -0.096   0.014   0.001   0.035  -0.064   0.084   0.005  -0.000  -0.003
  0.012  -0.007   0.006   0.001  -0.000  -0.000  -0.008   0.003  -0.008   0.004  -0.020   0.004  -0.005   0.001  -0.000   0.004


------------------------ aborting loop because EDIFF is reached ----------------------------------------


    FORLOC:  cpu time    0.00: real time    0.00
    FORHF :  cpu time  454.86: real time  454.46
    FORNL :  cpu time    0.39: real time    0.39
    FORCOR:  cpu time    2.07: real time    2.07

 VOLUME and BASIS-vectors are now :
 -----------------------------------------------------------------------------
  energy-cutoff  :      400.00
  volume of cell :      221.90
      direct lattice vectors                 reciprocal lattice vectors
     3.224796000 -5.643830000  0.031572000     0.154525165 -0.088592321  0.053460880
     3.224796000  5.643830000  0.031572000     0.154525165  0.088592321  0.053460880
    -2.101946000  0.000000000  6.075537000    -0.001606004  0.000000000  0.164038877

  length of vectors
     6.500240234  6.500240234  6.428866683     0.185969598  0.185969598  0.164046738


 FORCES acting on ions:
    Electron-Ion                     Ewald-Force                    Non-Local-Force
 -----------------------------------------------------------------------------------------------
   -.135E+02 -.974E+02 0.680E+01   0.123E+02 0.950E+02 -.526E+01   0.981E+00 0.213E+01 -.129E+01
   -.134E+02 0.972E+02 0.130E+02   0.122E+02 -.948E+02 -.114E+02   0.104E+01 -.211E+01 -.141E+01
   0.249E+02 -.169E+02 0.330E+01   -.216E+02 0.167E+02 -.201E+01   -.285E+01 0.163E+00 -.112E+01
   0.248E+02 0.169E+02 0.671E+01   -.216E+02 -.167E+02 -.546E+01   -.285E+01 -.169E+00 -.110E+01
   -.111E+02 -.315E+02 -.106E+02   0.105E+02 0.301E+02 0.947E+01   0.683E+00 0.134E+01 0.113E+01
   -.111E+02 0.315E+02 -.114E+02   0.104E+02 -.302E+02 0.103E+02   0.682E+00 -.134E+01 0.113E+01
   -.135E+03 -.996E+01 -.488E+02   0.132E+03 0.100E+02 0.480E+02   0.278E+01 -.279E-01 0.735E+00
   0.698E+02 -.127E+03 0.958E+02   -.681E+02 0.125E+03 -.938E+02   -.157E+01 0.228E+01 -.187E+01
   0.668E+02 -.132E+03 -.471E+02   -.653E+02 0.130E+03 0.461E+02   -.135E+01 0.218E+01 0.882E+00
   0.702E+02 0.126E+03 0.965E+02   -.685E+02 -.123E+03 -.944E+02   -.156E+01 -.230E+01 -.187E+01
   -.136E+03 0.112E+02 -.496E+02   0.133E+03 -.112E+02 0.488E+02   0.279E+01 0.336E-01 0.727E+00
   0.668E+02 0.133E+03 -.507E+02   -.653E+02 -.130E+03 0.497E+02   -.135E+01 -.218E+01 0.870E+00
 -----------------------------------------------------------------------------------------------
   0.281E+01 -.825E-02 0.365E+01   -.142E-13 -.284E-13 -.142E-13   -.257E+01 0.750E-02 -.318E+01
 
 
 POSITION                                       TOTAL-FORCE (eV/Angst)
 -----------------------------------------------------------------------------------
      2.13712     -2.80652      0.74013        -0.017634      0.005557      0.056299
      1.08288      2.80652      3.78735        -0.004034      0.001744     -0.002259
      5.40423     -0.97432      0.77721         0.002831     -0.000898      0.000482
      4.35326      0.97432      3.81498         0.003948      0.000721     -0.002241
      1.02081     -0.97328      3.66185         0.004606      0.001880     -0.005421
      2.07178      0.97328      0.62409         0.002568     -0.005222      0.001993
      2.15090      4.69667      3.05304         0.002103      0.001526     -0.002755
      1.11215     -0.89759      5.98620         0.004806     -0.001219     -0.003093
      2.14287     -2.74882      3.03886        -0.005321      0.005414     -0.032436
      2.16313      0.89759      2.94844        -0.000159      0.007055      0.000030
      1.09993     -4.69667      6.09081         0.007504     -0.015222     -0.008720
      1.09189      2.74882      6.07662        -0.001218     -0.001336     -0.001880
 -----------------------------------------------------------------------------------
    total drift:                               -0.063159     -0.001923     -0.036310


--------------------------------------------------------------------------------------------------------



  FREE ENERGIE OF THE ION-ELECTRON SYSTEM (eV)
  ---------------------------------------------------
  free  energy   TOTEN  =       -69.59546644 eV

  energy  without entropy=      -69.59604221  energy(sigma->0) =      -69.59565836
 


--------------------------------------------------------------------------------------------------------


    POTLOK:  cpu time    2.02: real time    2.18


--------------------------------------------------------------------------------------------------------


 writing wavefunctions
     LOOP+:  cpu time 5445.12: real time 5442.23
    4ORBIT:  cpu time    0.00: real time    0.00

 total amount of memory used by VASP on root node   155705. kBytes
========================================================================

   base      :      30000. kBytes
   nonl-proj :      74517. kBytes
   fftplans  :        702. kBytes
   grid      :       2400. kBytes
   one-center:        186. kBytes
   HF        :        194. kBytes
   nonlr-proj:       5130. kBytes
   wavefun   :      42576. kBytes
 
  
  
 General timing and accounting informations for this job:
 ========================================================
  
                  Total CPU time used (sec):     5483.677
                            User time (sec):     5481.916
                          System time (sec):        1.762
                         Elapsed time (sec):     5486.987
  
                   Maximum memory used (kb):      305784.
                   Average memory used (kb):           0.
  
                          Minor page faults:        80685
                          Major page faults:            0
                 Voluntary context switches:         4579
