<?xml version="1.0" encoding="ISO-8859-1"?>
<modeling>
 <generator>
  <i name="program" type="string">vasp </i>
  <i name="version" type="string">5.3.3  </i>
  <i name="subversion" type="string">18Dez12 (build Nov 13 2015 09:58:40) complex                          parallel </i>
  <i name="platform" type="string">LinuxIFC </i>
  <i name="date" type="string">2017 10 18 </i>
  <i name="time" type="string">13:03:59 </i>
 </generator>
 <incar>
  <i type="string" name="SYSTEM"> CGS</i>
  <i type="string" name="PREC">normal</i>
  <i type="string" name="ALGO"> D</i>
  <i type="logical" name="LDIAG"> T  </i>
  <i name="EDIFF">      0.00001000</i>
  <i name="ENCUT">    400.00000000</i>
  <i name="TIME">      0.40000000</i>
  <i type="int" name="ISMEAR">     1</i>
  <i name="SIGMA">      0.10000000</i>
  <i type="logical" name="LHFCALC"> T  </i>
  <i type="string" name="GGA"> PE</i>
  <i name="HFSCREEN">      0.20000000</i>
  <i name="AEXX">      0.25000000</i>
  <i type="string" name="PRECFOCK">fast</i>
 </incar>
 <kpoints>
  <generation param="Gamma">
   <v type="int" name="divisions">       4        4        5 </v>
   <v name="usershift">      0.00000000       0.00000000       0.00000000 </v>
   <v name="genvec1">      0.25000000       0.00000000       0.00000000 </v>
   <v name="genvec2">      0.00000000       0.25000000       0.00000000 </v>
   <v name="genvec3">      0.00000000       0.00000000       0.20000000 </v>
   <v name="shift">      0.00000000       0.00000000       0.00000000 </v>
  </generation>
  <varray name="kpointlist" >
   <v>       0.00000000       0.00000000       0.00000000 </v>
   <v>       0.25000000       0.00000000       0.00000000 </v>
   <v>       0.50000000       0.00000000       0.00000000 </v>
   <v>       0.00000000       0.25000000       0.00000000 </v>
   <v>       0.25000000       0.25000000       0.00000000 </v>
   <v>       0.50000000       0.25000000      -0.00000000 </v>
   <v>      -0.25000000       0.25000000       0.00000000 </v>
   <v>       0.00000000       0.50000000       0.00000000 </v>
   <v>       0.25000000       0.50000000      -0.00000000 </v>
   <v>       0.50000000       0.50000000       0.00000000 </v>
   <v>      -0.00000000      -0.00000000       0.20000000 </v>
   <v>       0.25000000       0.00000000       0.20000000 </v>
   <v>       0.50000000       0.00000000       0.20000000 </v>
   <v>      -0.25000000      -0.00000000       0.20000000 </v>
   <v>       0.00000000       0.25000000       0.20000000 </v>
   <v>       0.25000000       0.25000000       0.20000000 </v>
   <v>       0.50000000       0.25000000       0.20000000 </v>
   <v>      -0.25000000       0.25000000       0.20000000 </v>
   <v>       0.00000000       0.50000000       0.20000000 </v>
   <v>       0.25000000       0.50000000       0.20000000 </v>
   <v>       0.50000000       0.50000000       0.20000000 </v>
   <v>      -0.25000000       0.50000000       0.20000000 </v>
   <v>      -0.00000000      -0.25000000       0.20000000 </v>
   <v>       0.25000000      -0.25000000       0.20000000 </v>
   <v>       0.50000000      -0.25000000       0.20000000 </v>
   <v>      -0.25000000      -0.25000000       0.20000000 </v>
   <v>      -0.00000000      -0.00000000       0.40000000 </v>
   <v>       0.25000000       0.00000000       0.40000000 </v>
   <v>       0.50000000       0.00000000       0.40000000 </v>
   <v>      -0.25000000       0.00000000       0.40000000 </v>
   <v>       0.00000000       0.25000000       0.40000000 </v>
   <v>       0.25000000       0.25000000       0.40000000 </v>
   <v>       0.50000000       0.25000000       0.40000000 </v>
   <v>      -0.25000000       0.25000000       0.40000000 </v>
   <v>       0.00000000       0.50000000       0.40000000 </v>
   <v>       0.25000000       0.50000000       0.40000000 </v>
   <v>       0.50000000       0.50000000       0.40000000 </v>
   <v>      -0.25000000       0.50000000       0.40000000 </v>
   <v>       0.00000000      -0.25000000       0.40000000 </v>
   <v>       0.25000000      -0.25000000       0.40000000 </v>
   <v>       0.50000000      -0.25000000       0.40000000 </v>
   <v>      -0.25000000      -0.25000000       0.40000000 </v>
  </varray>
  <varray name="weights" >
   <v>       0.01250000 </v>
   <v>       0.02500000 </v>
   <v>       0.01250000 </v>
   <v>       0.02500000 </v>
   <v>       0.02500000 </v>
   <v>       0.02500000 </v>
   <v>       0.02500000 </v>
   <v>       0.01250000 </v>
   <v>       0.02500000 </v>
   <v>       0.01250000 </v>
   <v>       0.02500000 </v>
   <v>       0.02500000 </v>
   <v>       0.02500000 </v>
   <v>       0.02500000 </v>
   <v>       0.02500000 </v>
   <v>       0.02500000 </v>
   <v>       0.02500000 </v>
   <v>       0.02500000 </v>
   <v>       0.02500000 </v>
   <v>       0.02500000 </v>
   <v>       0.02500000 </v>
   <v>       0.02500000 </v>
   <v>       0.02500000 </v>
   <v>       0.02500000 </v>
   <v>       0.02500000 </v>
   <v>       0.02500000 </v>
   <v>       0.02500000 </v>
   <v>       0.02500000 </v>
   <v>       0.02500000 </v>
   <v>       0.02500000 </v>
   <v>       0.02500000 </v>
   <v>       0.02500000 </v>
   <v>       0.02500000 </v>
   <v>       0.02500000 </v>
   <v>       0.02500000 </v>
   <v>       0.02500000 </v>
   <v>       0.02500000 </v>
   <v>       0.02500000 </v>
   <v>       0.02500000 </v>
   <v>       0.02500000 </v>
   <v>       0.02500000 </v>
   <v>       0.02500000 </v>
  </varray>
 </kpoints>
 <parameters>
  <separator name="general" >
   <i type="string" name="SYSTEM">CGS</i>
   <i type="logical" name="LCOMPAT"> F  </i>
  </separator>
  <separator name="electronic" >
   <i type="string" name="PREC">normal</i>
   <i name="ENMAX">    400.00000000</i>
   <i name="ENAUG">    758.23300000</i>
   <i name="EDIFF">      0.00001000</i>
   <i type="int" name="IALGO">    53</i>
   <i type="int" name="IWAVPR">    10</i>
   <i type="int" name="NBANDS">    80</i>
   <i name="NELECT">    112.00000000</i>
   <i type="int" name="TURBO">     0</i>
   <i type="int" name="IRESTART">     0</i>
   <i type="int" name="NREBOOT">     0</i>
   <i type="int" name="NMIN">     0</i>
   <i name="EREF">      0.00000000</i>
   <separator name="electronic smearing" >
    <i type="int" name="ISMEAR">     1</i>
    <i name="SIGMA">      0.10000000</i>
    <i name="KSPACING">      0.50000000</i>
    <i type="logical" name="KGAMMA"> T  </i>
   </separator>
   <separator name="electronic projectors" >
    <i type="logical" name="LREAL"> F  </i>
    <v name="ROPT">      0.00000000      0.00000000      0.00000000</v>
    <i type="int" name="LMAXPAW">  -100</i>
    <i type="int" name="LMAXMIX">     2</i>
    <i type="logical" name="NLSPLINE"> F  </i>
   </separator>
   <separator name="electronic startup" >
    <i type="int" name="ISTART">     1</i>
    <i type="int" name="ICHARG">     0</i>
    <i type="int" name="INIWAV">     1</i>
   </separator>
   <separator name="electronic spin" >
    <i type="int" name="ISPIN">     1</i>
    <i type="logical" name="LNONCOLLINEAR"> F  </i>
    <v name="MAGMOM">      1.00000000      1.00000000      1.00000000      1.00000000      1.00000000      1.00000000      1.00000000      1.00000000      1.00000000      1.00000000      1.00000000      1.00000000</v>
    <i name="NUPDOWN">     -1.00000000</i>
    <i type="logical" name="LSORBIT"> F  </i>
    <v name="SAXIS">      0.00000000      0.00000000      1.00000000</v>
    <i type="logical" name="LSPIRAL"> F  </i>
    <v name="QSPIRAL">      0.00000000      0.00000000      0.00000000</v>
    <i type="logical" name="LZEROZ"> F  </i>
   </separator>
   <separator name="electronic exchange-correlation" >
    <i type="logical" name="LASPH"> F  </i>
    <i type="logical" name="LMETAGGA"> F  </i>
   </separator>
   <separator name="electronic convergence" >
    <i type="int" name="NELM">    60</i>
    <i type="int" name="NELMDL">     0</i>
    <i type="int" name="NELMIN">     2</i>
    <i name="ENINI">    400.00000000</i>
    <separator name="electronic convergence detail" >
     <i type="logical" name="LDIAG"> T  </i>
     <i type="logical" name="LSUBROT"> T  </i>
     <i name="WEIMIN">      0.00000000</i>
     <i name="EBREAK">      0.00000003</i>
     <i name="DEPER">      0.30000000</i>
     <i type="int" name="NRMM">     4</i>
     <i name="TIME">      0.40000000</i>
    </separator>
   </separator>
   <separator name="electronic mixer" >
    <i name="AMIX">      0.40000000</i>
    <i name="BMIX">      1.00000000</i>
    <i name="AMIN">      0.10000000</i>
    <i name="AMIX_MAG">      1.60000000</i>
    <i name="BMIX_MAG">      1.00000000</i>
    <separator name="electronic mixer details" >
     <i type="int" name="IMIX">     4</i>
     <i type="int" name="MAXMIX">   -45</i>
     <i name="WC">    100.00000000</i>
     <i type="int" name="INIMIX">     1</i>
     <i type="int" name="MIXPRE">     1</i>
     <i type="int" name="MREMOVE">     5</i>
    </separator>
   </separator>
   <separator name="electronic dipolcorrection" >
    <i type="logical" name="LDIPOL"> F  </i>
    <i type="logical" name="LMONO"> F  </i>
    <i type="int" name="IDIPOL">     0</i>
    <i name="EPSILON">      1.00000000</i>
    <v name="DIPOL">   -100.00000000   -100.00000000   -100.00000000</v>
    <i name="EFIELD">      0.00000000</i>
   </separator>
  </separator>
  <separator name="grids" >
   <i type="int" name="NGX">    32</i>
   <i type="int" name="NGY">    32</i>
   <i type="int" name="NGZ">    32</i>
   <i type="int" name="NGXF">    64</i>
   <i type="int" name="NGYF">    64</i>
   <i type="int" name="NGZF">    64</i>
   <i type="logical" name="ADDGRID"> F  </i>
  </separator>
  <separator name="ionic" >
   <i type="int" name="NSW">     0</i>
   <i type="int" name="IBRION">    -1</i>
   <i type="int" name="ISIF">     0</i>
   <i name="PSTRESS">      0.00000000</i>
   <i name="EDIFFG">      0.00010000</i>
   <i type="int" name="NFREE">     0</i>
   <i name="POTIM">      0.50000000</i>
   <i name="SMASS">     -3.00000000</i>
   <i name="SCALEE">      1.00000000</i>
  </separator>
  <separator name="ionic md" >
   <i name="TEBEG">      0.00010000</i>
   <i name="TEEND">      0.00010000</i>
   <i type="int" name="NBLOCK">     1</i>
   <i type="int" name="KBLOCK">     1</i>
   <i type="int" name="NPACO">   256</i>
   <i name="APACO">     16.00000000</i>
  </separator>
  <separator name="symmetry" >
   <i type="int" name="ISYM">     3</i>
   <i name="SYMPREC">      0.00001000</i>
  </separator>
  <separator name="dos" >
   <i type="logical" name="LORBIT"> F  </i>
   <v name="RWIGS">     -1.00000000     -1.00000000     -1.00000000</v>
   <i type="int" name="NEDOS">   301</i>
   <i name="EMIN">     10.00000000</i>
   <i name="EMAX">    -10.00000000</i>
   <i name="EFERMI">      0.00000000</i>
  </separator>
  <separator name="writing" >
   <i type="int" name="NWRITE">     2</i>
   <i type="logical" name="LWAVE"> T  </i>
   <i type="logical" name="LCHARG"> T  </i>
   <i type="logical" name="LPARD"> F  </i>
   <i type="logical" name="LVTOT"> F  </i>
   <i type="logical" name="LVHAR"> F  </i>
   <i type="logical" name="LELF"> F  </i>
   <i type="logical" name="LOPTICS"> F  </i>
   <v name="STM">      0.00000000      0.00000000      0.00000000      0.00000000      0.00000000      0.00000000      0.00000000</v>
  </separator>
  <separator name="performance" >
   <i type="int" name="NPAR">    16</i>
   <i type="int" name="NSIM">     4</i>
   <i type="int" name="NBLK">    -1</i>
   <i type="logical" name="LPLANE"> T  </i>
   <i type="logical" name="LSCALAPACK"> T  </i>
   <i type="logical" name="LSCAAWARE"> F  </i>
   <i type="logical" name="LSCALU"> F  </i>
   <i type="logical" name="LASYNC"> F  </i>
   <i type="logical" name="LORBITALREAL"> F  </i>
  </separator>
  <separator name="miscellaneous" >
   <i type="int" name="IDIOT">     3</i>
   <i type="logical" name="LMUSIC"> F  </i>
   <v name="POMASS">     63.54600000     72.61000000     32.06600000</v>
   <v name="DARWINR">      0.00000000      0.00000000      0.00000000</v>
   <v name="DARWINV">      1.00000000      1.00000000      1.00000000</v>
   <i type="logical" name="LCORR"> T  </i>
  </separator>
  <i type="logical" name="GGA_COMPAT"> T  </i>
  <i type="logical" name="LBERRY"> F  </i>
  <i type="int" name="ICORELEVEL">     0</i>
  <i type="logical" name="LDAU"> F  </i>
  <i type="int" name="I_CONSTRAINED_M">     0</i>
  <separator name="electronic exchange-correlation" >
   <i type="string" name="GGA">PE</i>
   <i type="int" name="VOSKOWN">     0</i>
   <i type="logical" name="LHFCALC"> T  </i>
   <i type="string" name="PRECFOCK">fast</i>
   <i type="logical" name="LSYMGRAD"> F  </i>
   <i type="logical" name="LHFONE"> F  </i>
   <i type="logical" name="LRHFCALC"> F  </i>
   <i type="logical" name="LTHOMAS"> F  </i>
   <i type="logical" name="LMODELHF"> F  </i>
   <i name="ENCUT4O">     -1.00000000</i>
   <i type="int" name="EXXOEP">     0</i>
   <i type="int" name="FOURORBIT">     0</i>
   <i name="AEXX">      0.25000000</i>
   <i name="HFALPHA">     -1.00000000</i>
   <i name="MCALPHA">      0.00000000</i>
   <i name="ALDAX">      0.75000000</i>
   <i name="AGGAX">      0.75000000</i>
   <i name="ALDAC">      1.00000000</i>
   <i name="AGGAC">      1.00000000</i>
   <i type="int" name="NKREDX">     1</i>
   <i type="int" name="NKREDY">     1</i>
   <i type="int" name="NKREDZ">     1</i>
   <i type="logical" name="SHIFTRED"> F  </i>
   <i type="logical" name="ODDONLY"> F  </i>
   <i type="logical" name="EVENONLY"> F  </i>
   <i type="int" name="LMAXFOCK">     4</i>
   <i type="int" name="NMAXFOCKAE">     1</i>
   <i type="logical" name="LFOCKAEDFT"> F  </i>
   <i name="HFSCREEN">      0.20000000</i>
   <i name="HFSCREENC">      0.20000000</i>
   <i type="int" name="NBANDSGWLOW">     1</i>
  </separator>
  <separator name="vdW DFT" >
   <i type="logical" name="LUSE_VDW"> F  </i>
   <i name="Zab_VDW">     -0.84910000</i>
   <i name="PARAM1">      0.12340000</i>
   <i name="PARAM2">      1.00000000</i>
   <i name="PARAM3">      0.00000000</i>
  </separator>
  <separator name="model GW" >
   <i type="int" name="MODEL_GW">     0</i>
   <i name="MODEL_EPS0">     11.09505304</i>
   <i name="MODEL_ALPHA">      1.00000000</i>
  </separator>
  <separator name="linear response parameters" >
   <i type="logical" name="LEPSILON"> F  </i>
   <i type="logical" name="LRPA"> F  </i>
   <i type="logical" name="LNABLA"> F  </i>
   <i type="logical" name="LVEL"> F  </i>
   <i type="int" name="KINTER">     0</i>
   <i name="CSHIFT">      0.10000000</i>
   <i name="OMEGAMAX">     -1.00000000</i>
   <i name="DEG_THRESHOLD">      0.00200000</i>
  </separator>
  <separator name="orbital magnetization" >
   <i type="logical" name="NUCIND"> F  </i>
   <v name="MAGPOS">      0.00000000      0.00000000      0.00000000</v>
   <i type="logical" name="LNICSALL"> T  </i>
   <i type="logical" name="ORBITALMAG"> F  </i>
   <i type="logical" name="LMAGBLOCH"> F  </i>
   <i type="logical" name="LCHIMAG"> F  </i>
   <i type="logical" name="LGAUGE"> T  </i>
   <i type="int" name="MAGATOM">     0</i>
   <v name="MAGDIPOL">      0.00000000      0.00000000      0.00000000</v>
   <v name="AVECCONST">      0.00000000      0.00000000      0.00000000</v>
  </separator>
  <separator name="response functions" >
   <i type="logical" name="LADDER"> F  </i>
   <i type="logical" name="LFXC"> F  </i>
   <i type="logical" name="LHARTREE"> T  </i>
   <i type="int" name="IBSE">     0</i>
   <i type="logical" name="LTCTE"> F  </i>
   <i type="logical" name="LTETE"> F  </i>
   <i type="logical" name="LTRIPLET"> F  </i>
   <i type="logical" name="LFXCEPS"> F  </i>
   <i type="logical" name="L2ORDER"> F  </i>
   <i type="logical" name="LUSEW"> F  </i>
   <i name="ENCUTGW">     -2.00000000</i>
   <i name="ENCUTGWSOFT">     -2.00000000</i>
   <i name="ENCUTLF">     -1.00000000</i>
   <i type="int" name="LMAXMP2">    -1</i>
   <i name="SCISSOR">      0.00000000</i>
   <i type="int" name="NOMEGA">     0</i>
   <i type="int" name="NOMEGAR">     0</i>
   <i type="int" name="NBANDSGW">    -1</i>
   <i type="int" name="NBANDSO">    -1</i>
   <i type="int" name="NBANDSV">    -1</i>
   <i type="int" name="NELM">     1</i>
   <i type="int" name="DIM">     3</i>
   <i type="int" name="ANTIRES">     0</i>
   <i name="OMEGAMAX">    -30.00000000</i>
   <i name="OMEGATL">   -200.00000000</i>
   <i type="int" name="OMEGAGRID">     0</i>
   <i name="CSHIFT">     -0.10000000</i>
   <i type="logical" name="SELFENERGY"> F  </i>
   <i type="logical" name="LSPECTRAL"> F  </i>
   <i type="logical" name="ODDONLYGW"> F  </i>
   <i type="logical" name="EVENONLYGW"> F  </i>
   <i type="int" name="NKREDLFX">     1</i>
   <i type="int" name="NKREDLFY">     1</i>
   <i type="int" name="NKREDLFZ">     1</i>
   <i type="int" name="MAXMEM">  1800</i>
   <i type="int" name="TELESCOPE">     0</i>
  </separator>
 </parameters>
 <atominfo>
  <atoms>      12 </atoms>
  <types>       3 </types>
  <array name="atoms" >
   <dimension dim="1">ion</dimension>
   <field type="string">element</field>
   <field type="int">atomtype</field>
   <set>
    <rc><c>Cu</c><c>   1</c></rc>
    <rc><c>Cu</c><c>   1</c></rc>
    <rc><c>Cu</c><c>   1</c></rc>
    <rc><c>Cu</c><c>   1</c></rc>
    <rc><c>Ge</c><c>   2</c></rc>
    <rc><c>Ge</c><c>   2</c></rc>
    <rc><c>S </c><c>   3</c></rc>
    <rc><c>S </c><c>   3</c></rc>
    <rc><c>S </c><c>   3</c></rc>
    <rc><c>S </c><c>   3</c></rc>
    <rc><c>S </c><c>   3</c></rc>
    <rc><c>S </c><c>   3</c></rc>
   </set>
  </array>
  <array name="atomtypes" >
   <dimension dim="1">type</dimension>
   <field type="int">atomspertype</field>
   <field type="string">element</field>
   <field>mass</field>
   <field>valence</field>
   <field type="string">pseudopotential</field>
   <set>
    <rc><c>   4</c><c>Cu</c><c>     63.54600000</c><c>     17.00000000</c><c>  PAW_PBE Cu_pv 06Sep2000               </c></rc>
    <rc><c>   2</c><c>Ge</c><c>     72.61000000</c><c>      4.00000000</c><c>  PAW_PBE Ge 05Jan2001                  </c></rc>
    <rc><c>   6</c><c>S </c><c>     32.06600000</c><c>      6.00000000</c><c>  PAW_PBE S 17Jan2003                   </c></rc>
   </set>
  </array>
 </atominfo>
 <structure name="initialpos" >
  <crystal>
   <varray name="basis" >
    <v>       3.22479600      -5.64383000       0.03157200 </v>
    <v>       3.22479600       5.64383000       0.03157200 </v>
    <v>      -2.10194600       0.00000000       6.07553700 </v>
   </varray>
   <i name="volume">    221.90106089 </i>
   <varray name="rec_basis" >
    <v>       0.15452516      -0.08859232       0.05346088 </v>
    <v>       0.15452516       0.08859232       0.05346088 </v>
    <v>      -0.00160600       0.00000000       0.16403888 </v>
   </varray>
  </crystal>
  <varray name="positions" >
   <v>       0.61844300       0.12117100       0.11797752 </v>
   <v>       0.12117100       0.61844300       0.61953300 </v>
   <v>       0.96295700       0.79032200       0.11881300 </v>
   <v>       0.79032200       0.96295700       0.61881300 </v>
   <v>       0.43973200       0.26728100       0.59904700 </v>
   <v>       0.26728100       0.43973200       0.09904700 </v>
   <v>       0.07949800       0.91167500       0.49736300 </v>
   <v>       0.57140300       0.41236400       0.98018400 </v>
   <v>       0.73711100       0.25006200       0.49504900 </v>
   <v>       0.41236400       0.57140300       0.48018400 </v>
   <v>       0.91167500       0.07949800       0.99736300 </v>
   <v>       0.25006200       0.73711100       0.99504900 </v>
  </varray>
 </structure>
 <calculation>
  <scstep>
   <time name="total">  236.04  235.85</time>
   <energy>
    <i name="alphaZ">    339.31929130 </i>
    <i name="ewald">  -9064.76111523 </i>
    <i name="hartreedc">  -8066.93758166 </i>
    <i name="XCdc">    369.89461486 </i>
    <i name="pawpsdc">  16958.32573226 </i>
    <i name="pawaedc"> -17451.06144575 </i>
    <i name="eentropy">     -0.00145805 </i>
    <i name="bandstr">  -1657.50165645 </i>
    <i name="atom">  18320.98302006 </i>
    <i name="e_fr_energy">     75.70287278 </i>
    <i name="e_wo_entrp">     75.70433084 </i>
    <i name="e_0_energy">     75.70335880 </i>
   </energy>
  </scstep>
  <scstep>
   <time name="total">  240.81  240.61</time>
   <energy>
    <i name="e_fr_energy">     -8.24337884 </i>
    <i name="e_wo_entrp">     -8.24221718 </i>
    <i name="e_0_energy">     -8.24299162 </i>
   </energy>
  </scstep>
  <scstep>
   <time name="total">  236.78  236.63</time>
   <energy>
    <i name="e_fr_energy">    -14.86573543 </i>
    <i name="e_wo_entrp">    -14.86597574 </i>
    <i name="e_0_energy">    -14.86581553 </i>
   </energy>
  </scstep>
  <scstep>
   <time name="total">  241.97  241.76</time>
   <energy>
    <i name="e_fr_energy">    -22.32506999 </i>
    <i name="e_wo_entrp">    -22.32544446 </i>
    <i name="e_0_energy">    -22.32519481 </i>
   </energy>
  </scstep>
  <scstep>
   <time name="total">  240.03  239.82</time>
   <energy>
    <i name="e_fr_energy">    -60.75862317 </i>
    <i name="e_wo_entrp">    -60.75922488 </i>
    <i name="e_0_energy">    -60.75882374 </i>
   </energy>
  </scstep>
  <scstep>
   <time name="total">  239.99  239.78</time>
   <energy>
    <i name="e_fr_energy">    -65.88643966 </i>
    <i name="e_wo_entrp">    -65.88710383 </i>
    <i name="e_0_energy">    -65.88666105 </i>
   </energy>
  </scstep>
  <scstep>
   <time name="total">  238.30  238.10</time>
   <energy>
    <i name="e_fr_energy">    -67.44463198 </i>
    <i name="e_wo_entrp">    -67.44507482 </i>
    <i name="e_0_energy">    -67.44477959 </i>
   </energy>
  </scstep>
  <scstep>
   <time name="total">  236.56  236.36</time>
   <energy>
    <i name="e_fr_energy">    -69.07881268 </i>
    <i name="e_wo_entrp">    -69.07955892 </i>
    <i name="e_0_energy">    -69.07906142 </i>
   </energy>
  </scstep>
  <scstep>
   <time name="total">  236.40  236.20</time>
   <energy>
    <i name="e_fr_energy">    -69.39307739 </i>
    <i name="e_wo_entrp">    -69.39396132 </i>
    <i name="e_0_energy">    -69.39337203 </i>
   </energy>
  </scstep>
  <scstep>
   <time name="total">  236.76  236.56</time>
   <energy>
    <i name="e_fr_energy">    -69.49784930 </i>
    <i name="e_wo_entrp">    -69.49857908 </i>
    <i name="e_0_energy">    -69.49809256 </i>
   </energy>
  </scstep>
  <scstep>
   <time name="total">  236.76  236.56</time>
   <energy>
    <i name="e_fr_energy">    -69.56835226 </i>
    <i name="e_wo_entrp">    -69.56896713 </i>
    <i name="e_0_energy">    -69.56855722 </i>
   </energy>
  </scstep>
  <scstep>
   <time name="total">  236.75  236.57</time>
   <energy>
    <i name="e_fr_energy">    -69.58072667 </i>
    <i name="e_wo_entrp">    -69.58128870 </i>
    <i name="e_0_energy">    -69.58091401 </i>
   </energy>
  </scstep>
  <scstep>
   <time name="total">  236.62  236.42</time>
   <energy>
    <i name="e_fr_energy">    -69.59051702 </i>
    <i name="e_wo_entrp">    -69.59106700 </i>
    <i name="e_0_energy">    -69.59070035 </i>
   </energy>
  </scstep>
  <scstep>
   <time name="total">  236.57  236.38</time>
   <energy>
    <i name="e_fr_energy">    -69.59300340 </i>
    <i name="e_wo_entrp">    -69.59357206 </i>
    <i name="e_0_energy">    -69.59319295 </i>
   </energy>
  </scstep>
  <scstep>
   <time name="total">  235.53  235.34</time>
   <energy>
    <i name="e_fr_energy">    -69.59453203 </i>
    <i name="e_wo_entrp">    -69.59511371 </i>
    <i name="e_0_energy">    -69.59472592 </i>
   </energy>
  </scstep>
  <scstep>
   <time name="total">  235.56  235.40</time>
   <energy>
    <i name="e_fr_energy">    -69.59511320 </i>
    <i name="e_wo_entrp">    -69.59569535 </i>
    <i name="e_0_energy">    -69.59530725 </i>
   </energy>
  </scstep>
  <scstep>
   <time name="total">  234.67  234.54</time>
   <energy>
    <i name="e_fr_energy">    -69.59528959 </i>
    <i name="e_wo_entrp">    -69.59586866 </i>
    <i name="e_0_energy">    -69.59548261 </i>
   </energy>
  </scstep>
  <scstep>
   <time name="total">  235.59  235.40</time>
   <energy>
    <i name="e_fr_energy">    -69.59540881 </i>
    <i name="e_wo_entrp">    -69.59598494 </i>
    <i name="e_0_energy">    -69.59560085 </i>
   </energy>
  </scstep>
  <scstep>
   <time name="total">  237.07  236.89</time>
   <energy>
    <i name="e_fr_energy">    -69.59543851 </i>
    <i name="e_wo_entrp">    -69.59601324 </i>
    <i name="e_0_energy">    -69.59563008 </i>
   </energy>
  </scstep>
  <scstep>
   <time name="total">  235.64  235.45</time>
   <energy>
    <i name="e_fr_energy">    -69.59545880 </i>
    <i name="e_wo_entrp">    -69.59603394 </i>
    <i name="e_0_energy">    -69.59565051 </i>
   </energy>
  </scstep>
  <scstep>
   <time name="total">  240.56  240.37</time>
   <energy>
    <i name="alphaZ">    339.31929130 </i>
    <i name="ewald">  -9064.76111523 </i>
    <i name="hartreedc">  -8149.33143235 </i>
    <i name="XCdc">    372.06728916 </i>
    <i name="pawpsdc">  15921.65718241 </i>
    <i name="pawaedc"> -16406.84722562 </i>
    <i name="eentropy">      0.00057576 </i>
    <i name="bandstr">  -1742.74763377 </i>
    <i name="atom">  18320.98302006 </i>
    <i name="e_fr_energy">    -69.59546644 </i>
    <i name="e_wo_entrp">    -69.59604221 </i>
    <i name="e_0_energy">    -69.59565836 </i>
   </energy>
  </scstep>
  <structure>
   <crystal>
    <varray name="basis" >
     <v>       3.22479600      -5.64383000       0.03157200 </v>
     <v>       3.22479600       5.64383000       0.03157200 </v>
     <v>      -2.10194600       0.00000000       6.07553700 </v>
    </varray>
    <i name="volume">    221.90106089 </i>
    <varray name="rec_basis" >
     <v>       0.15452516      -0.08859232       0.05346088 </v>
     <v>       0.15452516       0.08859232       0.05346088 </v>
     <v>      -0.00160600       0.00000000       0.16403888 </v>
    </varray>
   </crystal>
   <varray name="positions" >
    <v>       0.61844300       0.12117100       0.11797752 </v>
    <v>       0.12117100       0.61844300       0.61953300 </v>
    <v>       0.96295700       0.79032200       0.11881300 </v>
    <v>       0.79032200       0.96295700       0.61881300 </v>
    <v>       0.43973200       0.26728100       0.59904700 </v>
    <v>       0.26728100       0.43973200       0.09904700 </v>
    <v>       0.07949800       0.91167500       0.49736300 </v>
    <v>       0.57140300       0.41236400       0.98018400 </v>
    <v>       0.73711100       0.25006200       0.49504900 </v>
    <v>       0.41236400       0.57140300       0.48018400 </v>
    <v>       0.91167500       0.07949800       0.99736300 </v>
    <v>       0.25006200       0.73711100       0.99504900 </v>
   </varray>
  </structure>
  <varray name="forces" >
   <v>      -0.01763381       0.00555736       0.05629922 </v>
   <v>      -0.00403368       0.00174399      -0.00225860 </v>
   <v>       0.00283100      -0.00089837       0.00048155 </v>
   <v>       0.00394786       0.00072082      -0.00224093 </v>
   <v>       0.00460599       0.00187968      -0.00542063 </v>
   <v>       0.00256786      -0.00522227       0.00199300 </v>
   <v>       0.00210296       0.00152634      -0.00275458 </v>
   <v>       0.00480584      -0.00121866      -0.00309263 </v>
   <v>      -0.00532062       0.00541427      -0.03243620 </v>
   <v>      -0.00015933       0.00705531       0.00002987 </v>
   <v>       0.00750356      -0.01522240      -0.00872017 </v>
   <v>      -0.00121761      -0.00133606      -0.00187991 </v>
  </varray>
  <energy>
   <i name="e_fr_energy">    -69.59546644 </i>
   <i name="e_wo_entrp">    -69.59565836 </i>
   <i name="e_0_energy">      0.00057576 </i>
  </energy>
  <time name="totalsc"> 5445.12 5442.23</time>
  <eigenvalues>
   <array>
    <dimension dim="1">band</dimension>
    <dimension dim="2">kpoint</dimension>
    <dimension dim="3">spin</dimension>
    <field>eigene</field>
    <field>occ</field>
    <set>
     <set comment="spin 1">
      <set comment="kpoint 1">
       <r>  -68.6481    1.0000 </r>
       <r>  -68.6447    1.0000 </r>
       <r>  -68.6345    1.0000 </r>
       <r>  -68.6326    1.0000 </r>
       <r>  -68.6129    1.0000 </r>
       <r>  -68.6127    1.0000 </r>
       <r>  -68.5983    1.0000 </r>
       <r>  -68.5952    1.0000 </r>
       <r>  -68.5787    1.0000 </r>
       <r>  -68.5769    1.0000 </r>
       <r>  -68.5618    1.0000 </r>
       <r>  -68.5599    1.0000 </r>
       <r>  -12.7219    1.0000 </r>
       <r>  -11.1302    1.0000 </r>
       <r>  -10.9188    1.0000 </r>
       <r>  -10.6037    1.0000 </r>
       <r>  -10.2502    1.0000 </r>
       <r>  -10.2327    1.0000 </r>
       <r>   -5.9850    1.0000 </r>
       <r>   -4.9846    1.0000 </r>
       <r>   -2.7599    1.0000 </r>
       <r>   -2.2118    1.0000 </r>
       <r>   -2.0686    1.0000 </r>
       <r>   -1.9218    1.0000 </r>
       <r>   -1.5767    1.0000 </r>
       <r>   -0.9839    1.0000 </r>
       <r>   -0.9544    1.0000 </r>
       <r>   -0.6836    1.0000 </r>
       <r>   -0.3979    1.0000 </r>
       <r>   -0.2787    1.0000 </r>
       <r>   -0.2607    1.0000 </r>
       <r>   -0.2375    1.0000 </r>
       <r>   -0.1874    1.0000 </r>
       <r>   -0.1589    1.0000 </r>
       <r>   -0.0407    1.0000 </r>
       <r>    0.0351    1.0000 </r>
       <r>    1.3504    1.0000 </r>
       <r>    1.3616    1.0000 </r>
       <r>    1.4142    1.0000 </r>
       <r>    1.4571    1.0000 </r>
       <r>    1.4707    1.0000 </r>
       <r>    1.4732    1.0000 </r>
       <r>    1.5202    1.0000 </r>
       <r>    1.5318    1.0000 </r>
       <r>    1.5753    1.0000 </r>
       <r>    1.7117    1.0000 </r>
       <r>    1.8898    1.0000 </r>
       <r>    1.9262    1.0000 </r>
       <r>    2.0597    1.0000 </r>
       <r>    2.6524    1.0000 </r>
       <r>    2.7284    1.0000 </r>
       <r>    3.0944    1.0000 </r>
       <r>    3.2203    1.0000 </r>
       <r>    4.0072    1.0054 </r>
       <r>    4.0363    1.0134 </r>
       <r>    4.1708    0.8590 </r>
       <r>    5.5378   -0.0000 </r>
       <r>    6.3553   -0.0000 </r>
       <r>    7.6295    0.0000 </r>
       <r>    7.9869    0.0000 </r>
       <r>    8.6179    0.0000 </r>
       <r>    8.7908    0.0000 </r>
       <r>    9.5725    0.0000 </r>
       <r>    9.7379    0.0000 </r>
       <r>    9.8135    0.0000 </r>
       <r>   10.4232    0.0000 </r>
       <r>   10.5812    0.0000 </r>
       <r>   10.7000    0.0000 </r>
       <r>   10.7133    0.0000 </r>
       <r>   11.2821    0.0000 </r>
       <r>   11.7110    0.0000 </r>
       <r>   12.3946    0.0000 </r>
       <r>   12.4517    0.0000 </r>
       <r>   12.7258    0.0000 </r>
       <r>   13.3223    0.0000 </r>
       <r>   13.3860    0.0000 </r>
       <r>   13.8310    0.0000 </r>
       <r>   13.8855    0.0000 </r>
       <r>   14.1411    0.0000 </r>
       <r>   14.1777    0.0000 </r>
      </set>
      <set comment="kpoint 2">
       <r>  -68.6481    1.0000 </r>
       <r>  -68.6447    1.0000 </r>
       <r>  -68.6345    1.0000 </r>
       <r>  -68.6326    1.0000 </r>
       <r>  -68.6127    1.0000 </r>
       <r>  -68.6126    1.0000 </r>
       <r>  -68.5983    1.0000 </r>
       <r>  -68.5952    1.0000 </r>
       <r>  -68.5787    1.0000 </r>
       <r>  -68.5769    1.0000 </r>
       <r>  -68.5618    1.0000 </r>
       <r>  -68.5598    1.0000 </r>
       <r>  -12.5970    1.0000 </r>
       <r>  -11.1272    1.0000 </r>
       <r>  -10.9851    1.0000 </r>
       <r>  -10.6774    1.0000 </r>
       <r>  -10.3642    1.0000 </r>
       <r>  -10.2762    1.0000 </r>
       <r>   -5.9333    1.0000 </r>
       <r>   -4.7741    1.0000 </r>
       <r>   -2.6456    1.0000 </r>
       <r>   -2.2524    1.0000 </r>
       <r>   -2.0883    1.0000 </r>
       <r>   -1.6905    1.0000 </r>
       <r>   -1.3429    1.0000 </r>
       <r>   -0.9989    1.0000 </r>
       <r>   -0.7703    1.0000 </r>
       <r>   -0.6226    1.0000 </r>
       <r>   -0.5530    1.0000 </r>
       <r>   -0.4435    1.0000 </r>
       <r>   -0.3565    1.0000 </r>
       <r>   -0.2428    1.0000 </r>
       <r>   -0.1925    1.0000 </r>
       <r>   -0.1712    1.0000 </r>
       <r>   -0.0440    1.0000 </r>
       <r>    0.0424    1.0000 </r>
       <r>    1.2785    1.0000 </r>
       <r>    1.3358    1.0000 </r>
       <r>    1.3545    1.0000 </r>
       <r>    1.3918    1.0000 </r>
       <r>    1.4278    1.0000 </r>
       <r>    1.4716    1.0000 </r>
       <r>    1.4983    1.0000 </r>
       <r>    1.5296    1.0000 </r>
       <r>    1.7245    1.0000 </r>
       <r>    1.8589    1.0000 </r>
       <r>    2.0560    1.0000 </r>
       <r>    2.0941    1.0000 </r>
       <r>    2.2298    1.0000 </r>
       <r>    2.4140    1.0000 </r>
       <r>    2.5569    1.0000 </r>
       <r>    2.8261    1.0000 </r>
       <r>    2.9500    1.0000 </r>
       <r>    3.2407    1.0000 </r>
       <r>    3.6622    1.0000 </r>
       <r>    4.0397    1.0147 </r>
       <r>    6.1697   -0.0000 </r>
       <r>    6.9050   -0.0000 </r>
       <r>    8.1380    0.0000 </r>
       <r>    8.2680    0.0000 </r>
       <r>    8.5934    0.0000 </r>
       <r>    9.0125    0.0000 </r>
       <r>    9.2424    0.0000 </r>
       <r>    9.5302    0.0000 </r>
       <r>    9.8654    0.0000 </r>
       <r>   10.3764    0.0000 </r>
       <r>   10.6361    0.0000 </r>
       <r>   10.8136    0.0000 </r>
       <r>   10.9389    0.0000 </r>
       <r>   11.1923    0.0000 </r>
       <r>   11.6561    0.0000 </r>
       <r>   11.7708    0.0000 </r>
       <r>   12.1171    0.0000 </r>
       <r>   12.4407    0.0000 </r>
       <r>   12.6197    0.0000 </r>
       <r>   13.0074    0.0000 </r>
       <r>   13.5036    0.0000 </r>
       <r>   13.8748    0.0000 </r>
       <r>   14.2130    0.0000 </r>
       <r>   14.7104    0.0000 </r>
      </set>
      <set comment="kpoint 3">
       <r>  -68.6479    1.0000 </r>
       <r>  -68.6446    1.0000 </r>
       <r>  -68.6344    1.0000 </r>
       <r>  -68.6325    1.0000 </r>
       <r>  -68.6127    1.0000 </r>
       <r>  -68.6126    1.0000 </r>
       <r>  -68.5983    1.0000 </r>
       <r>  -68.5951    1.0000 </r>
       <r>  -68.5786    1.0000 </r>
       <r>  -68.5769    1.0000 </r>
       <r>  -68.5617    1.0000 </r>
       <r>  -68.5597    1.0000 </r>
       <r>  -12.4378    1.0000 </r>
       <r>  -11.2496    1.0000 </r>
       <r>  -10.9589    1.0000 </r>
       <r>  -10.7644    1.0000 </r>
       <r>  -10.4261    1.0000 </r>
       <r>  -10.3563    1.0000 </r>
       <r>   -5.8711    1.0000 </r>
       <r>   -4.5491    1.0000 </r>
       <r>   -2.4954    1.0000 </r>
       <r>   -2.2438    1.0000 </r>
       <r>   -1.9485    1.0000 </r>
       <r>   -1.4643    1.0000 </r>
       <r>   -1.2248    1.0000 </r>
       <r>   -1.1013    1.0000 </r>
       <r>   -0.9030    1.0000 </r>
       <r>   -0.8637    1.0000 </r>
       <r>   -0.6041    1.0000 </r>
       <r>   -0.5362    1.0000 </r>
       <r>   -0.2709    1.0000 </r>
       <r>   -0.2042    1.0000 </r>
       <r>   -0.2025    1.0000 </r>
       <r>   -0.1454    1.0000 </r>
       <r>   -0.0264    1.0000 </r>
       <r>    0.0831    1.0000 </r>
       <r>    1.2542    1.0000 </r>
       <r>    1.3285    1.0000 </r>
       <r>    1.3468    1.0000 </r>
       <r>    1.3969    1.0000 </r>
       <r>    1.4712    1.0000 </r>
       <r>    1.4790    1.0000 </r>
       <r>    1.4995    1.0000 </r>
       <r>    1.5521    1.0000 </r>
       <r>    1.7529    1.0000 </r>
       <r>    1.7916    1.0000 </r>
       <r>    1.9683    1.0000 </r>
       <r>    2.1467    1.0000 </r>
       <r>    2.3211    1.0000 </r>
       <r>    2.3625    1.0000 </r>
       <r>    2.5549    1.0000 </r>
       <r>    2.6679    1.0000 </r>
       <r>    2.9357    1.0000 </r>
       <r>    3.0768    1.0000 </r>
       <r>    3.2490    1.0000 </r>
       <r>    3.8638    1.0000 </r>
       <r>    6.3838   -0.0000 </r>
       <r>    7.0982    0.0000 </r>
       <r>    7.9818    0.0000 </r>
       <r>    8.2052    0.0000 </r>
       <r>    8.5151    0.0000 </r>
       <r>    8.8200    0.0000 </r>
       <r>    9.3273    0.0000 </r>
       <r>    9.8902    0.0000 </r>
       <r>   10.0114    0.0000 </r>
       <r>   10.5182    0.0000 </r>
       <r>   10.6914    0.0000 </r>
       <r>   10.7913    0.0000 </r>
       <r>   11.1399    0.0000 </r>
       <r>   11.4043    0.0000 </r>
       <r>   11.6098    0.0000 </r>
       <r>   11.7768    0.0000 </r>
       <r>   11.9448    0.0000 </r>
       <r>   12.5055    0.0000 </r>
       <r>   12.7798    0.0000 </r>
       <r>   13.0003    0.0000 </r>
       <r>   13.3964    0.0000 </r>
       <r>   13.5407    0.0000 </r>
       <r>   13.9411    0.0000 </r>
       <r>   14.2735    0.0000 </r>
      </set>
      <set comment="kpoint 4">
       <r>  -68.6481    1.0000 </r>
       <r>  -68.6447    1.0000 </r>
       <r>  -68.6345    1.0000 </r>
       <r>  -68.6326    1.0000 </r>
       <r>  -68.6127    1.0000 </r>
       <r>  -68.6126    1.0000 </r>
       <r>  -68.5984    1.0000 </r>
       <r>  -68.5952    1.0000 </r>
       <r>  -68.5787    1.0000 </r>
       <r>  -68.5769    1.0000 </r>
       <r>  -68.5618    1.0000 </r>
       <r>  -68.5598    1.0000 </r>
       <r>  -12.5970    1.0000 </r>
       <r>  -11.1264    1.0000 </r>
       <r>  -10.9847    1.0000 </r>
       <r>  -10.6797    1.0000 </r>
       <r>  -10.3627    1.0000 </r>
       <r>  -10.2764    1.0000 </r>
       <r>   -5.9332    1.0000 </r>
       <r>   -4.7743    1.0000 </r>
       <r>   -2.6455    1.0000 </r>
       <r>   -2.2556    1.0000 </r>
       <r>   -2.0850    1.0000 </r>
       <r>   -1.6894    1.0000 </r>
       <r>   -1.3467    1.0000 </r>
       <r>   -0.9994    1.0000 </r>
       <r>   -0.7683    1.0000 </r>
       <r>   -0.6189    1.0000 </r>
       <r>   -0.5550    1.0000 </r>
       <r>   -0.4387    1.0000 </r>
       <r>   -0.3601    1.0000 </r>
       <r>   -0.2437    1.0000 </r>
       <r>   -0.1915    1.0000 </r>
       <r>   -0.1682    1.0000 </r>
       <r>   -0.0457    1.0000 </r>
       <r>    0.0388    1.0000 </r>
       <r>    1.2789    1.0000 </r>
       <r>    1.3353    1.0000 </r>
       <r>    1.3547    1.0000 </r>
       <r>    1.3923    1.0000 </r>
       <r>    1.4274    1.0000 </r>
       <r>    1.4716    1.0000 </r>
       <r>    1.4977    1.0000 </r>
       <r>    1.5308    1.0000 </r>
       <r>    1.7247    1.0000 </r>
       <r>    1.8578    1.0000 </r>
       <r>    2.0571    1.0000 </r>
       <r>    2.0931    1.0000 </r>
       <r>    2.2309    1.0000 </r>
       <r>    2.4130    1.0000 </r>
       <r>    2.5578    1.0000 </r>
       <r>    2.8271    1.0000 </r>
       <r>    2.9481    1.0000 </r>
       <r>    3.2424    1.0000 </r>
       <r>    3.6616    1.0000 </r>
       <r>    4.0387    1.0144 </r>
       <r>    6.1708   -0.0000 </r>
       <r>    6.9043   -0.0000 </r>
       <r>    8.1373    0.0000 </r>
       <r>    8.2687    0.0000 </r>
       <r>    8.5949    0.0000 </r>
       <r>    9.0111    0.0000 </r>
       <r>    9.2440    0.0000 </r>
       <r>    9.5311    0.0000 </r>
       <r>    9.8651    0.0000 </r>
       <r>   10.3766    0.0000 </r>
       <r>   10.6333    0.0000 </r>
       <r>   10.8119    0.0000 </r>
       <r>   10.9394    0.0000 </r>
       <r>   11.1921    0.0000 </r>
       <r>   11.6568    0.0000 </r>
       <r>   11.7710    0.0000 </r>
       <r>   12.1165    0.0000 </r>
       <r>   12.4432    0.0000 </r>
       <r>   12.6191    0.0000 </r>
       <r>   13.0077    0.0000 </r>
       <r>   13.5141    0.0000 </r>
       <r>   13.8994    0.0000 </r>
       <r>   14.2695    0.0000 </r>
       <r>   14.8289    0.0000 </r>
      </set>
      <set comment="kpoint 5">
       <r>  -68.6481    1.0000 </r>
       <r>  -68.6447    1.0000 </r>
       <r>  -68.6344    1.0000 </r>
       <r>  -68.6325    1.0000 </r>
       <r>  -68.6128    1.0000 </r>
       <r>  -68.6128    1.0000 </r>
       <r>  -68.5982    1.0000 </r>
       <r>  -68.5951    1.0000 </r>
       <r>  -68.5788    1.0000 </r>
       <r>  -68.5770    1.0000 </r>
       <r>  -68.5618    1.0000 </r>
       <r>  -68.5599    1.0000 </r>
       <r>  -12.4416    1.0000 </r>
       <r>  -11.1904    1.0000 </r>
       <r>  -10.9448    1.0000 </r>
       <r>  -10.8793    1.0000 </r>
       <r>  -10.3903    1.0000 </r>
       <r>  -10.3476    1.0000 </r>
       <r>   -5.8760    1.0000 </r>
       <r>   -4.5226    1.0000 </r>
       <r>   -2.4185    1.0000 </r>
       <r>   -2.2473    1.0000 </r>
       <r>   -1.7933    1.0000 </r>
       <r>   -1.6828    1.0000 </r>
       <r>   -1.3545    1.0000 </r>
       <r>   -1.2994    1.0000 </r>
       <r>   -1.0825    1.0000 </r>
       <r>   -0.6834    1.0000 </r>
       <r>   -0.5215    1.0000 </r>
       <r>   -0.2960    1.0000 </r>
       <r>   -0.2819    1.0000 </r>
       <r>   -0.2235    1.0000 </r>
       <r>   -0.1864    1.0000 </r>
       <r>   -0.1247    1.0000 </r>
       <r>   -0.0938    1.0000 </r>
       <r>    0.0806    1.0000 </r>
       <r>    1.2937    1.0000 </r>
       <r>    1.3112    1.0000 </r>
       <r>    1.4156    1.0000 </r>
       <r>    1.4259    1.0000 </r>
       <r>    1.4630    1.0000 </r>
       <r>    1.4824    1.0000 </r>
       <r>    1.4947    1.0000 </r>
       <r>    1.5705    1.0000 </r>
       <r>    1.6714    1.0000 </r>
       <r>    1.8787    1.0000 </r>
       <r>    1.9402    1.0000 </r>
       <r>    2.1347    1.0000 </r>
       <r>    2.2793    1.0000 </r>
       <r>    2.3212    1.0000 </r>
       <r>    2.5595    1.0000 </r>
       <r>    2.6495    1.0000 </r>
       <r>    2.9016    1.0000 </r>
       <r>    2.9455    1.0000 </r>
       <r>    3.6978    1.0000 </r>
       <r>    3.8325    1.0000 </r>
       <r>    6.1714   -0.0000 </r>
       <r>    6.9897    0.0000 </r>
       <r>    8.0051    0.0000 </r>
       <r>    8.3274    0.0000 </r>
       <r>    8.4339    0.0000 </r>
       <r>    8.5700    0.0000 </r>
       <r>    9.1455    0.0000 </r>
       <r>    9.2482    0.0000 </r>
       <r>   10.3618    0.0000 </r>
       <r>   10.4957    0.0000 </r>
       <r>   10.9191    0.0000 </r>
       <r>   11.1838    0.0000 </r>
       <r>   11.3281    0.0000 </r>
       <r>   11.5584    0.0000 </r>
       <r>   11.8164    0.0000 </r>
       <r>   11.9629    0.0000 </r>
       <r>   12.3136    0.0000 </r>
       <r>   12.5043    0.0000 </r>
       <r>   12.7086    0.0000 </r>
       <r>   12.9121    0.0000 </r>
       <r>   13.3401    0.0000 </r>
       <r>   13.4464    0.0000 </r>
       <r>   14.2609    0.0000 </r>
       <r>   14.3681    0.0000 </r>
      </set>
      <set comment="kpoint 6">
       <r>  -68.6478    1.0000 </r>
       <r>  -68.6445    1.0000 </r>
       <r>  -68.6344    1.0000 </r>
       <r>  -68.6326    1.0000 </r>
       <r>  -68.6126    1.0000 </r>
       <r>  -68.6125    1.0000 </r>
       <r>  -68.5983    1.0000 </r>
       <r>  -68.5952    1.0000 </r>
       <r>  -68.5785    1.0000 </r>
       <r>  -68.5769    1.0000 </r>
       <r>  -68.5617    1.0000 </r>
       <r>  -68.5597    1.0000 </r>
       <r>  -12.4421    1.0000 </r>
       <r>  -11.3537    1.0000 </r>
       <r>  -10.9400    1.0000 </r>
       <r>  -10.7391    1.0000 </r>
       <r>  -10.3858    1.0000 </r>
       <r>  -10.2714    1.0000 </r>
       <r>   -5.9480    1.0000 </r>
       <r>   -4.6434    1.0000 </r>
       <r>   -2.3921    1.0000 </r>
       <r>   -2.2280    1.0000 </r>
       <r>   -2.0570    1.0000 </r>
       <r>   -1.6399    1.0000 </r>
       <r>   -1.3597    1.0000 </r>
       <r>   -1.2850    1.0000 </r>
       <r>   -1.0242    1.0000 </r>
       <r>   -0.5126    1.0000 </r>
       <r>   -0.4830    1.0000 </r>
       <r>   -0.3305    1.0000 </r>
       <r>   -0.2822    1.0000 </r>
       <r>   -0.2177    1.0000 </r>
       <r>   -0.1508    1.0000 </r>
       <r>   -0.1318    1.0000 </r>
       <r>   -0.0083    1.0000 </r>
       <r>    0.1149    1.0000 </r>
       <r>    1.2467    1.0000 </r>
       <r>    1.3156    1.0000 </r>
       <r>    1.3826    1.0000 </r>
       <r>    1.4365    1.0000 </r>
       <r>    1.4623    1.0000 </r>
       <r>    1.4917    1.0000 </r>
       <r>    1.4961    1.0000 </r>
       <r>    1.5494    1.0000 </r>
       <r>    1.7480    1.0000 </r>
       <r>    1.8282    1.0000 </r>
       <r>    1.9223    1.0000 </r>
       <r>    2.1340    1.0000 </r>
       <r>    2.2204    1.0000 </r>
       <r>    2.3859    1.0000 </r>
       <r>    2.5618    1.0000 </r>
       <r>    2.7872    1.0000 </r>
       <r>    2.9792    1.0000 </r>
       <r>    3.3103    1.0000 </r>
       <r>    3.6020    1.0000 </r>
       <r>    3.7503    1.0000 </r>
       <r>    6.0865   -0.0000 </r>
       <r>    6.9393   -0.0000 </r>
       <r>    7.6115    0.0000 </r>
       <r>    8.0688    0.0000 </r>
       <r>    8.4111    0.0000 </r>
       <r>    8.6142    0.0000 </r>
       <r>    8.9830    0.0000 </r>
       <r>    9.1521    0.0000 </r>
       <r>   10.0877    0.0000 </r>
       <r>   10.3357    0.0000 </r>
       <r>   10.7332    0.0000 </r>
       <r>   11.1086    0.0000 </r>
       <r>   11.4599    0.0000 </r>
       <r>   11.5951    0.0000 </r>
       <r>   11.8001    0.0000 </r>
       <r>   12.0856    0.0000 </r>
       <r>   12.4749    0.0000 </r>
       <r>   12.9181    0.0000 </r>
       <r>   13.0320    0.0000 </r>
       <r>   13.8307    0.0000 </r>
       <r>   14.1958    0.0000 </r>
       <r>   14.6538    0.0000 </r>
       <r>   15.4344    0.0000 </r>
       <r>   15.6447    0.0000 </r>
      </set>
      <set comment="kpoint 7">
       <r>  -68.6481    1.0000 </r>
       <r>  -68.6447    1.0000 </r>
       <r>  -68.6344    1.0000 </r>
       <r>  -68.6326    1.0000 </r>
       <r>  -68.6126    1.0000 </r>
       <r>  -68.6126    1.0000 </r>
       <r>  -68.5983    1.0000 </r>
       <r>  -68.5952    1.0000 </r>
       <r>  -68.5786    1.0000 </r>
       <r>  -68.5768    1.0000 </r>
       <r>  -68.5618    1.0000 </r>
       <r>  -68.5598    1.0000 </r>
       <r>  -12.6000    1.0000 </r>
       <r>  -11.2508    1.0000 </r>
       <r>  -10.9938    1.0000 </r>
       <r>  -10.5722    1.0000 </r>
       <r>  -10.3634    1.0000 </r>
       <r>  -10.1791    1.0000 </r>
       <r>   -6.0103    1.0000 </r>
       <r>   -4.8958    1.0000 </r>
       <r>   -2.6461    1.0000 </r>
       <r>   -2.3158    1.0000 </r>
       <r>   -1.9723    1.0000 </r>
       <r>   -1.6458    1.0000 </r>
       <r>   -1.4955    1.0000 </r>
       <r>   -1.1816    1.0000 </r>
       <r>   -0.7907    1.0000 </r>
       <r>   -0.5868    1.0000 </r>
       <r>   -0.4514    1.0000 </r>
       <r>   -0.3345    1.0000 </r>
       <r>   -0.2928    1.0000 </r>
       <r>   -0.2294    1.0000 </r>
       <r>   -0.1764    1.0000 </r>
       <r>   -0.1315    1.0000 </r>
       <r>   -0.0057    1.0000 </r>
       <r>    0.0717    1.0000 </r>
       <r>    1.2589    1.0000 </r>
       <r>    1.3201    1.0000 </r>
       <r>    1.3655    1.0000 </r>
       <r>    1.4227    1.0000 </r>
       <r>    1.4308    1.0000 </r>
       <r>    1.4756    1.0000 </r>
       <r>    1.5038    1.0000 </r>
       <r>    1.5435    1.0000 </r>
       <r>    1.7253    1.0000 </r>
       <r>    1.8126    1.0000 </r>
       <r>    1.9936    1.0000 </r>
       <r>    2.0722    1.0000 </r>
       <r>    2.4167    1.0000 </r>
       <r>    2.4625    1.0000 </r>
       <r>    2.5276    1.0000 </r>
       <r>    2.8756    1.0000 </r>
       <r>    3.1425    1.0000 </r>
       <r>    3.2282    1.0000 </r>
       <r>    3.7834    1.0000 </r>
       <r>    4.0675    1.0271 </r>
       <r>    5.9787   -0.0000 </r>
       <r>    6.6879   -0.0000 </r>
       <r>    7.5345    0.0000 </r>
       <r>    8.2226    0.0000 </r>
       <r>    8.6183    0.0000 </r>
       <r>    8.9135    0.0000 </r>
       <r>    9.3063    0.0000 </r>
       <r>    9.4309    0.0000 </r>
       <r>    9.8042    0.0000 </r>
       <r>   10.2726    0.0000 </r>
       <r>   10.5429    0.0000 </r>
       <r>   10.8341    0.0000 </r>
       <r>   10.9722    0.0000 </r>
       <r>   11.3813    0.0000 </r>
       <r>   11.4723    0.0000 </r>
       <r>   11.7333    0.0000 </r>
       <r>   12.1020    0.0000 </r>
       <r>   12.6622    0.0000 </r>
       <r>   12.9435    0.0000 </r>
       <r>   13.0973    0.0000 </r>
       <r>   13.3515    0.0000 </r>
       <r>   13.5185    0.0000 </r>
       <r>   14.4752    0.0000 </r>
       <r>   14.7553    0.0000 </r>
      </set>
      <set comment="kpoint 8">
       <r>  -68.6479    1.0000 </r>
       <r>  -68.6445    1.0000 </r>
       <r>  -68.6344    1.0000 </r>
       <r>  -68.6325    1.0000 </r>
       <r>  -68.6127    1.0000 </r>
       <r>  -68.6126    1.0000 </r>
       <r>  -68.5983    1.0000 </r>
       <r>  -68.5951    1.0000 </r>
       <r>  -68.5787    1.0000 </r>
       <r>  -68.5768    1.0000 </r>
       <r>  -68.5616    1.0000 </r>
       <r>  -68.5597    1.0000 </r>
       <r>  -12.4379    1.0000 </r>
       <r>  -11.2479    1.0000 </r>
       <r>  -10.9587    1.0000 </r>
       <r>  -10.7687    1.0000 </r>
       <r>  -10.4216    1.0000 </r>
       <r>  -10.3583    1.0000 </r>
       <r>   -5.8707    1.0000 </r>
       <r>   -4.5494    1.0000 </r>
       <r>   -2.4945    1.0000 </r>
       <r>   -2.2484    1.0000 </r>
       <r>   -1.9445    1.0000 </r>
       <r>   -1.4654    1.0000 </r>
       <r>   -1.2254    1.0000 </r>
       <r>   -1.1061    1.0000 </r>
       <r>   -0.9003    1.0000 </r>
       <r>   -0.8644    1.0000 </r>
       <r>   -0.5969    1.0000 </r>
       <r>   -0.5299    1.0000 </r>
       <r>   -0.2734    1.0000 </r>
       <r>   -0.2113    1.0000 </r>
       <r>   -0.1989    1.0000 </r>
       <r>   -0.1410    1.0000 </r>
       <r>   -0.0318    1.0000 </r>
       <r>    0.0795    1.0000 </r>
       <r>    1.2537    1.0000 </r>
       <r>    1.3261    1.0000 </r>
       <r>    1.3493    1.0000 </r>
       <r>    1.3989    1.0000 </r>
       <r>    1.4709    1.0000 </r>
       <r>    1.4774    1.0000 </r>
       <r>    1.5002    1.0000 </r>
       <r>    1.5538    1.0000 </r>
       <r>    1.7531    1.0000 </r>
       <r>    1.7914    1.0000 </r>
       <r>    1.9666    1.0000 </r>
       <r>    2.1468    1.0000 </r>
       <r>    2.3204    1.0000 </r>
       <r>    2.3597    1.0000 </r>
       <r>    2.5543    1.0000 </r>
       <r>    2.6699    1.0000 </r>
       <r>    2.9376    1.0000 </r>
       <r>    3.0812    1.0000 </r>
       <r>    3.2486    1.0000 </r>
       <r>    3.8601    1.0000 </r>
       <r>    6.3858   -0.0000 </r>
       <r>    7.0970    0.0000 </r>
       <r>    7.9814    0.0000 </r>
       <r>    8.2012    0.0000 </r>
       <r>    8.5207    0.0000 </r>
       <r>    8.8212    0.0000 </r>
       <r>    9.3267    0.0000 </r>
       <r>    9.8887    0.0000 </r>
       <r>   10.0102    0.0000 </r>
       <r>   10.5190    0.0000 </r>
       <r>   10.6916    0.0000 </r>
       <r>   10.7931    0.0000 </r>
       <r>   11.1405    0.0000 </r>
       <r>   11.4039    0.0000 </r>
       <r>   11.6112    0.0000 </r>
       <r>   11.7761    0.0000 </r>
       <r>   11.9421    0.0000 </r>
       <r>   12.5034    0.0000 </r>
       <r>   12.8248    0.0000 </r>
       <r>   13.0310    0.0000 </r>
       <r>   13.5502    0.0000 </r>
       <r>   13.6889    0.0000 </r>
       <r>   14.5539    0.0000 </r>
       <r>   15.2519    0.0000 </r>
      </set>
      <set comment="kpoint 9">
       <r>  -68.6479    1.0000 </r>
       <r>  -68.6445    1.0000 </r>
       <r>  -68.6344    1.0000 </r>
       <r>  -68.6326    1.0000 </r>
       <r>  -68.6126    1.0000 </r>
       <r>  -68.6126    1.0000 </r>
       <r>  -68.5983    1.0000 </r>
       <r>  -68.5952    1.0000 </r>
       <r>  -68.5785    1.0000 </r>
       <r>  -68.5768    1.0000 </r>
       <r>  -68.5616    1.0000 </r>
       <r>  -68.5598    1.0000 </r>
       <r>  -12.4421    1.0000 </r>
       <r>  -11.3531    1.0000 </r>
       <r>  -10.9400    1.0000 </r>
       <r>  -10.7400    1.0000 </r>
       <r>  -10.3866    1.0000 </r>
       <r>  -10.2702    1.0000 </r>
       <r>   -5.9478    1.0000 </r>
       <r>   -4.6435    1.0000 </r>
       <r>   -2.3916    1.0000 </r>
       <r>   -2.2290    1.0000 </r>
       <r>   -2.0573    1.0000 </r>
       <r>   -1.6396    1.0000 </r>
       <r>   -1.3655    1.0000 </r>
       <r>   -1.2799    1.0000 </r>
       <r>   -1.0226    1.0000 </r>
       <r>   -0.5103    1.0000 </r>
       <r>   -0.4854    1.0000 </r>
       <r>   -0.3326    1.0000 </r>
       <r>   -0.2817    1.0000 </r>
       <r>   -0.2145    1.0000 </r>
       <r>   -0.1492    1.0000 </r>
       <r>   -0.1302    1.0000 </r>
       <r>   -0.0111    1.0000 </r>
       <r>    0.1117    1.0000 </r>
       <r>    1.2464    1.0000 </r>
       <r>    1.3163    1.0000 </r>
       <r>    1.3813    1.0000 </r>
       <r>    1.4374    1.0000 </r>
       <r>    1.4616    1.0000 </r>
       <r>    1.4917    1.0000 </r>
       <r>    1.4967    1.0000 </r>
       <r>    1.5503    1.0000 </r>
       <r>    1.7486    1.0000 </r>
       <r>    1.8279    1.0000 </r>
       <r>    1.9216    1.0000 </r>
       <r>    2.1348    1.0000 </r>
       <r>    2.2209    1.0000 </r>
       <r>    2.3843    1.0000 </r>
       <r>    2.5597    1.0000 </r>
       <r>    2.7912    1.0000 </r>
       <r>    2.9788    1.0000 </r>
       <r>    3.3114    1.0000 </r>
       <r>    3.6019    1.0000 </r>
       <r>    3.7475    1.0000 </r>
       <r>    6.0876   -0.0000 </r>
       <r>    6.9388   -0.0000 </r>
       <r>    7.6119    0.0000 </r>
       <r>    8.0692    0.0000 </r>
       <r>    8.4094    0.0000 </r>
       <r>    8.6167    0.0000 </r>
       <r>    8.9832    0.0000 </r>
       <r>    9.1515    0.0000 </r>
       <r>   10.0858    0.0000 </r>
       <r>   10.3371    0.0000 </r>
       <r>   10.7315    0.0000 </r>
       <r>   11.1081    0.0000 </r>
       <r>   11.4592    0.0000 </r>
       <r>   11.5775    0.0000 </r>
       <r>   11.7867    0.0000 </r>
       <r>   12.0326    0.0000 </r>
       <r>   12.5244    0.0000 </r>
       <r>   12.6802    0.0000 </r>
       <r>   12.9170    0.0000 </r>
       <r>   13.2096    0.0000 </r>
       <r>   14.2269    0.0000 </r>
       <r>   14.7683    0.0000 </r>
       <r>   15.2504    0.0000 </r>
       <r>   15.9123    0.0000 </r>
      </set>
      <set comment="kpoint 10">
       <r>  -68.6477    1.0000 </r>
       <r>  -68.6443    1.0000 </r>
       <r>  -68.6342    1.0000 </r>
       <r>  -68.6324    1.0000 </r>
       <r>  -68.6124    1.0000 </r>
       <r>  -68.6125    1.0000 </r>
       <r>  -68.5981    1.0000 </r>
       <r>  -68.5950    1.0000 </r>
       <r>  -68.5785    1.0000 </r>
       <r>  -68.5767    1.0000 </r>
       <r>  -68.5615    1.0000 </r>
       <r>  -68.5595    1.0000 </r>
       <r>  -12.4341    1.0000 </r>
       <r>  -11.5006    1.0000 </r>
       <r>  -10.9153    1.0000 </r>
       <r>  -10.6197    1.0000 </r>
       <r>  -10.3947    1.0000 </r>
       <r>  -10.1984    1.0000 </r>
       <r>   -6.0266    1.0000 </r>
       <r>   -4.8117    1.0000 </r>
       <r>   -2.3116    1.0000 </r>
       <r>   -2.2662    1.0000 </r>
       <r>   -2.0910    1.0000 </r>
       <r>   -1.7044    1.0000 </r>
       <r>   -1.2462    1.0000 </r>
       <r>   -1.1115    1.0000 </r>
       <r>   -0.8446    1.0000 </r>
       <r>   -0.7795    1.0000 </r>
       <r>   -0.7311    1.0000 </r>
       <r>   -0.2421    1.0000 </r>
       <r>   -0.1972    1.0000 </r>
       <r>   -0.1755    1.0000 </r>
       <r>   -0.1546    1.0000 </r>
       <r>   -0.0417    1.0000 </r>
       <r>    0.0009    1.0000 </r>
       <r>    0.1842    1.0000 </r>
       <r>    1.2652    1.0000 </r>
       <r>    1.3184    1.0000 </r>
       <r>    1.3755    1.0000 </r>
       <r>    1.4136    1.0000 </r>
       <r>    1.4329    1.0000 </r>
       <r>    1.4934    1.0000 </r>
       <r>    1.5073    1.0000 </r>
       <r>    1.5500    1.0000 </r>
       <r>    1.7871    1.0000 </r>
       <r>    1.8488    1.0000 </r>
       <r>    1.9946    1.0000 </r>
       <r>    2.1497    1.0000 </r>
       <r>    2.2506    1.0000 </r>
       <r>    2.3372    1.0000 </r>
       <r>    2.5615    1.0000 </r>
       <r>    2.7591    1.0000 </r>
       <r>    2.7759    1.0000 </r>
       <r>    3.3673    1.0000 </r>
       <r>    3.7654    1.0000 </r>
       <r>    4.0049    1.0050 </r>
       <r>    5.8533   -0.0000 </r>
       <r>    6.7662   -0.0000 </r>
       <r>    7.0826    0.0000 </r>
       <r>    8.4117    0.0000 </r>
       <r>    8.5610    0.0000 </r>
       <r>    8.7701    0.0000 </r>
       <r>    9.1419    0.0000 </r>
       <r>    9.2420    0.0000 </r>
       <r>    9.9591    0.0000 </r>
       <r>   10.2861    0.0000 </r>
       <r>   10.7281    0.0000 </r>
       <r>   10.8265    0.0000 </r>
       <r>   10.8742    0.0000 </r>
       <r>   11.2743    0.0000 </r>
       <r>   11.7549    0.0000 </r>
       <r>   11.9190    0.0000 </r>
       <r>   11.9710    0.0000 </r>
       <r>   12.3667    0.0000 </r>
       <r>   12.5415    0.0000 </r>
       <r>   13.4555    0.0000 </r>
       <r>   14.2875    0.0000 </r>
       <r>   14.6724    0.0000 </r>
       <r>   16.7482    0.0000 </r>
       <r>   16.7548    0.0000 </r>
      </set>
      <set comment="kpoint 11">
       <r>  -68.6481    1.0000 </r>
       <r>  -68.6447    1.0000 </r>
       <r>  -68.6345    1.0000 </r>
       <r>  -68.6326    1.0000 </r>
       <r>  -68.6128    1.0000 </r>
       <r>  -68.6126    1.0000 </r>
       <r>  -68.5984    1.0000 </r>
       <r>  -68.5952    1.0000 </r>
       <r>  -68.5787    1.0000 </r>
       <r>  -68.5769    1.0000 </r>
       <r>  -68.5618    1.0000 </r>
       <r>  -68.5599    1.0000 </r>
       <r>  -12.6187    1.0000 </r>
       <r>  -11.4264    1.0000 </r>
       <r>  -10.7796    1.0000 </r>
       <r>  -10.6088    1.0000 </r>
       <r>  -10.2493    1.0000 </r>
       <r>  -10.2345    1.0000 </r>
       <r>   -5.8315    1.0000 </r>
       <r>   -5.0479    1.0000 </r>
       <r>   -2.5998    1.0000 </r>
       <r>   -2.3731    1.0000 </r>
       <r>   -1.9618    1.0000 </r>
       <r>   -1.7745    1.0000 </r>
       <r>   -1.4439    1.0000 </r>
       <r>   -1.1271    1.0000 </r>
       <r>   -1.0669    1.0000 </r>
       <r>   -0.7698    1.0000 </r>
       <r>   -0.4698    1.0000 </r>
       <r>   -0.2919    1.0000 </r>
       <r>   -0.2418    1.0000 </r>
       <r>   -0.2351    1.0000 </r>
       <r>   -0.1919    1.0000 </r>
       <r>   -0.1462    1.0000 </r>
       <r>   -0.0178    1.0000 </r>
       <r>    0.0257    1.0000 </r>
       <r>    1.3336    1.0000 </r>
       <r>    1.3806    1.0000 </r>
       <r>    1.4166    1.0000 </r>
       <r>    1.4392    1.0000 </r>
       <r>    1.4642    1.0000 </r>
       <r>    1.4661    1.0000 </r>
       <r>    1.5139    1.0000 </r>
       <r>    1.5451    1.0000 </r>
       <r>    1.6330    1.0000 </r>
       <r>    1.7586    1.0000 </r>
       <r>    1.7856    1.0000 </r>
       <r>    1.9479    1.0000 </r>
       <r>    2.0890    1.0000 </r>
       <r>    2.6590    1.0000 </r>
       <r>    2.7197    1.0000 </r>
       <r>    3.1983    1.0000 </r>
       <r>    3.2560    1.0000 </r>
       <r>    3.5189    1.0000 </r>
       <r>    3.8959    1.0000 </r>
       <r>    3.9767    1.0016 </r>
       <r>    6.0455   -0.0000 </r>
       <r>    6.4139   -0.0000 </r>
       <r>    7.8250    0.0000 </r>
       <r>    7.9072    0.0000 </r>
       <r>    8.3651    0.0000 </r>
       <r>    8.8184    0.0000 </r>
       <r>    9.7745    0.0000 </r>
       <r>    9.7959    0.0000 </r>
       <r>   10.0626    0.0000 </r>
       <r>   10.5843    0.0000 </r>
       <r>   10.6476    0.0000 </r>
       <r>   10.8134    0.0000 </r>
       <r>   10.8578    0.0000 </r>
       <r>   11.4932    0.0000 </r>
       <r>   11.5572    0.0000 </r>
       <r>   12.0266    0.0000 </r>
       <r>   12.5801    0.0000 </r>
       <r>   12.7767    0.0000 </r>
       <r>   12.9134    0.0000 </r>
       <r>   13.2047    0.0000 </r>
       <r>   13.5344    0.0000 </r>
       <r>   13.8203    0.0000 </r>
       <r>   14.1965    0.0000 </r>
       <r>   14.7012    0.0000 </r>
      </set>
      <set comment="kpoint 12">
       <r>  -68.6481    1.0000 </r>
       <r>  -68.6447    1.0000 </r>
       <r>  -68.6345    1.0000 </r>
       <r>  -68.6326    1.0000 </r>
       <r>  -68.6128    1.0000 </r>
       <r>  -68.6127    1.0000 </r>
       <r>  -68.5983    1.0000 </r>
       <r>  -68.5952    1.0000 </r>
       <r>  -68.5787    1.0000 </r>
       <r>  -68.5769    1.0000 </r>
       <r>  -68.5618    1.0000 </r>
       <r>  -68.5598    1.0000 </r>
       <r>  -12.4597    1.0000 </r>
       <r>  -11.4680    1.0000 </r>
       <r>  -10.8653    1.0000 </r>
       <r>  -10.6889    1.0000 </r>
       <r>  -10.3725    1.0000 </r>
       <r>  -10.2437    1.0000 </r>
       <r>   -5.7671    1.0000 </r>
       <r>   -4.8049    1.0000 </r>
       <r>   -2.4455    1.0000 </r>
       <r>   -2.2333    1.0000 </r>
       <r>   -1.8529    1.0000 </r>
       <r>   -1.7147    1.0000 </r>
       <r>   -1.4299    1.0000 </r>
       <r>   -1.1885    1.0000 </r>
       <r>   -0.8917    1.0000 </r>
       <r>   -0.7461    1.0000 </r>
       <r>   -0.6041    1.0000 </r>
       <r>   -0.5233    1.0000 </r>
       <r>   -0.3119    1.0000 </r>
       <r>   -0.2460    1.0000 </r>
       <r>   -0.1745    1.0000 </r>
       <r>   -0.1212    1.0000 </r>
       <r>   -0.0505    1.0000 </r>
       <r>    0.0625    1.0000 </r>
       <r>    1.3016    1.0000 </r>
       <r>    1.3353    1.0000 </r>
       <r>    1.3696    1.0000 </r>
       <r>    1.4323    1.0000 </r>
       <r>    1.4459    1.0000 </r>
       <r>    1.4795    1.0000 </r>
       <r>    1.5205    1.0000 </r>
       <r>    1.5466    1.0000 </r>
       <r>    1.6432    1.0000 </r>
       <r>    1.8698    1.0000 </r>
       <r>    1.9794    1.0000 </r>
       <r>    2.0469    1.0000 </r>
       <r>    2.1935    1.0000 </r>
       <r>    2.4752    1.0000 </r>
       <r>    2.5959    1.0000 </r>
       <r>    2.8376    1.0000 </r>
       <r>    2.9633    1.0000 </r>
       <r>    3.1344    1.0000 </r>
       <r>    3.5689    1.0000 </r>
       <r>    3.7254    1.0000 </r>
       <r>    6.4413   -0.0000 </r>
       <r>    6.9564    0.0000 </r>
       <r>    8.1702    0.0000 </r>
       <r>    8.2466    0.0000 </r>
       <r>    8.8328    0.0000 </r>
       <r>    9.1280    0.0000 </r>
       <r>    9.4645    0.0000 </r>
       <r>    9.7958    0.0000 </r>
       <r>   10.0844    0.0000 </r>
       <r>   10.3006    0.0000 </r>
       <r>   10.7397    0.0000 </r>
       <r>   11.0787    0.0000 </r>
       <r>   11.2897    0.0000 </r>
       <r>   11.4233    0.0000 </r>
       <r>   11.6323    0.0000 </r>
       <r>   11.7254    0.0000 </r>
       <r>   12.0854    0.0000 </r>
       <r>   12.2669    0.0000 </r>
       <r>   12.5401    0.0000 </r>
       <r>   12.6587    0.0000 </r>
       <r>   12.9562    0.0000 </r>
       <r>   13.0607    0.0000 </r>
       <r>   13.6405    0.0000 </r>
       <r>   14.6914    0.0000 </r>
      </set>
      <set comment="kpoint 13">
       <r>  -68.6478    1.0000 </r>
       <r>  -68.6445    1.0000 </r>
       <r>  -68.6343    1.0000 </r>
       <r>  -68.6325    1.0000 </r>
       <r>  -68.6126    1.0000 </r>
       <r>  -68.6126    1.0000 </r>
       <r>  -68.5982    1.0000 </r>
       <r>  -68.5951    1.0000 </r>
       <r>  -68.5786    1.0000 </r>
       <r>  -68.5769    1.0000 </r>
       <r>  -68.5617    1.0000 </r>
       <r>  -68.5598    1.0000 </r>
       <r>  -12.3575    1.0000 </r>
       <r>  -11.4149    1.0000 </r>
       <r>  -10.9539    1.0000 </r>
       <r>  -10.6838    1.0000 </r>
       <r>  -10.4766    1.0000 </r>
       <r>  -10.3339    1.0000 </r>
       <r>   -5.7522    1.0000 </r>
       <r>   -4.7230    1.0000 </r>
       <r>   -2.5237    1.0000 </r>
       <r>   -2.1848    1.0000 </r>
       <r>   -1.9547    1.0000 </r>
       <r>   -1.5341    1.0000 </r>
       <r>   -1.3021    1.0000 </r>
       <r>   -1.0944    1.0000 </r>
       <r>   -0.8689    1.0000 </r>
       <r>   -0.7620    1.0000 </r>
       <r>   -0.5510    1.0000 </r>
       <r>   -0.4473    1.0000 </r>
       <r>   -0.2873    1.0000 </r>
       <r>   -0.1809    1.0000 </r>
       <r>   -0.1446    1.0000 </r>
       <r>   -0.1069    1.0000 </r>
       <r>   -0.0410    1.0000 </r>
       <r>    0.0254    1.0000 </r>
       <r>    1.2733    1.0000 </r>
       <r>    1.2968    1.0000 </r>
       <r>    1.3512    1.0000 </r>
       <r>    1.4293    1.0000 </r>
       <r>    1.4519    1.0000 </r>
       <r>    1.4808    1.0000 </r>
       <r>    1.5012    1.0000 </r>
       <r>    1.5869    1.0000 </r>
       <r>    1.7199    1.0000 </r>
       <r>    1.9331    1.0000 </r>
       <r>    2.0762    1.0000 </r>
       <r>    2.1467    1.0000 </r>
       <r>    2.2677    1.0000 </r>
       <r>    2.4039    1.0000 </r>
       <r>    2.5683    1.0000 </r>
       <r>    2.5980    1.0000 </r>
       <r>    2.8960    1.0000 </r>
       <r>    3.0067    1.0000 </r>
       <r>    3.3582    1.0000 </r>
       <r>    3.9000    1.0000 </r>
       <r>    6.3649   -0.0000 </r>
       <r>    6.8976   -0.0000 </r>
       <r>    7.5733    0.0000 </r>
       <r>    8.0843    0.0000 </r>
       <r>    8.5470    0.0000 </r>
       <r>    8.7971    0.0000 </r>
       <r>    9.2795    0.0000 </r>
       <r>    9.6286    0.0000 </r>
       <r>    9.9312    0.0000 </r>
       <r>   10.2759    0.0000 </r>
       <r>   10.6575    0.0000 </r>
       <r>   10.9281    0.0000 </r>
       <r>   10.9706    0.0000 </r>
       <r>   11.2809    0.0000 </r>
       <r>   11.5183    0.0000 </r>
       <r>   11.7891    0.0000 </r>
       <r>   12.2484    0.0000 </r>
       <r>   12.5470    0.0000 </r>
       <r>   13.1020    0.0000 </r>
       <r>   13.5182    0.0000 </r>
       <r>   14.3040    0.0000 </r>
       <r>   14.6192    0.0000 </r>
       <r>   15.1220    0.0000 </r>
       <r>   16.2722    0.0000 </r>
      </set>
      <set comment="kpoint 14">
       <r>  -68.6481    1.0000 </r>
       <r>  -68.6447    1.0000 </r>
       <r>  -68.6345    1.0000 </r>
       <r>  -68.6326    1.0000 </r>
       <r>  -68.6128    1.0000 </r>
       <r>  -68.6127    1.0000 </r>
       <r>  -68.5983    1.0000 </r>
       <r>  -68.5952    1.0000 </r>
       <r>  -68.5787    1.0000 </r>
       <r>  -68.5769    1.0000 </r>
       <r>  -68.5618    1.0000 </r>
       <r>  -68.5599    1.0000 </r>
       <r>  -12.5424    1.0000 </r>
       <r>  -11.3383    1.0000 </r>
       <r>  -10.8750    1.0000 </r>
       <r>  -10.6064    1.0000 </r>
       <r>  -10.3954    1.0000 </r>
       <r>  -10.2829    1.0000 </r>
       <r>   -5.8249    1.0000 </r>
       <r>   -4.9758    1.0000 </r>
       <r>   -2.6653    1.0000 </r>
       <r>   -2.4540    1.0000 </r>
       <r>   -2.0375    1.0000 </r>
       <r>   -1.5785    1.0000 </r>
       <r>   -1.1696    1.0000 </r>
       <r>   -0.9842    1.0000 </r>
       <r>   -0.7961    1.0000 </r>
       <r>   -0.6516    1.0000 </r>
       <r>   -0.5195    1.0000 </r>
       <r>   -0.3897    1.0000 </r>
       <r>   -0.2724    1.0000 </r>
       <r>   -0.2563    1.0000 </r>
       <r>   -0.1898    1.0000 </r>
       <r>   -0.1453    1.0000 </r>
       <r>   -0.0445    1.0000 </r>
       <r>    0.0181    1.0000 </r>
       <r>    1.2897    1.0000 </r>
       <r>    1.3091    1.0000 </r>
       <r>    1.3893    1.0000 </r>
       <r>    1.4083    1.0000 </r>
       <r>    1.4341    1.0000 </r>
       <r>    1.4556    1.0000 </r>
       <r>    1.4922    1.0000 </r>
       <r>    1.5658    1.0000 </r>
       <r>    1.6887    1.0000 </r>
       <r>    1.9150    1.0000 </r>
       <r>    1.9864    1.0000 </r>
       <r>    2.1458    1.0000 </r>
       <r>    2.3333    1.0000 </r>
       <r>    2.5645    1.0000 </r>
       <r>    2.6166    1.0000 </r>
       <r>    2.8296    1.0000 </r>
       <r>    2.9755    1.0000 </r>
       <r>    3.2481    1.0000 </r>
       <r>    3.6813    1.0000 </r>
       <r>    3.9435    1.0003 </r>
       <r>    6.1790   -0.0000 </r>
       <r>    6.6367   -0.0000 </r>
       <r>    7.7666    0.0000 </r>
       <r>    7.9730    0.0000 </r>
       <r>    8.2133    0.0000 </r>
       <r>    8.5620    0.0000 </r>
       <r>    9.3796    0.0000 </r>
       <r>    9.5776    0.0000 </r>
       <r>    9.9085    0.0000 </r>
       <r>   10.2517    0.0000 </r>
       <r>   10.5453    0.0000 </r>
       <r>   10.7877    0.0000 </r>
       <r>   10.8432    0.0000 </r>
       <r>   11.0704    0.0000 </r>
       <r>   11.5655    0.0000 </r>
       <r>   12.0221    0.0000 </r>
       <r>   12.5259    0.0000 </r>
       <r>   12.7540    0.0000 </r>
       <r>   12.9525    0.0000 </r>
       <r>   13.3070    0.0000 </r>
       <r>   13.4110    0.0000 </r>
       <r>   13.7385    0.0000 </r>
       <r>   13.8453    0.0000 </r>
       <r>   14.7259    0.0000 </r>
      </set>
      <set comment="kpoint 15">
       <r>  -68.6481    1.0000 </r>
       <r>  -68.6447    1.0000 </r>
       <r>  -68.6345    1.0000 </r>
       <r>  -68.6326    1.0000 </r>
       <r>  -68.6128    1.0000 </r>
       <r>  -68.6127    1.0000 </r>
       <r>  -68.5983    1.0000 </r>
       <r>  -68.5952    1.0000 </r>
       <r>  -68.5787    1.0000 </r>
       <r>  -68.5769    1.0000 </r>
       <r>  -68.5618    1.0000 </r>
       <r>  -68.5598    1.0000 </r>
       <r>  -12.4598    1.0000 </r>
       <r>  -11.4674    1.0000 </r>
       <r>  -10.8641    1.0000 </r>
       <r>  -10.6919    1.0000 </r>
       <r>  -10.3716    1.0000 </r>
       <r>  -10.2432    1.0000 </r>
       <r>   -5.7667    1.0000 </r>
       <r>   -4.8052    1.0000 </r>
       <r>   -2.4454    1.0000 </r>
       <r>   -2.2343    1.0000 </r>
       <r>   -1.8506    1.0000 </r>
       <r>   -1.7142    1.0000 </r>
       <r>   -1.4353    1.0000 </r>
       <r>   -1.1897    1.0000 </r>
       <r>   -0.8899    1.0000 </r>
       <r>   -0.7400    1.0000 </r>
       <r>   -0.6047    1.0000 </r>
       <r>   -0.5269    1.0000 </r>
       <r>   -0.3095    1.0000 </r>
       <r>   -0.2411    1.0000 </r>
       <r>   -0.1749    1.0000 </r>
       <r>   -0.1233    1.0000 </r>
       <r>   -0.0517    1.0000 </r>
       <r>    0.0594    1.0000 </r>
       <r>    1.3017    1.0000 </r>
       <r>    1.3367    1.0000 </r>
       <r>    1.3683    1.0000 </r>
       <r>    1.4305    1.0000 </r>
       <r>    1.4466    1.0000 </r>
       <r>    1.4789    1.0000 </r>
       <r>    1.5216    1.0000 </r>
       <r>    1.5471    1.0000 </r>
       <r>    1.6443    1.0000 </r>
       <r>    1.8697    1.0000 </r>
       <r>    1.9769    1.0000 </r>
       <r>    2.0475    1.0000 </r>
       <r>    2.1943    1.0000 </r>
       <r>    2.4746    1.0000 </r>
       <r>    2.5968    1.0000 </r>
       <r>    2.8393    1.0000 </r>
       <r>    2.9630    1.0000 </r>
       <r>    3.1354    1.0000 </r>
       <r>    3.5665    1.0000 </r>
       <r>    3.7250    1.0000 </r>
       <r>    6.4424   -0.0000 </r>
       <r>    6.9555    0.0000 </r>
       <r>    8.1705    0.0000 </r>
       <r>    8.2467    0.0000 </r>
       <r>    8.8339    0.0000 </r>
       <r>    9.1277    0.0000 </r>
       <r>    9.4641    0.0000 </r>
       <r>    9.7967    0.0000 </r>
       <r>   10.0861    0.0000 </r>
       <r>   10.2984    0.0000 </r>
       <r>   10.7376    0.0000 </r>
       <r>   11.0789    0.0000 </r>
       <r>   11.2910    0.0000 </r>
       <r>   11.4243    0.0000 </r>
       <r>   11.6314    0.0000 </r>
       <r>   11.7244    0.0000 </r>
       <r>   12.0857    0.0000 </r>
       <r>   12.2661    0.0000 </r>
       <r>   12.5421    0.0000 </r>
       <r>   12.6586    0.0000 </r>
       <r>   12.9523    0.0000 </r>
       <r>   13.0562    0.0000 </r>
       <r>   13.6574    0.0000 </r>
       <r>   14.6971    0.0000 </r>
      </set>
      <set comment="kpoint 16">
       <r>  -68.6480    1.0000 </r>
       <r>  -68.6446    1.0000 </r>
       <r>  -68.6343    1.0000 </r>
       <r>  -68.6324    1.0000 </r>
       <r>  -68.6126    1.0000 </r>
       <r>  -68.6125    1.0000 </r>
       <r>  -68.5982    1.0000 </r>
       <r>  -68.5951    1.0000 </r>
       <r>  -68.5786    1.0000 </r>
       <r>  -68.5768    1.0000 </r>
       <r>  -68.5617    1.0000 </r>
       <r>  -68.5597    1.0000 </r>
       <r>  -12.3281    1.0000 </r>
       <r>  -11.4760    1.0000 </r>
       <r>  -10.8647    1.0000 </r>
       <r>  -10.8560    1.0000 </r>
       <r>  -10.4076    1.0000 </r>
       <r>  -10.2843    1.0000 </r>
       <r>   -5.7482    1.0000 </r>
       <r>   -4.6925    1.0000 </r>
       <r>   -2.2426    1.0000 </r>
       <r>   -2.1396    1.0000 </r>
       <r>   -1.9295    1.0000 </r>
       <r>   -1.8512    1.0000 </r>
       <r>   -1.4519    1.0000 </r>
       <r>   -1.3956    1.0000 </r>
       <r>   -1.0406    1.0000 </r>
       <r>   -0.5197    1.0000 </r>
       <r>   -0.4646    1.0000 </r>
       <r>   -0.3508    1.0000 </r>
       <r>   -0.2454    1.0000 </r>
       <r>   -0.2161    1.0000 </r>
       <r>   -0.1580    1.0000 </r>
       <r>   -0.1113    1.0000 </r>
       <r>   -0.0921    1.0000 </r>
       <r>    0.0807    1.0000 </r>
       <r>    1.2617    1.0000 </r>
       <r>    1.3476    1.0000 </r>
       <r>    1.3969    1.0000 </r>
       <r>    1.4349    1.0000 </r>
       <r>    1.4529    1.0000 </r>
       <r>    1.5103    1.0000 </r>
       <r>    1.5360    1.0000 </r>
       <r>    1.5430    1.0000 </r>
       <r>    1.7535    1.0000 </r>
       <r>    1.8161    1.0000 </r>
       <r>    2.0396    1.0000 </r>
       <r>    2.1367    1.0000 </r>
       <r>    2.2863    1.0000 </r>
       <r>    2.3109    1.0000 </r>
       <r>    2.5218    1.0000 </r>
       <r>    2.7705    1.0000 </r>
       <r>    2.8953    1.0000 </r>
       <r>    3.2607    1.0000 </r>
       <r>    3.4962    1.0000 </r>
       <r>    3.8002    1.0000 </r>
       <r>    6.1841   -0.0000 </r>
       <r>    6.8406   -0.0000 </r>
       <r>    7.8273    0.0000 </r>
       <r>    8.0429    0.0000 </r>
       <r>    8.1888    0.0000 </r>
       <r>    8.7261    0.0000 </r>
       <r>    9.1534    0.0000 </r>
       <r>    9.3074    0.0000 </r>
       <r>   10.2183    0.0000 </r>
       <r>   10.4410    0.0000 </r>
       <r>   10.5927    0.0000 </r>
       <r>   11.0063    0.0000 </r>
       <r>   11.2385    0.0000 </r>
       <r>   11.4886    0.0000 </r>
       <r>   11.8107    0.0000 </r>
       <r>   12.1724    0.0000 </r>
       <r>   12.2086    0.0000 </r>
       <r>   12.5743    0.0000 </r>
       <r>   12.6931    0.0000 </r>
       <r>   13.1139    0.0000 </r>
       <r>   13.4165    0.0000 </r>
       <r>   13.8831    0.0000 </r>
       <r>   14.0043    0.0000 </r>
       <r>   14.5249    0.0000 </r>
      </set>
      <set comment="kpoint 17">
       <r>  -68.6478    1.0000 </r>
       <r>  -68.6445    1.0000 </r>
       <r>  -68.6344    1.0000 </r>
       <r>  -68.6326    1.0000 </r>
       <r>  -68.6126    1.0000 </r>
       <r>  -68.6126    1.0000 </r>
       <r>  -68.5983    1.0000 </r>
       <r>  -68.5951    1.0000 </r>
       <r>  -68.5785    1.0000 </r>
       <r>  -68.5769    1.0000 </r>
       <r>  -68.5616    1.0000 </r>
       <r>  -68.5598    1.0000 </r>
       <r>  -12.3749    1.0000 </r>
       <r>  -11.4740    1.0000 </r>
       <r>  -10.9376    1.0000 </r>
       <r>  -10.6550    1.0000 </r>
       <r>  -10.4151    1.0000 </r>
       <r>  -10.3054    1.0000 </r>
       <r>   -5.8010    1.0000 </r>
       <r>   -4.8374    1.0000 </r>
       <r>   -2.5280    1.0000 </r>
       <r>   -2.2430    1.0000 </r>
       <r>   -1.8732    1.0000 </r>
       <r>   -1.6444    1.0000 </r>
       <r>   -1.5026    1.0000 </r>
       <r>   -1.3084    1.0000 </r>
       <r>   -0.9023    1.0000 </r>
       <r>   -0.5376    1.0000 </r>
       <r>   -0.3770    1.0000 </r>
       <r>   -0.3491    1.0000 </r>
       <r>   -0.2235    1.0000 </r>
       <r>   -0.1771    1.0000 </r>
       <r>   -0.1626    1.0000 </r>
       <r>   -0.0762    1.0000 </r>
       <r>   -0.0223    1.0000 </r>
       <r>    0.0807    1.0000 </r>
       <r>    1.1893    1.0000 </r>
       <r>    1.3641    1.0000 </r>
       <r>    1.3979    1.0000 </r>
       <r>    1.4410    1.0000 </r>
       <r>    1.4632    1.0000 </r>
       <r>    1.5062    1.0000 </r>
       <r>    1.5192    1.0000 </r>
       <r>    1.5858    1.0000 </r>
       <r>    1.7400    1.0000 </r>
       <r>    1.8191    1.0000 </r>
       <r>    2.0367    1.0000 </r>
       <r>    2.2358    1.0000 </r>
       <r>    2.2701    1.0000 </r>
       <r>    2.3621    1.0000 </r>
       <r>    2.4889    1.0000 </r>
       <r>    2.6682    1.0000 </r>
       <r>    3.0523    1.0000 </r>
       <r>    3.4105    1.0000 </r>
       <r>    3.7271    1.0000 </r>
       <r>    3.8632    1.0000 </r>
       <r>    5.9320   -0.0000 </r>
       <r>    6.6130   -0.0000 </r>
       <r>    7.3536    0.0000 </r>
       <r>    7.9415    0.0000 </r>
       <r>    8.0642    0.0000 </r>
       <r>    8.7242    0.0000 </r>
       <r>    8.9051    0.0000 </r>
       <r>    9.1396    0.0000 </r>
       <r>    9.8434    0.0000 </r>
       <r>   10.3287    0.0000 </r>
       <r>   10.5575    0.0000 </r>
       <r>   10.9271    0.0000 </r>
       <r>   11.2218    0.0000 </r>
       <r>   11.4188    0.0000 </r>
       <r>   11.7508    0.0000 </r>
       <r>   12.0050    0.0000 </r>
       <r>   12.4962    0.0000 </r>
       <r>   12.8317    0.0000 </r>
       <r>   13.2037    0.0000 </r>
       <r>   14.1847    0.0000 </r>
       <r>   14.7136    0.0000 </r>
       <r>   15.1630    0.0000 </r>
       <r>   15.9141    0.0000 </r>
       <r>   16.5672    0.0000 </r>
      </set>
      <set comment="kpoint 18">
       <r>  -68.6481    1.0000 </r>
       <r>  -68.6446    1.0000 </r>
       <r>  -68.6345    1.0000 </r>
       <r>  -68.6326    1.0000 </r>
       <r>  -68.6127    1.0000 </r>
       <r>  -68.6126    1.0000 </r>
       <r>  -68.5984    1.0000 </r>
       <r>  -68.5952    1.0000 </r>
       <r>  -68.5787    1.0000 </r>
       <r>  -68.5768    1.0000 </r>
       <r>  -68.5617    1.0000 </r>
       <r>  -68.5598    1.0000 </r>
       <r>  -12.5011    1.0000 </r>
       <r>  -11.4257    1.0000 </r>
       <r>  -10.9492    1.0000 </r>
       <r>  -10.5833    1.0000 </r>
       <r>  -10.3720    1.0000 </r>
       <r>  -10.2067    1.0000 </r>
       <r>   -5.8288    1.0000 </r>
       <r>   -4.9415    1.0000 </r>
       <r>   -2.5725    1.0000 </r>
       <r>   -2.3656    1.0000 </r>
       <r>   -1.9212    1.0000 </r>
       <r>   -1.5942    1.0000 </r>
       <r>   -1.4153    1.0000 </r>
       <r>   -1.1191    1.0000 </r>
       <r>   -0.8181    1.0000 </r>
       <r>   -0.6742    1.0000 </r>
       <r>   -0.5330    1.0000 </r>
       <r>   -0.4734    1.0000 </r>
       <r>   -0.2557    1.0000 </r>
       <r>   -0.1941    1.0000 </r>
       <r>   -0.1657    1.0000 </r>
       <r>   -0.1164    1.0000 </r>
       <r>   -0.0352    1.0000 </r>
       <r>    0.0580    1.0000 </r>
       <r>    1.2799    1.0000 </r>
       <r>    1.3236    1.0000 </r>
       <r>    1.3445    1.0000 </r>
       <r>    1.4341    1.0000 </r>
       <r>    1.4514    1.0000 </r>
       <r>    1.4683    1.0000 </r>
       <r>    1.4922    1.0000 </r>
       <r>    1.5591    1.0000 </r>
       <r>    1.7282    1.0000 </r>
       <r>    1.8429    1.0000 </r>
       <r>    1.9682    1.0000 </r>
       <r>    2.0988    1.0000 </r>
       <r>    2.3358    1.0000 </r>
       <r>    2.4478    1.0000 </r>
       <r>    2.5416    1.0000 </r>
       <r>    2.8502    1.0000 </r>
       <r>    3.0538    1.0000 </r>
       <r>    3.2647    1.0000 </r>
       <r>    3.6714    1.0000 </r>
       <r>    3.7819    1.0000 </r>
       <r>    6.2619   -0.0000 </r>
       <r>    6.7981   -0.0000 </r>
       <r>    7.8145    0.0000 </r>
       <r>    8.1353    0.0000 </r>
       <r>    8.3365    0.0000 </r>
       <r>    8.9303    0.0000 </r>
       <r>    9.3391    0.0000 </r>
[...]
       <r>   11.7079    0.0000 </r>
       <r>   11.8959    0.0000 </r>
       <r>   12.3007    0.0000 </r>
       <r>   12.6576    0.0000 </r>
       <r>   13.0093    0.0000 </r>
       <r>   13.2275    0.0000 </r>
       <r>   13.6672    0.0000 </r>
       <r>   14.0776    0.0000 </r>
       <r>   14.4028    0.0000 </r>
       <r>   16.5476    0.0000 </r>
      </set>
      <set comment="kpoint 42">
       <r>  -68.6480    1.0000 </r>
       <r>  -68.6446    1.0000 </r>
       <r>  -68.6342    1.0000 </r>
       <r>  -68.6324    1.0000 </r>
       <r>  -68.6126    1.0000 </r>
       <r>  -68.6126    1.0000 </r>
       <r>  -68.5981    1.0000 </r>
       <r>  -68.5950    1.0000 </r>
       <r>  -68.5785    1.0000 </r>
       <r>  -68.5769    1.0000 </r>
       <r>  -68.5617    1.0000 </r>
       <r>  -68.5598    1.0000 </r>
       <r>  -12.1800    1.0000 </r>
       <r>  -11.7073    1.0000 </r>
       <r>  -10.7180    1.0000 </r>
       <r>  -10.6916    1.0000 </r>
       <r>  -10.5866    1.0000 </r>
       <r>  -10.3903    1.0000 </r>
       <r>   -5.4460    1.0000 </r>
       <r>   -5.0728    1.0000 </r>
       <r>   -2.5096    1.0000 </r>
       <r>   -2.3813    1.0000 </r>
       <r>   -1.9622    1.0000 </r>
       <r>   -1.3699    1.0000 </r>
       <r>   -1.3316    1.0000 </r>
       <r>   -1.0545    1.0000 </r>
       <r>   -0.8316    1.0000 </r>
       <r>   -0.7645    1.0000 </r>
       <r>   -0.4240    1.0000 </r>
       <r>   -0.3379    1.0000 </r>
       <r>   -0.2733    1.0000 </r>
       <r>   -0.2104    1.0000 </r>
       <r>   -0.1437    1.0000 </r>
       <r>   -0.1372    1.0000 </r>
       <r>   -0.0104    1.0000 </r>
       <r>    0.0289    1.0000 </r>
       <r>    1.1727    1.0000 </r>
       <r>    1.3709    1.0000 </r>
       <r>    1.3973    1.0000 </r>
       <r>    1.4526    1.0000 </r>
       <r>    1.4545    1.0000 </r>
       <r>    1.4981    1.0000 </r>
       <r>    1.5171    1.0000 </r>
       <r>    1.5505    1.0000 </r>
       <r>    1.7439    1.0000 </r>
       <r>    1.8192    1.0000 </r>
       <r>    1.9780    1.0000 </r>
       <r>    2.2283    1.0000 </r>
       <r>    2.3983    1.0000 </r>
       <r>    2.6123    1.0000 </r>
       <r>    2.6532    1.0000 </r>
       <r>    2.9147    1.0000 </r>
       <r>    3.0688    1.0000 </r>
       <r>    3.1175    1.0000 </r>
       <r>    3.2863    1.0000 </r>
       <r>    3.5795    1.0000 </r>
       <r>    6.2905   -0.0000 </r>
       <r>    6.3799   -0.0000 </r>
       <r>    7.3587    0.0000 </r>
       <r>    7.5225    0.0000 </r>
       <r>    8.3084    0.0000 </r>
       <r>    8.3330    0.0000 </r>
       <r>    9.1060    0.0000 </r>
       <r>    9.3595    0.0000 </r>
       <r>    9.7162    0.0000 </r>
       <r>    9.9478    0.0000 </r>
       <r>   10.5269    0.0000 </r>
       <r>   10.9889    0.0000 </r>
       <r>   11.4240    0.0000 </r>
       <r>   11.5665    0.0000 </r>
       <r>   12.0179    0.0000 </r>
       <r>   12.2851    0.0000 </r>
       <r>   12.4267    0.0000 </r>
       <r>   12.4748    0.0000 </r>
       <r>   13.0349    0.0000 </r>
       <r>   13.1497    0.0000 </r>
       <r>   14.1395    0.0000 </r>
       <r>   14.4374    0.0000 </r>
       <r>   15.1665    0.0000 </r>
       <r>   15.8670    0.0000 </r>
      </set>
     </set>
    </set>
   </array>
  </eigenvalues>
  <separator name="orbital magnetization" >
   <v name="MAGDIPOLOUT">      0.00000000      0.00000000      0.00000000</v>
  </separator>
  <dos>
   <i name="efermi">      4.21879872 </i>
   <total>
    <array>
     <dimension dim="1">gridpoints</dimension>
     <dimension dim="2">spin</dimension>
     <field>energy</field>
     <field>total</field>
     <field>integrated</field>
     <set>
      <set comment="spin 1">
       <r>   -72.8301     0.0000     0.0000 </r>
       <r>   -72.5238     0.0000     0.0000 </r>
       <r>   -72.2174     0.0000     0.0000 </r>
       <r>   -71.9110     0.0000     0.0000 </r>
       <r>   -71.6046     0.0000     0.0000 </r>
       <r>   -71.2982     0.0000     0.0000 </r>
       <r>   -70.9918     0.0000     0.0000 </r>
       <r>   -70.6855     0.0000     0.0000 </r>
       <r>   -70.3791     0.0000     0.0000 </r>
       <r>   -70.0727     0.0000     0.0000 </r>
       <r>   -69.7663     0.0000     0.0000 </r>
       <r>   -69.4599    -0.0000    -0.0000 </r>
       <r>   -69.1536    -0.0000    -0.0000 </r>
       <r>   -68.8472    -0.2196    -0.0673 </r>
       <r>   -68.5408    70.2907    21.4685 </r>
       <r>   -68.2344     8.2631    24.0001 </r>
       <r>   -67.9280    -0.0004    24.0000 </r>
       <r>   -67.6217     0.0000    24.0000 </r>
       <r>   -67.3153     0.0000    24.0000 </r>
       <r>   -67.0089     0.0000    24.0000 </r>
       <r>   -66.7025     0.0000    24.0000 </r>
       <r>   -66.3961     0.0000    24.0000 </r>
       <r>   -66.0898     0.0000    24.0000 </r>
       <r>   -65.7834     0.0000    24.0000 </r>
       <r>   -65.4770     0.0000    24.0000 </r>
       <r>   -65.1706     0.0000    24.0000 </r>
       <r>   -64.8642     0.0000    24.0000 </r>
       <r>   -64.5578     0.0000    24.0000 </r>
       <r>   -64.2515     0.0000    24.0000 </r>
       <r>   -63.9451     0.0000    24.0000 </r>
       <r>   -63.6387     0.0000    24.0000 </r>
       <r>   -63.3323     0.0000    24.0000 </r>
       <r>   -63.0259     0.0000    24.0000 </r>
       <r>   -62.7196     0.0000    24.0000 </r>
       <r>   -62.4132     0.0000    24.0000 </r>
       <r>   -62.1068     0.0000    24.0000 </r>
       <r>   -61.8004     0.0000    24.0000 </r>
       <r>   -61.4940     0.0000    24.0000 </r>
       <r>   -61.1877     0.0000    24.0000 </r>
       <r>   -60.8813     0.0000    24.0000 </r>
       <r>   -60.5749     0.0000    24.0000 </r>
       <r>   -60.2685     0.0000    24.0000 </r>
       <r>   -59.9621     0.0000    24.0000 </r>
       <r>   -59.6557     0.0000    24.0000 </r>
       <r>   -59.3494     0.0000    24.0000 </r>
       <r>   -59.0430     0.0000    24.0000 </r>
       <r>   -58.7366     0.0000    24.0000 </r>
       <r>   -58.4302     0.0000    24.0000 </r>
       <r>   -58.1238     0.0000    24.0000 </r>
       <r>   -57.8175     0.0000    24.0000 </r>
       <r>   -57.5111     0.0000    24.0000 </r>
       <r>   -57.2047     0.0000    24.0000 </r>
       <r>   -56.8983     0.0000    24.0000 </r>
       <r>   -56.5919     0.0000    24.0000 </r>
       <r>   -56.2856     0.0000    24.0000 </r>
       <r>   -55.9792     0.0000    24.0000 </r>
       <r>   -55.6728     0.0000    24.0000 </r>
       <r>   -55.3664     0.0000    24.0000 </r>
       <r>   -55.0600     0.0000    24.0000 </r>
       <r>   -54.7537     0.0000    24.0000 </r>
       <r>   -54.4473     0.0000    24.0000 </r>
       <r>   -54.1409     0.0000    24.0000 </r>
       <r>   -53.8345     0.0000    24.0000 </r>
       <r>   -53.5281     0.0000    24.0000 </r>
       <r>   -53.2217     0.0000    24.0000 </r>
       <r>   -52.9154     0.0000    24.0000 </r>
       <r>   -52.6090     0.0000    24.0000 </r>
       <r>   -52.3026     0.0000    24.0000 </r>
       <r>   -51.9962     0.0000    24.0000 </r>
       <r>   -51.6898     0.0000    24.0000 </r>
       <r>   -51.3835     0.0000    24.0000 </r>
       <r>   -51.0771     0.0000    24.0000 </r>
       <r>   -50.7707     0.0000    24.0000 </r>
       <r>   -50.4643     0.0000    24.0000 </r>
       <r>   -50.1579     0.0000    24.0000 </r>
       <r>   -49.8516     0.0000    24.0000 </r>
       <r>   -49.5452     0.0000    24.0000 </r>
       <r>   -49.2388     0.0000    24.0000 </r>
       <r>   -48.9324     0.0000    24.0000 </r>
       <r>   -48.6260     0.0000    24.0000 </r>
       <r>   -48.3197     0.0000    24.0000 </r>
       <r>   -48.0133     0.0000    24.0000 </r>
       <r>   -47.7069     0.0000    24.0000 </r>
       <r>   -47.4005     0.0000    24.0000 </r>
       <r>   -47.0941     0.0000    24.0000 </r>
       <r>   -46.7877     0.0000    24.0000 </r>
       <r>   -46.4814     0.0000    24.0000 </r>
       <r>   -46.1750     0.0000    24.0000 </r>
       <r>   -45.8686     0.0000    24.0000 </r>
       <r>   -45.5622     0.0000    24.0000 </r>
       <r>   -45.2558     0.0000    24.0000 </r>
       <r>   -44.9495     0.0000    24.0000 </r>
       <r>   -44.6431     0.0000    24.0000 </r>
       <r>   -44.3367     0.0000    24.0000 </r>
       <r>   -44.0303     0.0000    24.0000 </r>
       <r>   -43.7239     0.0000    24.0000 </r>
       <r>   -43.4176     0.0000    24.0000 </r>
       <r>   -43.1112     0.0000    24.0000 </r>
       <r>   -42.8048     0.0000    24.0000 </r>
       <r>   -42.4984     0.0000    24.0000 </r>
       <r>   -42.1920     0.0000    24.0000 </r>
       <r>   -41.8856     0.0000    24.0000 </r>
       <r>   -41.5793     0.0000    24.0000 </r>
       <r>   -41.2729     0.0000    24.0000 </r>
       <r>   -40.9665     0.0000    24.0000 </r>
       <r>   -40.6601     0.0000    24.0000 </r>
       <r>   -40.3537     0.0000    24.0000 </r>
       <r>   -40.0474     0.0000    24.0000 </r>
       <r>   -39.7410     0.0000    24.0000 </r>
       <r>   -39.4346     0.0000    24.0000 </r>
       <r>   -39.1282     0.0000    24.0000 </r>
       <r>   -38.8218     0.0000    24.0000 </r>
       <r>   -38.5155     0.0000    24.0000 </r>
       <r>   -38.2091     0.0000    24.0000 </r>
       <r>   -37.9027     0.0000    24.0000 </r>
       <r>   -37.5963     0.0000    24.0000 </r>
       <r>   -37.2899     0.0000    24.0000 </r>
       <r>   -36.9836     0.0000    24.0000 </r>
       <r>   -36.6772     0.0000    24.0000 </r>
       <r>   -36.3708     0.0000    24.0000 </r>
       <r>   -36.0644     0.0000    24.0000 </r>
       <r>   -35.7580     0.0000    24.0000 </r>
       <r>   -35.4516     0.0000    24.0000 </r>
       <r>   -35.1453     0.0000    24.0000 </r>
       <r>   -34.8389     0.0000    24.0000 </r>
       <r>   -34.5325     0.0000    24.0000 </r>
       <r>   -34.2261     0.0000    24.0000 </r>
       <r>   -33.9197     0.0000    24.0000 </r>
       <r>   -33.6134     0.0000    24.0000 </r>
       <r>   -33.3070     0.0000    24.0000 </r>
       <r>   -33.0006     0.0000    24.0000 </r>
       <r>   -32.6942     0.0000    24.0000 </r>
       <r>   -32.3878     0.0000    24.0000 </r>
       <r>   -32.0815     0.0000    24.0000 </r>
       <r>   -31.7751     0.0000    24.0000 </r>
       <r>   -31.4687     0.0000    24.0000 </r>
       <r>   -31.1623     0.0000    24.0000 </r>
       <r>   -30.8559     0.0000    24.0000 </r>
       <r>   -30.5496     0.0000    24.0000 </r>
       <r>   -30.2432     0.0000    24.0000 </r>
       <r>   -29.9368     0.0000    24.0000 </r>
       <r>   -29.6304     0.0000    24.0000 </r>
       <r>   -29.3240     0.0000    24.0000 </r>
       <r>   -29.0176     0.0000    24.0000 </r>
       <r>   -28.7113     0.0000    24.0000 </r>
       <r>   -28.4049     0.0000    24.0000 </r>
       <r>   -28.0985     0.0000    24.0000 </r>
       <r>   -27.7921     0.0000    24.0000 </r>
       <r>   -27.4857     0.0000    24.0000 </r>
       <r>   -27.1794     0.0000    24.0000 </r>
       <r>   -26.8730     0.0000    24.0000 </r>
       <r>   -26.5666     0.0000    24.0000 </r>
       <r>   -26.2602     0.0000    24.0000 </r>
       <r>   -25.9538     0.0000    24.0000 </r>
       <r>   -25.6475     0.0000    24.0000 </r>
       <r>   -25.3411     0.0000    24.0000 </r>
       <r>   -25.0347     0.0000    24.0000 </r>
       <r>   -24.7283     0.0000    24.0000 </r>
       <r>   -24.4219     0.0000    24.0000 </r>
       <r>   -24.1155     0.0000    24.0000 </r>
       <r>   -23.8092     0.0000    24.0000 </r>
       <r>   -23.5028     0.0000    24.0000 </r>
       <r>   -23.1964     0.0000    24.0000 </r>
       <r>   -22.8900     0.0000    24.0000 </r>
       <r>   -22.5836     0.0000    24.0000 </r>
       <r>   -22.2773     0.0000    24.0000 </r>
       <r>   -21.9709     0.0000    24.0000 </r>
       <r>   -21.6645     0.0000    24.0000 </r>
       <r>   -21.3581     0.0000    24.0000 </r>
       <r>   -21.0517     0.0000    24.0000 </r>
       <r>   -20.7454     0.0000    24.0000 </r>
       <r>   -20.4390     0.0000    24.0000 </r>
       <r>   -20.1326     0.0000    24.0000 </r>
       <r>   -19.8262     0.0000    24.0000 </r>
       <r>   -19.5198     0.0000    24.0000 </r>
       <r>   -19.2135     0.0000    24.0000 </r>
       <r>   -18.9071     0.0000    24.0000 </r>
       <r>   -18.6007     0.0000    24.0000 </r>
       <r>   -18.2943     0.0000    24.0000 </r>
       <r>   -17.9879     0.0000    24.0000 </r>
       <r>   -17.6815     0.0000    24.0000 </r>
       <r>   -17.3752     0.0000    24.0000 </r>
       <r>   -17.0688     0.0000    24.0000 </r>
       <r>   -16.7624     0.0000    24.0000 </r>
       <r>   -16.4560     0.0000    24.0000 </r>
       <r>   -16.1496     0.0000    24.0000 </r>
       <r>   -15.8433     0.0000    24.0000 </r>
       <r>   -15.5369     0.0000    24.0000 </r>
       <r>   -15.2305     0.0000    24.0000 </r>
       <r>   -14.9241     0.0000    24.0000 </r>
       <r>   -14.6177     0.0000    24.0000 </r>
       <r>   -14.3114     0.0000    24.0000 </r>
       <r>   -14.0050     0.0000    24.0000 </r>
       <r>   -13.6986    -0.0000    24.0000 </r>
       <r>   -13.3922    -0.0000    24.0000 </r>
       <r>   -13.0858    -0.0000    24.0000 </r>
       <r>   -12.7795    -0.0038    23.9988 </r>
       <r>   -12.4731     1.5617    24.4773 </r>
       <r>   -12.1667     3.5688    25.5707 </r>
       <r>   -11.8603     1.9031    26.1538 </r>
       <r>   -11.5539     2.1397    26.8093 </r>
       <r>   -11.2475     3.1900    27.7867 </r>
       <r>   -10.9412     2.5658    28.5728 </r>
       <r>   -10.6348     9.3006    31.4223 </r>
       <r>   -10.3284     9.2859    34.2673 </r>
       <r>   -10.0220     5.6740    36.0058 </r>
       <r>    -9.7156    -0.0188    36.0000 </r>
       <r>    -9.4093    -0.0000    36.0000 </r>
       <r>    -9.1029     0.0000    36.0000 </r>
       <r>    -8.7965     0.0000    36.0000 </r>
       <r>    -8.4901     0.0000    36.0000 </r>
       <r>    -8.1837     0.0000    36.0000 </r>
       <r>    -7.8774     0.0000    36.0000 </r>
       <r>    -7.5710     0.0000    36.0000 </r>
       <r>    -7.2646     0.0000    36.0000 </r>
       <r>    -6.9582    -0.0000    36.0000 </r>
       <r>    -6.6518    -0.0000    36.0000 </r>
       <r>    -6.3454    -0.0000    36.0000 </r>
       <r>    -6.0391     0.0578    36.0177 </r>
       <r>    -5.7327     3.4955    37.0887 </r>
       <r>    -5.4263     2.0552    37.7184 </r>
       <r>    -5.1199     1.8742    38.2926 </r>
       <r>    -4.8135     3.3044    39.3050 </r>
       <r>    -4.5072     2.2049    39.9805 </r>
       <r>    -4.2008     0.0636    40.0000 </r>
       <r>    -3.8944    -0.0000    40.0000 </r>
       <r>    -3.5880    -0.0000    40.0000 </r>
       <r>    -3.2816    -0.0000    40.0000 </r>
       <r>    -2.9753    -0.0004    39.9999 </r>
       <r>    -2.6689     0.3785    40.1158 </r>
       <r>    -2.3625     6.1683    42.0057 </r>
       <r>    -2.0561     6.6794    44.0521 </r>
       <r>    -1.7497     7.3611    46.3074 </r>
       <r>    -1.4434     6.4010    48.2686 </r>
       <r>    -1.1370     8.7464    50.9483 </r>
       <r>    -0.8306     9.0713    53.7276 </r>
       <r>    -0.5242    11.3919    57.2179 </r>
       <r>    -0.2178    18.1317    62.7731 </r>
       <r>     0.0886    28.9490    71.6425 </r>
       <r>     0.3949     1.1675    72.0002 </r>
       <r>     0.7013    -0.0007    72.0000 </r>
       <r>     1.0077    -0.0204    71.9938 </r>
       <r>     1.3141     7.4374    74.2724 </r>
       <r>     1.6205    44.8111    88.0017 </r>
       <r>     1.9268    13.8279    92.2383 </r>
       <r>     2.2332    13.1390    96.2638 </r>
       <r>     2.5396    12.8654   100.2056 </r>
       <r>     2.8460    11.1682   103.6273 </r>
       <r>     3.1524     9.0540   106.4013 </r>
       <r>     3.4587     7.9247   108.8292 </r>
       <r>     3.7651     6.9510   110.9589 </r>
       <r>     4.0715     3.1584   111.9266 </r>
       <r>     4.3779     0.2403   112.0002 </r>
       <r>     4.6843    -0.0005   112.0000 </r>
       <r>     4.9907    -0.0000   112.0000 </r>
       <r>     5.2970    -0.0001   112.0000 </r>
       <r>     5.6034     0.0770   112.0236 </r>
       <r>     5.9098     0.1704   112.0758 </r>
       <r>     6.2162     2.6365   112.8835 </r>
       <r>     6.5226     4.3732   114.2234 </r>
       <r>     6.8289     3.4461   115.2792 </r>
       <r>     7.1353     2.4199   116.0206 </r>
       <r>     7.4417     1.4282   116.4582 </r>
       <r>     7.7481     3.1904   117.4357 </r>
       <r>     8.0545     5.5680   119.1416 </r>
       <r>     8.3608     5.5486   120.8416 </r>
       <r>     8.6672     4.5956   122.2496 </r>
       <r>     8.9736     4.4635   123.6171 </r>
       <r>     9.2800     5.6029   125.3337 </r>
       <r>     9.5864     5.6981   127.0795 </r>
       <r>     9.8927     4.7787   128.5436 </r>
       <r>    10.1991     4.4577   129.9094 </r>
       <r>    10.5055     6.4932   131.8988 </r>
       <r>    10.8119     8.2783   134.4351 </r>
       <r>    11.1183     8.2810   136.9722 </r>
       <r>    11.4247     7.9524   139.4086 </r>
       <r>    11.7310     7.9106   141.8323 </r>
       <r>    12.0374     6.5783   143.8477 </r>
       <r>    12.3438     5.8676   145.6455 </r>
       <r>    12.6502     6.6349   147.6783 </r>
       <r>    12.9566     5.7944   149.4536 </r>
       <r>    13.2629     6.2159   151.3580 </r>
       <r>    13.5693     5.3359   152.9929 </r>
       <r>    13.8757     4.0529   154.2346 </r>
       <r>    14.1821     3.1777   155.2082 </r>
       <r>    14.4885     4.5832   156.6124 </r>
       <r>    14.7948     3.4995   157.6846 </r>
       <r>    15.1012     1.3997   158.1134 </r>
       <r>    15.4076     1.5924   158.6013 </r>
       <r>    15.7140     1.2180   158.9745 </r>
       <r>    16.0204     1.6901   159.4923 </r>
       <r>    16.3267     0.3276   159.5926 </r>
       <r>    16.6331     0.6823   159.8017 </r>
       <r>    16.9395     0.5282   159.9635 </r>
       <r>    17.2459     0.1191   160.0000 </r>
       <r>    17.5523    -0.0000   160.0000 </r>
       <r>    17.8587     0.0000   160.0000 </r>
       <r>    18.1650     0.0000   160.0000 </r>
       <r>    18.4714     0.0000   160.0000 </r>
       <r>    18.7778     0.0000   160.0000 </r>
       <r>    19.0842     0.0000   160.0000 </r>
      </set>
     </set>
    </array>
   </total>
  </dos>
 </calculation>
 <structure name="finalpos" >
  <crystal>
   <varray name="basis" >
    <v>       3.22479600      -5.64383000       0.03157200 </v>
    <v>       3.22479600       5.64383000       0.03157200 </v>
    <v>      -2.10194600       0.00000000       6.07553700 </v>
   </varray>
   <i name="volume">    221.90106089 </i>
   <varray name="rec_basis" >
    <v>       0.15452516      -0.08859232       0.05346088 </v>
    <v>       0.15452516       0.08859232       0.05346088 </v>
    <v>      -0.00160600       0.00000000       0.16403888 </v>
   </varray>
  </crystal>
  <varray name="positions" >
   <v>       0.61844300       0.12117100       0.11797752 </v>
   <v>       0.12117100       0.61844300       0.61953300 </v>
   <v>       0.96295700       0.79032200       0.11881300 </v>
   <v>       0.79032200       0.96295700       0.61881300 </v>
   <v>       0.43973200       0.26728100       0.59904700 </v>
   <v>       0.26728100       0.43973200       0.09904700 </v>
   <v>       0.07949800       0.91167500       0.49736300 </v>
   <v>       0.57140300       0.41236400       0.98018400 </v>
   <v>       0.73711100       0.25006200       0.49504900 </v>
   <v>       0.41236400       0.57140300       0.48018400 </v>
   <v>       0.91167500       0.07949800       0.99736300 </v>
   <v>       0.25006200       0.73711100       0.99504900 </v>
  </varray>
 </structure>
</modeling>
