       N       E                     dE             d eps       ncg     rms          ort
SDA:   1     0.755220265861E+02    0.75522E+02   -0.21319E+03  3360   0.533E+03 0.000E+00
DMP:   2    -0.838188221095E+01   -0.83904E+02   -0.14689E+03  3360   0.395E+03-0.737E+02
DMP:   3    -0.152265229859E+02   -0.68446E+01   -0.20361E+03  3360   0.693E+03-0.482E+03
DMP:   4    -0.227132902246E+02   -0.74868E+01   -0.10725E+03  3360   0.390E+03-0.319E+03
DMP:   5    -0.608212480645E+02   -0.38108E+02   -0.15055E+02  3360   0.705E+02-0.862E+02
DMP:   6    -0.659411484152E+02   -0.51199E+01   -0.81499E+01  3360   0.246E+02-0.110E+02
DMP:   7    -0.674778165446E+02   -0.15367E+01   -0.41260E+01  3360   0.147E+02-0.114E+02
DMP:   8    -0.690852097753E+02   -0.16074E+01   -0.77033E+00  3360   0.283E+01-0.237E+01
DMP:   9    -0.693951753326E+02   -0.30997E+00   -0.38530E+00  3360   0.110E+01-0.366E+00
DMP:  10    -0.694987161469E+02   -0.10354E+00   -0.15199E+00  3360   0.546E+00-0.435E+00
DMP:  11    -0.695681860270E+02   -0.69470E-01   -0.36853E-01  3360   0.105E+00-0.339E-01
DMP:  12    -0.695805335832E+02   -0.12348E-01   -0.22794E-01  3360   0.688E-01-0.309E-01
DMP:  13    -0.695901720966E+02   -0.96385E-02   -0.51134E-02  3360   0.161E-01-0.873E-02
DMP:  14    -0.695926240793E+02   -0.24520E-02   -0.37717E-02  3360   0.963E-02-0.515E-03
DMP:  15    -0.695941273368E+02   -0.15033E-02   -0.10356E-02  3360   0.332E-02-0.192E-02
DMP:  16    -0.695946970424E+02   -0.56971E-03   -0.40869E-03  3360   0.915E-03 0.279E-03
DMP:  17    -0.695948699163E+02   -0.17287E-03   -0.20814E-03  3360   0.578E-03-0.151E-03
DMP:  18    -0.695949866547E+02   -0.11674E-03   -0.56188E-04  3360   0.119E-03 0.552E-04
DMP:  19    -0.695950155627E+02   -0.28908E-04   -0.35193E-04  3360   0.880E-04-0.117E-06
DMP:  20    -0.695950352670E+02   -0.19704E-04   -0.11546E-04  3360   0.241E-04 0.125E-04
DMP:  21    -0.695950426372E+02   -0.73702E-05   -0.69992E-05  3360   0.140E-04 0.912E-05
   1 F= -.69595043E+02 E0= -.69595229E+02  d E =0.557825E-03
