       N       E                     dE             d eps       ncg     rms          ort
SDA:   1     0.757067001419E+02    0.75707E+02   -0.21360E+03  3360   0.534E+03 0.000E+00
DMP:   2    -0.824303665343E+01   -0.83950E+02   -0.14721E+03  3360   0.396E+03-0.743E+02
DMP:   3    -0.150366479421E+02   -0.67936E+01   -0.20558E+03  3360   0.701E+03-0.491E+03
DMP:   4    -0.225366087486E+02   -0.75000E+01   -0.10763E+03  3360   0.391E+03-0.320E+03
DMP:   5    -0.608088139848E+02   -0.38272E+02   -0.15061E+02  3360   0.706E+02-0.862E+02
DMP:   6    -0.659133864344E+02   -0.51046E+01   -0.82307E+01  3360   0.248E+02-0.111E+02
DMP:   7    -0.674630016078E+02   -0.15496E+01   -0.41546E+01  3360   0.148E+02-0.115E+02
DMP:   8    -0.690836759708E+02   -0.16207E+01   -0.77255E+00  3360   0.284E+01-0.238E+01
DMP:   9    -0.693940399761E+02   -0.31036E+00   -0.38898E+00  3360   0.111E+01-0.370E+00
DMP:  10    -0.694986202297E+02   -0.10458E+00   -0.15277E+00  3360   0.550E+00-0.439E+00
DMP:  11    -0.695684980873E+02   -0.69878E-01   -0.37064E-01  3360   0.106E+00-0.338E-01
DMP:  12    -0.695808679601E+02   -0.12370E-01   -0.22964E-01  3360   0.694E-01-0.313E-01
DMP:  13    -0.695905857004E+02   -0.97177E-02   -0.51349E-02  3360   0.162E-01-0.876E-02
DMP:  14    -0.695930450229E+02   -0.24593E-02   -0.38018E-02  3360   0.971E-02-0.532E-03
DMP:  15    -0.695945589805E+02   -0.15140E-02   -0.10416E-02  3360   0.335E-02-0.194E-02
DMP:  16    -0.695951322919E+02   -0.57331E-03   -0.41121E-03  3360   0.920E-03 0.282E-03
DMP:  17    -0.695953058578E+02   -0.17357E-03   -0.20950E-03  3360   0.582E-03-0.153E-03
DMP:  18    -0.695954233504E+02   -0.11749E-03   -0.56371E-04  3360   0.120E-03 0.556E-04
DMP:  19    -0.695954522966E+02   -0.28946E-04   -0.35408E-04  3360   0.887E-04-0.401E-06
DMP:  20    -0.695954721063E+02   -0.19810E-04   -0.11606E-04  3360   0.242E-04 0.125E-04
DMP:  21    -0.695954795160E+02   -0.74096E-05   -0.70319E-05  3360   0.141E-04 0.917E-05
   1 F= -.69595480E+02 E0= -.69595670E+02  d E =0.572453E-03
