  12  12   0   0
  0.1849176E+02  0.6500240E-09  0.6500240E-09  0.6428867E-09  0.5000000E-15
  1.000000000000000E-004
  CAR 
 CGS                                     
     19.08417857    -72.83013473  301      4.21683662      1.00000000
    -72.830  0.0000E+00  0.0000E+00
    -72.524  0.0000E+00  0.0000E+00
    -72.217  0.0000E+00  0.0000E+00
    -71.911  0.0000E+00  0.0000E+00
    -71.605  0.0000E+00  0.0000E+00
    -71.298  0.0000E+00  0.0000E+00
    -70.992  0.0000E+00  0.0000E+00
    -70.685  0.0000E+00  0.0000E+00
    -70.379  0.0000E+00  0.0000E+00
    -70.073  0.0000E+00  0.0000E+00
    -69.766  0.0000E+00  0.0000E+00
    -69.460 -0.3698E-27 -0.1133E-27
    -69.154 -0.1154E-09 -0.3535E-10
    -68.847 -0.1962E+00 -0.6011E-01
    -68.541  0.6923E+02  0.2115E+02
    -68.234  0.9300E+01  0.2400E+02
    -67.928 -0.4769E-03  0.2400E+02
    -67.622  0.0000E+00  0.2400E+02
    -67.315  0.0000E+00  0.2400E+02
    -67.009  0.0000E+00  0.2400E+02
    -66.703  0.0000E+00  0.2400E+02
    -66.396  0.0000E+00  0.2400E+02
    -66.090  0.0000E+00  0.2400E+02
    -65.783  0.0000E+00  0.2400E+02
    -65.477  0.0000E+00  0.2400E+02
    -65.171  0.0000E+00  0.2400E+02
    -64.864  0.0000E+00  0.2400E+02
    -64.558  0.0000E+00  0.2400E+02
    -64.251  0.0000E+00  0.2400E+02
    -63.945  0.0000E+00  0.2400E+02
    -63.639  0.0000E+00  0.2400E+02
    -63.332  0.0000E+00  0.2400E+02
    -63.026  0.0000E+00  0.2400E+02
    -62.720  0.0000E+00  0.2400E+02
    -62.413  0.0000E+00  0.2400E+02
    -62.107  0.0000E+00  0.2400E+02
    -61.800  0.0000E+00  0.2400E+02
    -61.494  0.0000E+00  0.2400E+02
    -61.188  0.0000E+00  0.2400E+02
    -60.881  0.0000E+00  0.2400E+02
    -60.575  0.0000E+00  0.2400E+02
    -60.269  0.0000E+00  0.2400E+02
    -59.962  0.0000E+00  0.2400E+02
    -59.656  0.0000E+00  0.2400E+02
    -59.349  0.0000E+00  0.2400E+02
    -59.043  0.0000E+00  0.2400E+02
    -58.737  0.0000E+00  0.2400E+02
    -58.430  0.0000E+00  0.2400E+02
    -58.124  0.0000E+00  0.2400E+02
    -57.817  0.0000E+00  0.2400E+02
    -57.511  0.0000E+00  0.2400E+02
    -57.205  0.0000E+00  0.2400E+02
    -56.898  0.0000E+00  0.2400E+02
    -56.592  0.0000E+00  0.2400E+02
    -56.286  0.0000E+00  0.2400E+02
    -55.979  0.0000E+00  0.2400E+02
    -55.673  0.0000E+00  0.2400E+02
    -55.366  0.0000E+00  0.2400E+02
    -55.060  0.0000E+00  0.2400E+02
    -54.754  0.0000E+00  0.2400E+02
    -54.447  0.0000E+00  0.2400E+02
    -54.141  0.0000E+00  0.2400E+02
    -53.835  0.0000E+00  0.2400E+02
    -53.528  0.0000E+00  0.2400E+02
    -53.222  0.0000E+00  0.2400E+02
    -52.915  0.0000E+00  0.2400E+02
    -52.609  0.0000E+00  0.2400E+02
    -52.303  0.0000E+00  0.2400E+02
    -51.996  0.0000E+00  0.2400E+02
    -51.690  0.0000E+00  0.2400E+02
    -51.383  0.0000E+00  0.2400E+02
    -51.077  0.0000E+00  0.2400E+02
    -50.771  0.0000E+00  0.2400E+02
    -50.464  0.0000E+00  0.2400E+02
    -50.158  0.0000E+00  0.2400E+02
    -49.852  0.0000E+00  0.2400E+02
    -49.545  0.0000E+00  0.2400E+02
    -49.239  0.0000E+00  0.2400E+02
    -48.932  0.0000E+00  0.2400E+02
    -48.626  0.0000E+00  0.2400E+02
    -48.320  0.0000E+00  0.2400E+02
    -48.013  0.0000E+00  0.2400E+02
    -47.707  0.0000E+00  0.2400E+02
    -47.401  0.0000E+00  0.2400E+02
    -47.094  0.0000E+00  0.2400E+02
    -46.788  0.0000E+00  0.2400E+02
    -46.481  0.0000E+00  0.2400E+02
    -46.175  0.0000E+00  0.2400E+02
    -45.869  0.0000E+00  0.2400E+02
    -45.562  0.0000E+00  0.2400E+02
    -45.256  0.0000E+00  0.2400E+02
    -44.949  0.0000E+00  0.2400E+02
    -44.643  0.0000E+00  0.2400E+02
    -44.337  0.0000E+00  0.2400E+02
    -44.030  0.0000E+00  0.2400E+02
    -43.724  0.0000E+00  0.2400E+02
    -43.418  0.0000E+00  0.2400E+02
    -43.111  0.0000E+00  0.2400E+02
    -42.805  0.0000E+00  0.2400E+02
    -42.498  0.0000E+00  0.2400E+02
    -42.192  0.0000E+00  0.2400E+02
    -41.886  0.0000E+00  0.2400E+02
    -41.579  0.0000E+00  0.2400E+02
    -41.273  0.0000E+00  0.2400E+02
    -40.967  0.0000E+00  0.2400E+02
    -40.660  0.0000E+00  0.2400E+02
    -40.354  0.0000E+00  0.2400E+02
    -40.047  0.0000E+00  0.2400E+02
    -39.741  0.0000E+00  0.2400E+02
    -39.435  0.0000E+00  0.2400E+02
    -39.128  0.0000E+00  0.2400E+02
    -38.822  0.0000E+00  0.2400E+02
    -38.515  0.0000E+00  0.2400E+02
    -38.209  0.0000E+00  0.2400E+02
    -37.903  0.0000E+00  0.2400E+02
    -37.596  0.0000E+00  0.2400E+02
    -37.290  0.0000E+00  0.2400E+02
    -36.984  0.0000E+00  0.2400E+02
    -36.677  0.0000E+00  0.2400E+02
    -36.371  0.0000E+00  0.2400E+02
    -36.064  0.0000E+00  0.2400E+02
    -35.758  0.0000E+00  0.2400E+02
    -35.452  0.0000E+00  0.2400E+02
    -35.145  0.0000E+00  0.2400E+02
    -34.839  0.0000E+00  0.2400E+02
    -34.533  0.0000E+00  0.2400E+02
    -34.226  0.0000E+00  0.2400E+02
    -33.920  0.0000E+00  0.2400E+02
    -33.613  0.0000E+00  0.2400E+02
    -33.307  0.0000E+00  0.2400E+02
    -33.001  0.0000E+00  0.2400E+02
    -32.694  0.0000E+00  0.2400E+02
    -32.388  0.0000E+00  0.2400E+02
    -32.081  0.0000E+00  0.2400E+02
    -31.775  0.0000E+00  0.2400E+02
    -31.469  0.0000E+00  0.2400E+02
    -31.162  0.0000E+00  0.2400E+02
    -30.856  0.0000E+00  0.2400E+02
    -30.550  0.0000E+00  0.2400E+02
    -30.243  0.0000E+00  0.2400E+02
    -29.937  0.0000E+00  0.2400E+02
    -29.630  0.0000E+00  0.2400E+02
    -29.324  0.0000E+00  0.2400E+02
    -29.018  0.0000E+00  0.2400E+02
    -28.711  0.0000E+00  0.2400E+02
    -28.405  0.0000E+00  0.2400E+02
    -28.099  0.0000E+00  0.2400E+02
    -27.792  0.0000E+00  0.2400E+02
    -27.486  0.0000E+00  0.2400E+02
    -27.179  0.0000E+00  0.2400E+02
    -26.873  0.0000E+00  0.2400E+02
    -26.567  0.0000E+00  0.2400E+02
    -26.260  0.0000E+00  0.2400E+02
    -25.954  0.0000E+00  0.2400E+02
    -25.647  0.0000E+00  0.2400E+02
    -25.341  0.0000E+00  0.2400E+02
    -25.035  0.0000E+00  0.2400E+02
    -24.728  0.0000E+00  0.2400E+02
    -24.422  0.0000E+00  0.2400E+02
    -24.116  0.0000E+00  0.2400E+02
    -23.809  0.0000E+00  0.2400E+02
    -23.503  0.0000E+00  0.2400E+02
    -23.196  0.0000E+00  0.2400E+02
    -22.890  0.0000E+00  0.2400E+02
    -22.584  0.0000E+00  0.2400E+02
    -22.277  0.0000E+00  0.2400E+02
    -21.971  0.0000E+00  0.2400E+02
    -21.665  0.0000E+00  0.2400E+02
    -21.358  0.0000E+00  0.2400E+02
    -21.052  0.0000E+00  0.2400E+02
    -20.745  0.0000E+00  0.2400E+02
    -20.439  0.0000E+00  0.2400E+02
    -20.133  0.0000E+00  0.2400E+02
    -19.826  0.0000E+00  0.2400E+02
    -19.520  0.0000E+00  0.2400E+02
    -19.213  0.0000E+00  0.2400E+02
    -18.907  0.0000E+00  0.2400E+02
    -18.601  0.0000E+00  0.2400E+02
    -18.294  0.0000E+00  0.2400E+02
    -17.988  0.0000E+00  0.2400E+02
    -17.682  0.0000E+00  0.2400E+02
    -17.375  0.0000E+00  0.2400E+02
    -17.069  0.0000E+00  0.2400E+02
    -16.762  0.0000E+00  0.2400E+02
    -16.456  0.0000E+00  0.2400E+02
    -16.150  0.0000E+00  0.2400E+02
    -15.843  0.0000E+00  0.2400E+02
    -15.537  0.0000E+00  0.2400E+02
    -15.230  0.0000E+00  0.2400E+02
    -14.924  0.0000E+00  0.2400E+02
    -14.618  0.0000E+00  0.2400E+02
    -14.311  0.0000E+00  0.2400E+02
    -14.005  0.0000E+00  0.2400E+02
    -13.699 -0.3125E-41  0.2400E+02
    -13.392 -0.1159E-19  0.2400E+02
    -13.086 -0.2197E-06  0.2400E+02
    -12.779 -0.3274E-02  0.2400E+02
    -12.473  0.1661E+01  0.2451E+02
    -12.167  0.3552E+01  0.2560E+02
    -11.860  0.1862E+01  0.2617E+02
    -11.554  0.2100E+01  0.2681E+02
    -11.248  0.3189E+01  0.2779E+02
    -10.941  0.2633E+01  0.2859E+02
    -10.635  0.9221E+01  0.3142E+02
    -10.328  0.9369E+01  0.3429E+02
    -10.022  0.5601E+01  0.3601E+02
     -9.716 -0.1828E-01  0.3600E+02
     -9.409 -0.1156E-09  0.3600E+02
     -9.103  0.0000E+00  0.3600E+02
     -8.796  0.0000E+00  0.3600E+02
     -8.490  0.0000E+00  0.3600E+02
     -8.184  0.0000E+00  0.3600E+02
     -7.877  0.0000E+00  0.3600E+02
     -7.571  0.0000E+00  0.3600E+02
     -7.265  0.0000E+00  0.3600E+02
     -6.958 -0.2855E-37  0.3600E+02
     -6.652 -0.6407E-17  0.3600E+02
     -6.345 -0.8566E-05  0.3600E+02
     -6.039  0.8887E-01  0.3603E+02
     -5.733  0.3566E+01  0.3712E+02
     -5.426  0.2030E+01  0.3774E+02
     -5.120  0.1794E+01  0.3829E+02
     -4.814  0.3265E+01  0.3929E+02
     -4.507  0.2235E+01  0.3998E+02
     -4.201  0.7705E-01  0.4000E+02
     -3.894 -0.7447E-05  0.4000E+02
     -3.588 -0.6042E-30  0.4000E+02
     -3.282 -0.2619E-12  0.4000E+02
     -2.975 -0.4747E-03  0.4000E+02
     -2.669  0.3965E+00  0.4012E+02
     -2.362  0.6174E+01  0.4201E+02
     -2.056  0.6693E+01  0.4406E+02
     -1.750  0.7332E+01  0.4631E+02
     -1.443  0.6390E+01  0.4827E+02
     -1.137  0.8757E+01  0.5095E+02
     -0.831  0.9045E+01  0.5372E+02
     -0.524  0.1130E+02  0.5718E+02
     -0.218  0.1793E+02  0.6268E+02
      0.089  0.2924E+02  0.7164E+02
      0.395  0.1187E+01  0.7200E+02
      0.701 -0.6652E-03  0.7200E+02
      1.008 -0.1824E-01  0.7199E+02
      1.314  0.7153E+01  0.7419E+02
      1.620  0.4503E+02  0.8798E+02
      1.927  0.1382E+02  0.9222E+02
      2.233  0.1319E+02  0.9626E+02
      2.540  0.1287E+02  0.1002E+03
      2.846  0.1115E+02  0.1036E+03
      3.152  0.9092E+01  0.1064E+03
      3.459  0.7910E+01  0.1088E+03
      3.765  0.6942E+01  0.1110E+03
      4.072  0.3179E+01  0.1119E+03
      4.378  0.2384E+00  0.1120E+03
      4.684 -0.5104E-03  0.1120E+03
      4.991 -0.9278E-14  0.1120E+03
      5.297 -0.1270E-03  0.1120E+03
      5.603  0.7619E-01  0.1120E+03
      5.910  0.1756E+00  0.1121E+03
      6.216  0.2629E+01  0.1129E+03
      6.523  0.4283E+01  0.1142E+03
      6.829  0.3415E+01  0.1152E+03
      7.135  0.2523E+01  0.1160E+03
      7.442  0.1416E+01  0.1164E+03
      7.748  0.3175E+01  0.1174E+03
      8.054  0.5567E+01  0.1191E+03
      8.361  0.5555E+01  0.1208E+03
      8.667  0.4564E+01  0.1222E+03
      8.974  0.4491E+01  0.1236E+03
      9.280  0.5638E+01  0.1253E+03
      9.586  0.5703E+01  0.1271E+03
      9.893  0.4789E+01  0.1285E+03
     10.199  0.4490E+01  0.1299E+03
     10.506  0.6504E+01  0.1319E+03
     10.812  0.8317E+01  0.1345E+03
     11.118  0.8204E+01  0.1370E+03
     11.425  0.7987E+01  0.1394E+03
     11.731  0.7894E+01  0.1418E+03
     12.037  0.6561E+01  0.1438E+03
     12.344  0.5871E+01  0.1456E+03
     12.650  0.6659E+01  0.1477E+03
     12.957  0.5772E+01  0.1495E+03
     13.263  0.6192E+01  0.1514E+03
     13.569  0.5343E+01  0.1530E+03
     13.876  0.4079E+01  0.1542E+03
     14.182  0.3170E+01  0.1552E+03
     14.488  0.4748E+01  0.1567E+03
     14.795  0.3315E+01  0.1577E+03
     15.101  0.1405E+01  0.1581E+03
     15.408  0.1609E+01  0.1586E+03
     15.714  0.1208E+01  0.1590E+03
     16.020  0.1684E+01  0.1595E+03
     16.327  0.3305E+00  0.1596E+03
     16.633  0.6853E+00  0.1598E+03
     16.940  0.5378E+00  0.1600E+03
     17.246  0.1032E+00  0.1600E+03
     17.552 -0.2210E-04  0.1600E+03
     17.859  0.0000E+00  0.1600E+03
     18.165  0.0000E+00  0.1600E+03
     18.471  0.0000E+00  0.1600E+03
     18.778  0.0000E+00  0.1600E+03
     19.084  0.0000E+00  0.1600E+03
