   12   12    1    1
  0.1849176E+02  0.6500240E-09  0.6500240E-09  0.6428867E-09  0.5000000E-15
  1.000000000000000E-004
  CAR 
 CGS                                     
  112   42   80
 
  0.0000000E+00  0.0000000E+00  0.0000000E+00  0.1250000E-01
   1      -68.645295
   2      -68.640733
   3      -68.633532
   4      -68.626109
   5      -68.613227
   6      -68.609586
   7      -68.595921
   8      -68.591097
   9      -68.577831
  10      -68.571357
  11      -68.561008
  12      -68.554314
  13      -12.728697
  14      -11.135120
  15      -10.916240
  16      -10.606064
  17      -10.250955
  18      -10.234524
  19       -5.996042
  20       -4.979551
  21       -2.763888
  22       -2.213362
  23       -2.072108
  24       -1.921001
  25       -1.580115
  26       -0.980615
  27       -0.947134
  28       -0.678162
  29       -0.403135
  30       -0.275288
  31       -0.257961
  32       -0.230545
  33       -0.187096
  34       -0.154527
  35       -0.039116
  36        0.035235
  37        1.352199
  38        1.364705
  39        1.416348
  40        1.459813
  41        1.474216
  42        1.476097
  43        1.522928
  44        1.533926
  45        1.576159
  46        1.712299
  47        1.892891
  48        1.929134
  49        2.059242
  50        2.653152
  51        2.730958
  52        3.089922
  53        3.217402
  54        4.004993
  55        4.035693
  56        4.169815
  57        5.540293
  58        6.368887
  59        7.634358
  60        7.982493
  61        8.622508
  62        8.795991
  63        9.570172
  64        9.741332
  65        9.812593
  66       10.421277
  67       10.582388
  68       10.688201
  69       10.712916
  70       11.280349
  71       11.705673
  72       12.390671
  73       12.452923
  74       12.731603
  75       13.324308
  76       13.381543
  77       13.830424
  78       13.886806
  79       14.141242
  80       14.176670
 
  0.2500000E+00  0.7372575E-17  0.1387779E-16  0.2500000E-01
   1      -68.645249
   2      -68.640708
   3      -68.633493
   4      -68.626084
   5      -68.613116
   6      -68.609488
   7      -68.595950
   8      -68.591093
   9      -68.577777
  10      -68.571289
  11      -68.560972
  12      -68.554280
  13      -12.604679
  14      -11.127739
  15      -10.987645
  16      -10.677423
  17      -10.366056
  18      -10.277497
  19       -5.944141
  20       -4.768657
  21       -2.648552
  22       -2.255068
  23       -2.087238
  24       -1.692866
  25       -1.347362
  26       -0.995064
  27       -0.765394
  28       -0.620546
  29       -0.553538
  30       -0.434530
  31       -0.359935
  32       -0.239106
  33       -0.191758
  34       -0.163148
  35       -0.045815
  36        0.041220
  37        1.281454
  38        1.337524
  39        1.356852
  40        1.395341
  41        1.429560
  42        1.474747
  43        1.499651
  44        1.533055
  45        1.726223
  46        1.861610
  47        2.057704
  48        2.095145
  49        2.231554
  50        2.415292
  51        2.555497
  52        2.826508
  53        2.949362
  54        3.242670
  55        3.662140
  56        4.038536
  57        6.167359
  58        6.919205
  59        8.135162
  60        8.270312
  61        8.598639
  62        9.015874
  63        9.243674
  64        9.536432
  65        9.861502
  66       10.372899
  67       10.629056
  68       10.810600
  69       10.942161
  70       11.185824
  71       11.656669
  72       11.768571
  73       12.115626
  74       12.443578
  75       12.617100
  76       13.009797
  77       13.508005
  78       13.873491
  79       14.206976
  80       14.710373
 
  0.5000000E+00  0.1474515E-16  0.2775558E-16  0.1250000E-01
   1      -68.645135
   2      -68.640538
   3      -68.633421
   4      -68.625998
   5      -68.613063
   6      -68.609475
   7      -68.595863
   8      -68.591029
   9      -68.577767
  10      -68.571229
  11      -68.560803
  12      -68.554167
  13      -12.447098
  14      -11.245711
  15      -10.964997
  16      -10.764295
  17      -10.426479
  18      -10.358559
  19       -5.881679
  20       -4.543179
  21       -2.497623
  22       -2.246967
  23       -1.945624
  24       -1.463721
  25       -1.224893
  26       -1.107492
  27       -0.901105
  28       -0.862179
  29       -0.599833
  30       -0.534900
  31       -0.270401
  32       -0.204764
  33       -0.199877
  34       -0.135947
  35       -0.029191
  36        0.081475
  37        1.256250
  38        1.328713
  39        1.351136
  40        1.399745
  41        1.473212
  42        1.480875
  43        1.502511
  44        1.557191
  45        1.754515
  46        1.792684
  47        1.968288
  48        2.149050
  49        2.320754
  50        2.363060
  51        2.556218
  52        2.673023
  53        2.937605
  54        3.079052
  55        3.249964
  56        3.862286
  57        6.379629
  58        7.115088
  59        7.982213
  60        8.199973
  61        8.511459
  62        8.824052
  63        9.336318
  64        9.893069
  65       10.009427
  66       10.513406
  67       10.690499
  68       10.788684
  69       11.142798
  70       11.406691
  71       11.608613
  72       11.776329
  73       11.943462
  74       12.502370
  75       12.778758
  76       13.003022
  77       13.394425
  78       13.539282
  79       13.944132
  80       14.267564
 
  0.7372575E-17  0.2500000E+00  0.1387779E-16  0.2500000E-01
   1      -68.645271
   2      -68.640685
   3      -68.633508
   4      -68.626070
   5      -68.613120
   6      -68.609483
   7      -68.595923
   8      -68.591122
   9      -68.577762
  10      -68.571304
  11      -68.560973
  12      -68.554279
  13      -12.604548
  14      -11.130377
  15      -10.984865
  16      -10.677137
  17      -10.367272
  18      -10.276903
  19       -5.944257
  20       -4.768368
  21       -2.649523
  22       -2.256495
  23       -2.087030
  24       -1.687070
  25       -1.348477
  26       -0.995345
  27       -0.767184
  28       -0.621077
  29       -0.546269
  30       -0.437700
  31       -0.357084
  32       -0.241145
  33       -0.194250
  34       -0.166731
  35       -0.045143
  36        0.041745
  37        1.281743
  38        1.339089
  39        1.357753
  40        1.393649
  41        1.429344
  42        1.474267
  43        1.501809
  44        1.531749
  45        1.726407
  46        1.860677
  47        2.056942
  48        2.093439
  49        2.231635
  50        2.415531
  51        2.558211
  52        2.825416
  53        2.946334
  54        3.242500
  55        3.662000
  56        4.038878
  57        6.169464
  58        6.920717
  59        8.146469
  60        8.269174
  61        8.592096
  62        9.014383
  63        9.241403
  64        9.530918
  65        9.865930
  66       10.370499
  67       10.631107
  68       10.810630
  69       10.938223
  70       11.189463
  71       11.657595
  72       11.771450
  73       12.119489
  74       12.441024
  75       12.614121
  76       13.008710
  77       13.518975
  78       13.900520
  79       14.274368
  80       14.836978
 
  0.2500000E+00  0.2500000E+00  0.0000000E+00  0.2500000E-01
   1      -68.645272
   2      -68.640709
   3      -68.633395
   4      -68.625968
   5      -68.613252
   6      -68.609619
   7      -68.595826
   8      -68.590995
   9      -68.577893
  10      -68.571420
  11      -68.560991
  12      -68.554297
  13      -12.450636
  14      -11.189266
  15      -10.950027
  16      -10.876946
  17      -10.389951
  18      -10.351353
  19       -5.886798
  20       -4.516260
  21       -2.422407
  22       -2.249685
  23       -1.790999
  24       -1.684130
  25       -1.351425
  26       -1.298160
  27       -1.079939
  28       -0.680683
  29       -0.524158
  30       -0.294442
  31       -0.280302
  32       -0.222322
  33       -0.186046
  34       -0.125600
  35       -0.090198
  36        0.081458
  37        1.295948
  38        1.313665
  39        1.417406
  40        1.428537
  41        1.465687
  42        1.485321
  43        1.497137
  44        1.572994
  45        1.673431
  46        1.880976
  47        1.941551
  48        2.136107
  49        2.278608
  50        2.321445
  51        2.558748
  52        2.652384
  53        2.902916
  54        2.946777
  55        3.698986
  56        3.832134
  57        6.169515
  58        7.005297
  59        8.003604
  60        8.328169
  61        8.435972
  62        8.574401
  63        9.149018
  64        9.247732
  65       10.362139
  66       10.493709
  67       10.916328
  68       11.182082
  69       11.327812
  70       11.555642
  71       11.813528
  72       11.961378
  73       12.316636
  74       12.499691
  75       12.713499
  76       12.912315
  77       13.341234
  78       13.446071
  79       14.254655
  80       14.368175
 
  0.5000000E+00  0.2500000E+00 -0.2775558E-16  0.2500000E-01
   1      -68.645045
   2      -68.640496
   3      -68.633474
   4      -68.626023
   5      -68.613034
   6      -68.609393
   7      -68.595878
   8      -68.591053
   9      -68.577704
  10      -68.571200
  11      -68.560834
  12      -68.554166
  13      -12.451203
  14      -11.351992
  15      -10.945435
  16      -10.736861
  17      -10.389697
  18      -10.270909
  19       -5.958050
  20       -4.637814
  21       -2.394454
  22       -2.227968
  23       -2.059828
  24       -1.641170
  25       -1.363721
  26       -1.283526
  27       -1.021218
  28       -0.511005
  29       -0.482716
  30       -0.327919
  31       -0.281539
  32       -0.208044
  33       -0.146883
  34       -0.132685
  35       -0.008980
  36        0.113255
  37        1.248610
  38        1.318511
  39        1.383696
  40        1.439513
  41        1.463718
  42        1.494208
  43        1.500734
  44        1.552828
  45        1.752405
  46        1.829429
  47        1.923187
  48        2.134335
  49        2.221400
  50        2.386128
  51        2.561457
  52        2.791812
  53        2.977678
  54        3.312850
  55        3.602287
  56        3.749868
  57        6.083307
  58        6.952408
  59        7.612492
  60        8.068008
  61        8.413420
  62        8.623949
  63        8.984204
  64        9.152876
  65       10.088101
  66       10.332683
  67       10.732417
  68       11.104344
  69       11.454177
  70       11.594593
  71       11.795864
  72       12.083968
  73       12.474938
  74       12.918753
  75       13.032801
  76       13.834122
  77       14.220145
  78       14.656169
  79       15.429181
  80       15.641657
 
 -0.2500000E+00  0.2500000E+00  0.0000000E+00  0.2500000E-01
   1      -68.645262
   2      -68.640698
   3      -68.633473
   4      -68.626049
   5      -68.613051
   6      -68.609419
   7      -68.595920
   8      -68.591091
   9      -68.577718
  10      -68.571244
  11      -68.560974
  12      -68.554281
  13      -12.607552
  14      -11.251634
  15      -10.997185
  16      -10.569946
  17      -10.367711
  18      -10.179363
  19       -6.020591
  20       -4.890721
  21       -2.649003
  22       -2.316177
  23       -1.977262
  24       -1.646839
  25       -1.493127
  26       -1.186467
  27       -0.786852
  28       -0.582842
  29       -0.445845
  30       -0.330503
  31       -0.290758
  32       -0.229380
  33       -0.171140
  34       -0.129675
  35       -0.005937
  36        0.071661
  37        1.262092
  38        1.323301
  39        1.367477
  40        1.425698
  41        1.433815
  42        1.478429
  43        1.506104
  44        1.544833
  45        1.725709
  46        1.813839
  47        1.996739
  48        2.073653
  49        2.416011
  50        2.464269
  51        2.528042
  52        2.873371
  53        3.142982
  54        3.228264
  55        3.785209
  56        4.067744
  57        5.976462
  58        6.699394
  59        7.541730
  60        8.218418
  61        8.623022
  62        8.924425
  63        9.305207
  64        9.429173
  65        9.803360
  66       10.266034
  67       10.538531
  68       10.828355
  69       10.970311
  70       11.377582
  71       11.469853
  72       11.735310
  73       12.101132
  74       12.663634
  75       12.941051
  76       13.105735
  77       13.351058
  78       13.520799
  79       14.473029
  80       14.753617
 
  0.1474515E-16  0.5000000E+00  0.2775558E-16  0.1250000E-01
   1      -68.645098
   2      -68.640567
   3      -68.633427
   4      -68.625992
   5      -68.613107
   6      -68.609431
   7      -68.595857
   8      -68.591036
   9      -68.577707
  10      -68.571294
  11      -68.560862
  12      -68.554110
  13      -12.446690
  14      -11.249039
  15      -10.962522
  16      -10.761977
  17      -10.430318
  18      -10.356701
  19       -5.881884
  20       -4.542583
  21       -2.499049
  22       -2.251016
  23       -1.943696
  24       -1.460167
  25       -1.222163
  26       -1.101692
  27       -0.898495
  28       -0.862236
  29       -0.599840
  30       -0.536705
  31       -0.271942
  32       -0.204293
  33       -0.200467
  34       -0.144262
  35       -0.027956
  36        0.081750
  37        1.257568
  38        1.331351
  39        1.348345
  40        1.398372
  41        1.473758
  42        1.482479
  43        1.502558
  44        1.554531
  45        1.755007
  46        1.794642
  47        1.970934
  48        2.147202
  49        2.316976
  50        2.359269
  51        2.555153
  52        2.672000
  53        2.936244
  54        3.076235
  55        3.254299
  56        3.862319
  57        6.382224
  58        7.111945
  59        7.982686
  60        8.221500
  61        8.515801
  62        8.823791
  63        9.327832
  64        9.884074
  65       10.008013
  66       10.517298
  67       10.690144
  68       10.789981
  69       11.139229
  70       11.407681
  71       11.604106
  72       11.776386
  73       11.935320
  74       12.509449
  75       12.822022
  76       13.031627
  77       13.550085
  78       13.688014
  79       14.551523
  80       15.249451
 
  0.2500000E+00  0.5000000E+00 -0.2775558E-16  0.2500000E-01
   1      -68.645048
   2      -68.640497
   3      -68.633447
   4      -68.626013
   5      -68.613050
   6      -68.609398
   7      -68.595889
   8      -68.591061
   9      -68.577666
  10      -68.571238
  11      -68.560868
  12      -68.554127
  13      -12.451003
  14      -11.353016
  15      -10.944737
  16      -10.736161
  17      -10.390373
  18      -10.270871
  19       -5.958122
  20       -4.637560
  21       -2.395911
  22       -2.229738
  23       -2.060277
  24       -1.636744
  25       -1.359934
  26       -1.283044
  27       -1.021470
  28       -0.510770
  29       -0.484468
  30       -0.325298
  31       -0.278740
  32       -0.213210
  33       -0.149104
  34       -0.134360
  35       -0.008010
  36        0.112914
  37        1.250065
  38        1.316812
  39        1.386085
  40        1.439550
  41        1.464360
  42        1.494077
  43        1.499476
  44        1.550838
  45        1.749280
  46        1.831829
  47        1.923086
  48        2.134889
  49        2.220027
  50        2.385059
  51        2.561508
  52        2.789223
  53        2.979245
  54        3.312441
  55        3.604486
  56        3.750077
  57        6.084542
  58        6.954620
  59        7.614742
  60        8.068816
  61        8.414677
  62        8.618832
  63        8.984141
  64        9.152960
  65       10.085160
  66       10.330318
  67       10.732306
  68       11.102678
  69       11.457600
  70       11.574317
  71       11.784938
  72       12.029247
  73       12.525086
  74       12.679407
  75       12.921455
  76       13.205880
  77       14.227836
  78       14.771404
  79       15.244932
  80       15.900888
 
  0.5000000E+00  0.5000000E+00  0.0000000E+00  0.1250000E-01
   1      -68.644887
   2      -68.640310
   3      -68.633283
   4      -68.625844
   5      -68.612892
   6      -68.609325
   7      -68.595680
   8      -68.590863
   9      -68.577601
  10      -68.571121
  11      -68.560643
  12      -68.553949
  13      -12.443370
  14      -11.499226
  15      -10.920813
  16      -10.616359
  17      -10.398347
  18      -10.198613
  19       -6.036230
  20       -4.806479
  21       -2.314022
  22       -2.266041
  23       -2.095056
  24       -1.704855
  25       -1.249197
  26       -1.111164
  27       -0.840528
  28       -0.782911
  29       -0.725600
  30       -0.239608
  31       -0.195541
  32       -0.179732
  33       -0.145827
  34       -0.037748
  35        0.000613
  36        0.184310
  37        1.268849
  38        1.319962
  39        1.378452
  40        1.416903
  41        1.436611
  42        1.494509
  43        1.510109
  44        1.550820
  45        1.788484
  46        1.848578
  47        1.997623
  48        2.152763
  49        2.253573
  50        2.336581
  51        2.561636
  52        2.763012
  53        2.773553
  54        3.370034
  55        3.765962
  56        4.006115
  57        5.850467
  58        6.772562
  59        7.094130
  60        8.411927
  61        8.563211
  62        8.766043
  63        9.144337
  64        9.247682
  65        9.956862
  66       10.276693
  67       10.722631
  68       10.827648
  69       10.880194
  70       11.268972
  71       11.753875
  72       11.920389
  73       11.972629
  74       12.364333
  75       12.541583
  76       13.454812
  77       14.290129
  78       14.669799
  79       16.742181
  80       16.761278
 
 -0.2168404E-18 -0.2168404E-18  0.2000000E+00  0.2500000E-01
   1      -68.645298
   2      -68.640733
   3      -68.633501
   4      -68.626078
   5      -68.613147
   6      -68.609513
   7      -68.595945
   8      -68.591115
   9      -68.577804
  10      -68.571330
  11      -68.561010
  12      -68.554316
  13      -12.625401
  14      -11.430698
  15      -10.778392
  16      -10.610734
  17      -10.249727
  18      -10.236497
  19       -5.841268
  20       -5.044661
  21       -2.603493
  22       -2.374828
  23       -1.961826
  24       -1.777449
  25       -1.446343
  26       -1.122224
  27       -1.061076
  28       -0.767569
  29       -0.470092
  30       -0.290139
  31       -0.236709
  32       -0.232182
  33       -0.189410
  34       -0.145747
  35       -0.016406
  36        0.027156
  37        1.335460
  38        1.383789
  39        1.418412
  40        1.441823
  41        1.466381
  42        1.470385
  43        1.516499
  44        1.547214
  45        1.633337
  46        1.760941
  47        1.787620
  48        1.951885
  49        2.088891
  50        2.661232
  51        2.720415
  52        3.194008
  53        3.253124
  54        3.519475
  55        3.893569
  56        3.975230
  57        6.048486
  58        6.428029
  59        7.818614
  60        7.910425
  61        8.369181
  62        8.826800
  63        9.776073
  64        9.798222
  65       10.063438
  66       10.582376
  67       10.643454
  68       10.812642
  69       10.849713
  70       11.490666
  71       11.554522
  72       12.025276
  73       12.578485
  74       12.777893
  75       12.911112
  76       13.205692
  77       13.534114
  78       13.822504
  79       14.196445
  80       14.701196
 
  0.2500000E+00  0.1517883E-17  0.2000000E+00  0.2500000E-01
   1      -68.645233
   2      -68.640672
   3      -68.633487
   4      -68.626063
   5      -68.613191
   6      -68.609551
   7      -68.595898
   8      -68.591076
   9      -68.577808
  10      -68.571346
  11      -68.560952
  12      -68.554247
  13      -12.467804
  14      -11.469799
  15      -10.867167
  16      -10.689012
  17      -10.373235
  18      -10.245241
  19       -5.775982
  20       -4.802136
  21       -2.447492
  22       -2.234391
  23       -1.852290
  24       -1.717211
  25       -1.435649
  26       -1.185337
  27       -0.888432
  28       -0.743885
  29       -0.601950
  30       -0.520794
  31       -0.308649
  32       -0.240289
  33       -0.171296
  34       -0.120971
  35       -0.052182
  36        0.062492
  37        1.303645
  38        1.339277
  39        1.372178
  40        1.432534
  41        1.448795
  42        1.480925
  43        1.524307
  44        1.549721
  45        1.645931
  46        1.874365
  47        1.978776
  48        2.049131
  49        2.196208
  50        2.476517
  51        2.594368
  52        2.838786
  53        2.963092
  54        3.133714
  55        3.567878
  56        3.724363
  57        6.438967
  58        6.972567
  59        8.168946
  60        8.249353
  61        8.834374
  62        9.130716
  63        9.465619
  64        9.800751
  65       10.082488
  66       10.292244
  67       10.737496
  68       11.079093
  69       11.285676
  70       11.424754
  71       11.632098
  72       11.723674
  73       12.086285
  74       12.265981
  75       12.544946
  76       12.658101
  77       12.954338
  78       13.061243
  79       13.638444
  80       14.691091
 
  0.5000000E+00  0.9107298E-17  0.2000000E+00  0.2500000E-01
   1      -68.645071
   2      -68.640496
   3      -68.633403
   4      -68.625972
   5      -68.613044
   6      -68.609424
   7      -68.595803
   8      -68.590999
   9      -68.577719
  10      -68.571232
  11      -68.560872
  12      -68.554190
  13      -12.366200
  14      -11.417065
  15      -10.953555
  16      -10.685681
  17      -10.478309
  18      -10.333989
  19       -5.760843
  20       -4.718774
  21       -2.524549
  22       -2.186957
  23       -1.954318
  24       -1.537432
  25       -1.303557
  26       -1.095619
  27       -0.868821
  28       -0.759100
  29       -0.546766
  30       -0.443252
  31       -0.289039
  32       -0.176661
  33       -0.142580
  34       -0.100083
  35       -0.043692
  36        0.022250
  37        1.273812
  38        1.301355
  39        1.354486
  40        1.431762
  41        1.455780
  42        1.481961
  43        1.503489
  44        1.590438
  45        1.721567
  46        1.932804
  47        2.077127
  48        2.147931
  49        2.268489
  50        2.404741
  51        2.570007
  52        2.597909
  53        2.898497
  54        3.010397
  55        3.359762
  56        3.899001
  57        6.360702
  58        6.915302
  59        7.576873
  60        8.079619
  61        8.546847
  62        8.798757
  63        9.288908
  64        9.624309
  65        9.929414
  66       10.273317
  67       10.659404
  68       10.925897
  69       10.972728
  70       11.278936
  71       11.518720
  72       11.787102
  73       12.251443
  74       12.552061
  75       13.098512
  76       13.530193
  77       14.306121
  78       14.619873
  79       15.127437
  80       16.264911
 
 -0.2500000E+00 -0.4098284E-16  0.2000000E+00  0.2500000E-01
   1      -68.645294
   2      -68.640723
   3      -68.633477
   4      -68.626054
   5      -68.613149
   6      -68.609525
   7      -68.595931
   8      -68.591099
   9      -68.577826
  10      -68.571341
  11      -68.560998
  12      -68.554315
  13      -12.549316
  14      -11.344413
  15      -10.871725
  16      -10.608321
  17      -10.398537
  18      -10.282365
  19       -5.834405
  20       -4.971263
  21       -2.667950
  22       -2.455364
  23       -2.038175
  24       -1.581758
  25       -1.171018
  26       -0.983915
  27       -0.788547
  28       -0.656052
  29       -0.516346
  30       -0.388905
  31       -0.263665
  32       -0.251524
  33       -0.188404
  34       -0.143387
  35       -0.044713
  36        0.016436
  37        1.291777
  38        1.314631
  39        1.390271
  40        1.412162
  41        1.436616
  42        1.459225
  43        1.493914
  44        1.565832
  45        1.688619
  46        1.917136
  47        1.987706
  48        2.146617
  49        2.335438
  50        2.565129
  51        2.616867
  52        2.829271
  53        2.974351
  54        3.250736
  55        3.682363
  56        3.941830
  57        6.177540
  58        6.650597
  59        7.768353
  60        7.977432
  61        8.211758
  62        8.570433
  63        9.382014
  64        9.577375
  65        9.907112
  66       10.247466
  67       10.546408
  68       10.785541
  69       10.837479
  70       11.065386
  71       11.565829
  72       12.016902
  73       12.531928
  74       12.748855
  75       12.953397
  76       13.305011
  77       13.409800
  78       13.741056
  79       13.848247
  80       14.723862
 
  0.1517883E-17  0.2500000E+00  0.2000000E+00  0.2500000E-01
   1      -68.645235
   2      -68.640670
   3      -68.633487
   4      -68.626064
   5      -68.613185
   6      -68.609558
   7      -68.595906
   8      -68.591068
   9      -68.577819
  10      -68.571336
  11      -68.560941
  12      -68.554260
  13      -12.467343
  14      -11.472138
  15      -10.863759
  16      -10.689812
  17      -10.373314
  18      -10.245816
  19       -5.777379
  20       -4.800681
  21       -2.448754
  22       -2.236218
  23       -1.850305
  24       -1.711840
  25       -1.434756
  26       -1.187118
  27       -0.889134
  28       -0.743928
  29       -0.605033
  30       -0.515060
  31       -0.310045
  32       -0.243861
  33       -0.173252
  34       -0.119962
  35       -0.051776
  36        0.062926
  37        1.304829
  38        1.337900
  39        1.371653
  40        1.435796
  41        1.448310
  42        1.482238
  43        1.522493
  44        1.549955
  45        1.644828
  46        1.872152
  47        1.977528
  48        2.048455
  49        2.197383
  50        2.476839
  51        2.595677
  52        2.839284
  53        2.962614
  54        3.130421
  55        3.567533
  56        3.725321
  57        6.443474
  58        6.970976
  59        8.171801
  60        8.247323
  61        8.839434
  62        9.131169
  63        9.460291
  64        9.795566
  65       10.080678
  66       10.301220
  67       10.739069
  68       11.079297
  69       11.285710
  70       11.422885
  71       11.631138
  72       11.723935
  73       12.086619
  74       12.266433
  75       12.539272
  76       12.658573
  77       12.954635
  78       13.061685
  79       13.652412
  80       14.695783
 
  0.2500000E+00  0.2500000E+00  0.2000000E+00  0.2500000E-01
   1      -68.645143
   2      -68.640581
   3      -68.633338
   4      -68.625911
   5      -68.613027
   6      -68.609396
   7      -68.595779
   8      -68.590950
   9      -68.577685
  10      -68.571208
  11      -68.560859
  12      -68.554162
  13      -12.337171
  14      -11.477654
  15      -10.862662
  16      -10.859839
  17      -10.406202
  18      -10.287562
  19       -5.757003
  20       -4.687937
  21       -2.244793
  22       -2.142004
  23       -1.930556
  24       -1.851332
  25       -1.451281
  26       -1.394385
  27       -1.040061
  28       -0.518822
  29       -0.458235
  30       -0.344687
  31       -0.248024
  32       -0.215624
  33       -0.160085
  34       -0.110886
  35       -0.088294
  36        0.080786
  37        1.265016
  38        1.349882
  39        1.399718
  40        1.437529
  41        1.455628
  42        1.512965
  43        1.537253
  44        1.545614
  45        1.754578
  46        1.819472
  47        2.042022
  48        2.134361
  49        2.286059
  50        2.310111
  51        2.521179
  52        2.770648
  53        2.899631
  54        3.261208
  55        3.496820
  56        3.801385
  57        6.184253
  58        6.855166
  59        7.830244
  60        8.047462
  61        8.191027
  62        8.725407
  63        9.155403
  64        9.307816
  65       10.216330
  66       10.437608
  67       10.591865
  68       11.003638
  69       11.240200
  70       11.487179
  71       11.812300
  72       12.169497
  73       12.204988
  74       12.574720
  75       12.693960
  76       13.112135
  77       13.417851
  78       13.881222
  79       14.002222
  80       14.526186
 
  0.5000000E+00  0.2500000E+00  0.2000000E+00  0.2500000E-01
   1      -68.645007
   2      -68.640454
   3      -68.633462
   4      -68.625997
   5      -68.613028
   6      -68.609447
   7      -68.595849
   8      -68.591022
   9      -68.577691
  10      -68.571254
  11      -68.560822
  12      -68.554137
  13      -12.383047
  14      -11.476876
  15      -10.939813
  16      -10.652690
  17      -10.419777
  18      -10.303882
  19       -5.809773
  20       -4.832633
  21       -2.528658
  22       -2.246786
  23       -1.873136
  24       -1.648364
  25       -1.501849
  26       -1.313044
  27       -0.900180
  28       -0.529333
  29       -0.377190
  30       -0.348798
  31       -0.220559
  32       -0.176580
  33       -0.153070
  34       -0.074021
  35       -0.025965
  36        0.080265
  37        1.193480
  38        1.366217
  39        1.399158
  40        1.445225
  41        1.466116
  42        1.510313
  43        1.521023
  44        1.586204
  45        1.742224
  46        1.819189
  47        2.039062
  48        2.236026
  49        2.269486
  50        2.363353
  51        2.488249
  52        2.672477
  53        3.050713
  54        3.412651
  55        3.727312
  56        3.863758
  57        5.930855
  58        6.625051
  59        7.358788
  60        7.945636
  61        8.066495
  62        8.723145
  63        8.912151
  64        9.136898
  65        9.844629
  66       10.329427
  67       10.550721
  68       10.924734
  69       11.225052
  70       11.413964
  71       11.747690
  72       11.999646
  73       12.494030
  74       12.825778
  75       13.204420
  76       14.183517
  77       14.716971
  78       15.162537
  79       15.914381
  80       16.564628
 
 -0.2500000E+00  0.2500000E+00  0.2000000E+00  0.2500000E-01
   1      -68.645198
   2      -68.640674
   3      -68.633527
   4      -68.626112
   5      -68.613124