       N       E                     dE             d eps       ncg     rms          ort
SDA:   1     0.757254086982E+02    0.75725E+02   -0.21366E+03  3360   0.534E+03 0.000E+00
DMP:   2    -0.824543979799E+01   -0.83971E+02   -0.14717E+03  3360   0.396E+03-0.743E+02
DMP:   3    -0.150821828162E+02   -0.68367E+01   -0.20469E+03  3360   0.699E+03-0.489E+03
DMP:   4    -0.225829656422E+02   -0.75008E+01   -0.10760E+03  3360   0.391E+03-0.320E+03
DMP:   5    -0.607741466321E+02   -0.38191E+02   -0.15129E+02  3360   0.710E+02-0.868E+02
DMP:   6    -0.659024578861E+02   -0.51283E+01   -0.82336E+01  3360   0.248E+02-0.111E+02
DMP:   7    -0.674538810105E+02   -0.15514E+01   -0.41717E+01  3360   0.148E+02-0.115E+02
DMP:   8    -0.690796332179E+02   -0.16258E+01   -0.77874E+00  3360   0.286E+01-0.240E+01
DMP:   9    -0.693939657208E+02   -0.31433E+00   -0.38866E+00  3360   0.111E+01-0.365E+00
DMP:  10    -0.694982407891E+02   -0.10428E+00   -0.15374E+00  3360   0.552E+00-0.440E+00
DMP:  11    -0.695684112781E+02   -0.70170E-01   -0.36925E-01  3360   0.106E+00-0.347E-01
DMP:  12    -0.695807748439E+02   -0.12364E-01   -0.23015E-01  3360   0.694E-01-0.310E-01
DMP:  13    -0.695905046715E+02   -0.97298E-02   -0.51572E-02  3360   0.163E-01-0.883E-02
DMP:  14    -0.695929890285E+02   -0.24844E-02   -0.38131E-02  3360   0.971E-02-0.463E-03
DMP:  15    -0.695945121309E+02   -0.15231E-02   -0.10487E-02  3360   0.336E-02-0.193E-02
DMP:  16    -0.695950915356E+02   -0.57940E-03   -0.41465E-03  3360   0.924E-03 0.294E-03
DMP:  17    -0.695952678923E+02   -0.17636E-03   -0.21106E-03  3360   0.584E-03-0.148E-03
DMP:  18    -0.695953867803E+02   -0.11889E-03   -0.57384E-04  3360   0.121E-03 0.587E-04
DMP:  19    -0.695954165382E+02   -0.29758E-04   -0.35981E-04  3360   0.895E-04 0.114E-05
DMP:  20    -0.695954368408E+02   -0.20303E-04   -0.11893E-04  3360   0.246E-04 0.135E-04
DMP:  21    -0.695954444918E+02   -0.76510E-05   -0.72371E-05  3360   0.144E-04 0.967E-05
   1 F= -.69595444E+02 E0= -.69595630E+02  d E =0.555225E-03
