<?xml version="1.0" encoding="ISO-8859-1"?>
<modeling>
 <generator>
  <i name="program" type="string">vasp </i>
  <i name="version" type="string">5.3.3  </i>
  <i name="subversion" type="string">18Dez12 (build Nov 13 2015 09:58:40) complex                          parallel </i>
  <i name="platform" type="string">LinuxIFC </i>
  <i name="date" type="string">2017 10 18 </i>
  <i name="time" type="string">13:03:59 </i>
 </generator>
 <incar>
  <i type="string" name="SYSTEM"> CGS</i>
  <i type="string" name="PREC">normal</i>
  <i type="string" name="ALGO"> D</i>
  <i type="logical" name="LDIAG"> T  </i>
  <i name="EDIFF">      0.00001000</i>
  <i name="ENCUT">    400.00000000</i>
  <i name="TIME">      0.40000000</i>
  <i type="int" name="ISMEAR">     1</i>
  <i name="SIGMA">      0.10000000</i>
  <i type="logical" name="LHFCALC"> T  </i>
  <i type="string" name="GGA"> PE</i>
  <i name="HFSCREEN">      0.20000000</i>
  <i name="AEXX">      0.25000000</i>
  <i type="string" name="PRECFOCK">fast</i>
 </incar>
 <kpoints>
  <generation param="Gamma">
   <v type="int" name="divisions">       4        4        5 </v>
   <v name="usershift">      0.00000000       0.00000000       0.00000000 </v>
   <v name="genvec1">      0.25000000       0.00000000       0.00000000 </v>
   <v name="genvec2">      0.00000000       0.25000000       0.00000000 </v>
   <v name="genvec3">      0.00000000       0.00000000       0.20000000 </v>
   <v name="shift">      0.00000000       0.00000000       0.00000000 </v>
  </generation>
  <varray name="kpointlist" >
   <v>       0.00000000       0.00000000       0.00000000 </v>
   <v>       0.25000000       0.00000000       0.00000000 </v>
   <v>       0.50000000       0.00000000       0.00000000 </v>
   <v>       0.00000000       0.25000000       0.00000000 </v>
   <v>       0.25000000       0.25000000       0.00000000 </v>
   <v>       0.50000000       0.25000000      -0.00000000 </v>
   <v>      -0.25000000       0.25000000       0.00000000 </v>
   <v>       0.00000000       0.50000000       0.00000000 </v>
   <v>       0.25000000       0.50000000      -0.00000000 </v>
   <v>       0.50000000       0.50000000       0.00000000 </v>
   <v>      -0.00000000      -0.00000000       0.20000000 </v>
   <v>       0.25000000       0.00000000       0.20000000 </v>
   <v>       0.50000000       0.00000000       0.20000000 </v>
   <v>      -0.25000000      -0.00000000       0.20000000 </v>
   <v>       0.00000000       0.25000000       0.20000000 </v>
   <v>       0.25000000       0.25000000       0.20000000 </v>
   <v>       0.50000000       0.25000000       0.20000000 </v>
   <v>      -0.25000000       0.25000000       0.20000000 </v>
   <v>       0.00000000       0.50000000       0.20000000 </v>
   <v>       0.25000000       0.50000000       0.20000000 </v>
   <v>       0.50000000       0.50000000       0.20000000 </v>
   <v>      -0.25000000       0.50000000       0.20000000 </v>
   <v>      -0.00000000      -0.25000000       0.20000000 </v>
   <v>       0.25000000      -0.25000000       0.20000000 </v>
   <v>       0.50000000      -0.25000000       0.20000000 </v>
   <v>      -0.25000000      -0.25000000       0.20000000 </v>
   <v>      -0.00000000      -0.00000000       0.40000000 </v>
   <v>       0.25000000       0.00000000       0.40000000 </v>
   <v>       0.50000000       0.00000000       0.40000000 </v>
   <v>      -0.25000000       0.00000000       0.40000000 </v>
   <v>       0.00000000       0.25000000       0.40000000 </v>
   <v>       0.25000000       0.25000000       0.40000000 </v>
   <v>       0.50000000       0.25000000       0.40000000 </v>
   <v>      -0.25000000       0.25000000       0.40000000 </v>
   <v>       0.00000000       0.50000000       0.40000000 </v>
   <v>       0.25000000       0.50000000       0.40000000 </v>
   <v>       0.50000000       0.50000000       0.40000000 </v>
   <v>      -0.25000000       0.50000000       0.40000000 </v>
   <v>       0.00000000      -0.25000000       0.40000000 </v>
   <v>       0.25000000      -0.25000000       0.40000000 </v>
   <v>       0.50000000      -0.25000000       0.40000000 </v>
   <v>      -0.25000000      -0.25000000       0.40000000 </v>
  </varray>
  <varray name="weights" >
   <v>       0.01250000 </v>
   <v>       0.02500000 </v>
   <v>       0.01250000 </v>
   <v>       0.02500000 </v>
   <v>       0.02500000 </v>
   <v>       0.02500000 </v>
   <v>       0.02500000 </v>
   <v>       0.01250000 </v>
   <v>       0.02500000 </v>
   <v>       0.01250000 </v>
   <v>       0.02500000 </v>
   <v>       0.02500000 </v>
   <v>       0.02500000 </v>
   <v>       0.02500000 </v>
   <v>       0.02500000 </v>
   <v>       0.02500000 </v>
   <v>       0.02500000 </v>
   <v>       0.02500000 </v>
   <v>       0.02500000 </v>
   <v>       0.02500000 </v>
   <v>       0.02500000 </v>
   <v>       0.02500000 </v>
   <v>       0.02500000 </v>
   <v>       0.02500000 </v>
   <v>       0.02500000 </v>
   <v>       0.02500000 </v>
   <v>       0.02500000 </v>
   <v>       0.02500000 </v>
   <v>       0.02500000 </v>
   <v>       0.02500000 </v>
   <v>       0.02500000 </v>
   <v>       0.02500000 </v>
   <v>       0.02500000 </v>
   <v>       0.02500000 </v>
   <v>       0.02500000 </v>
   <v>       0.02500000 </v>
   <v>       0.02500000 </v>
   <v>       0.02500000 </v>
   <v>       0.02500000 </v>
   <v>       0.02500000 </v>
   <v>       0.02500000 </v>
   <v>       0.02500000 </v>
  </varray>
 </kpoints>
 <parameters>
  <separator name="general" >
   <i type="string" name="SYSTEM">CGS</i>
   <i type="logical" name="LCOMPAT"> F  </i>
  </separator>
  <separator name="electronic" >
   <i type="string" name="PREC">normal</i>
   <i name="ENMAX">    400.00000000</i>
   <i name="ENAUG">    758.23300000</i>
   <i name="EDIFF">      0.00001000</i>
   <i type="int" name="IALGO">    53</i>
   <i type="int" name="IWAVPR">    10</i>
   <i type="int" name="NBANDS">    80</i>
   <i name="NELECT">    112.00000000</i>
   <i type="int" name="TURBO">     0</i>
   <i type="int" name="IRESTART">     0</i>
   <i type="int" name="NREBOOT">     0</i>
   <i type="int" name="NMIN">     0</i>
   <i name="EREF">      0.00000000</i>
   <separator name="electronic smearing" >
    <i type="int" name="ISMEAR">     1</i>
    <i name="SIGMA">      0.10000000</i>
    <i name="KSPACING">      0.50000000</i>
    <i type="logical" name="KGAMMA"> T  </i>
   </separator>
   <separator name="electronic projectors" >
    <i type="logical" name="LREAL"> F  </i>
    <v name="ROPT">      0.00000000      0.00000000      0.00000000</v>
    <i type="int" name="LMAXPAW">  -100</i>
    <i type="int" name="LMAXMIX">     2</i>
    <i type="logical" name="NLSPLINE"> F  </i>
   </separator>
   <separator name="electronic startup" >
    <i type="int" name="ISTART">     1</i>
    <i type="int" name="ICHARG">     0</i>
    <i type="int" name="INIWAV">     1</i>
   </separator>
   <separator name="electronic spin" >
    <i type="int" name="ISPIN">     1</i>
    <i type="logical" name="LNONCOLLINEAR"> F  </i>
    <v name="MAGMOM">      1.00000000      1.00000000      1.00000000      1.00000000      1.00000000      1.00000000      1.00000000      1.00000000      1.00000000      1.00000000      1.00000000      1.00000000</v>
    <i name="NUPDOWN">     -1.00000000</i>
    <i type="logical" name="LSORBIT"> F  </i>
    <v name="SAXIS">      0.00000000      0.00000000      1.00000000</v>
    <i type="logical" name="LSPIRAL"> F  </i>
    <v name="QSPIRAL">      0.00000000      0.00000000      0.00000000</v>
    <i type="logical" name="LZEROZ"> F  </i>
   </separator>
   <separator name="electronic exchange-correlation" >
    <i type="logical" name="LASPH"> F  </i>
    <i type="logical" name="LMETAGGA"> F  </i>
   </separator>
   <separator name="electronic convergence" >
    <i type="int" name="NELM">    60</i>
    <i type="int" name="NELMDL">     0</i>
    <i type="int" name="NELMIN">     2</i>
    <i name="ENINI">    400.00000000</i>
    <separator name="electronic convergence detail" >
     <i type="logical" name="LDIAG"> T  </i>
     <i type="logical" name="LSUBROT"> T  </i>
     <i name="WEIMIN">      0.00000000</i>
     <i name="EBREAK">      0.00000003</i>
     <i name="DEPER">      0.30000000</i>
     <i type="int" name="NRMM">     4</i>
     <i name="TIME">      0.40000000</i>
    </separator>
   </separator>
   <separator name="electronic mixer" >
    <i name="AMIX">      0.40000000</i>
    <i name="BMIX">      1.00000000</i>
    <i name="AMIN">      0.10000000</i>
    <i name="AMIX_MAG">      1.60000000</i>
    <i name="BMIX_MAG">      1.00000000</i>
    <separator name="electronic mixer details" >
     <i type="int" name="IMIX">     4</i>
     <i type="int" name="MAXMIX">   -45</i>
     <i name="WC">    100.00000000</i>
     <i type="int" name="INIMIX">     1</i>
     <i type="int" name="MIXPRE">     1</i>
     <i type="int" name="MREMOVE">     5</i>
    </separator>
   </separator>
   <separator name="electronic dipolcorrection" >
    <i type="logical" name="LDIPOL"> F  </i>
    <i type="logical" name="LMONO"> F  </i>
    <i type="int" name="IDIPOL">     0</i>
    <i name="EPSILON">      1.00000000</i>
    <v name="DIPOL">   -100.00000000   -100.00000000   -100.00000000</v>
    <i name="EFIELD">      0.00000000</i>
   </separator>
  </separator>
  <separator name="grids" >
   <i type="int" name="NGX">    32</i>
   <i type="int" name="NGY">    32</i>
   <i type="int" name="NGZ">    32</i>
   <i type="int" name="NGXF">    64</i>
   <i type="int" name="NGYF">    64</i>
   <i type="int" name="NGZF">    64</i>
   <i type="logical" name="ADDGRID"> F  </i>
  </separator>
  <separator name="ionic" >
   <i type="int" name="NSW">     0</i>
   <i type="int" name="IBRION">    -1</i>
   <i type="int" name="ISIF">     0</i>
   <i name="PSTRESS">      0.00000000</i>
   <i name="EDIFFG">      0.00010000</i>
   <i type="int" name="NFREE">     0</i>
   <i name="POTIM">      0.50000000</i>
   <i name="SMASS">     -3.00000000</i>
   <i name="SCALEE">      1.00000000</i>
  </separator>
  <separator name="ionic md" >
   <i name="TEBEG">      0.00010000</i>
   <i name="TEEND">      0.00010000</i>
   <i type="int" name="NBLOCK">     1</i>
   <i type="int" name="KBLOCK">     1</i>
   <i type="int" name="NPACO">   256</i>
   <i name="APACO">     16.00000000</i>
  </separator>
  <separator name="symmetry" >
   <i type="int" name="ISYM">     3</i>
   <i name="SYMPREC">      0.00001000</i>
  </separator>
  <separator name="dos" >
   <i type="logical" name="LORBIT"> F  </i>
   <v name="RWIGS">     -1.00000000     -1.00000000     -1.00000000</v>
   <i type="int" name="NEDOS">   301</i>
   <i name="EMIN">     10.00000000</i>
   <i name="EMAX">    -10.00000000</i>
   <i name="EFERMI">      0.00000000</i>
  </separator>
  <separator name="writing" >
   <i type="int" name="NWRITE">     2</i>
   <i type="logical" name="LWAVE"> T  </i>
   <i type="logical" name="LCHARG"> T  </i>
   <i type="logical" name="LPARD"> F  </i>
   <i type="logical" name="LVTOT"> F  </i>
   <i type="logical" name="LVHAR"> F  </i>
   <i type="logical" name="LELF"> F  </i>
   <i type="logical" name="LOPTICS"> F  </i>
   <v name="STM">      0.00000000      0.00000000      0.00000000      0.00000000      0.00000000      0.00000000      0.00000000</v>
  </separator>
  <separator name="performance" >
   <i type="int" name="NPAR">    16</i>
   <i type="int" name="NSIM">     4</i>
   <i type="int" name="NBLK">    -1</i>
   <i type="logical" name="LPLANE"> T  </i>
   <i type="logical" name="LSCALAPACK"> T  </i>
   <i type="logical" name="LSCAAWARE"> F  </i>
   <i type="logical" name="LSCALU"> F  </i>
   <i type="logical" name="LASYNC"> F  </i>
   <i type="logical" name="LORBITALREAL"> F  </i>
  </separator>
  <separator name="miscellaneous" >
   <i type="int" name="IDIOT">     3</i>
   <i type="logical" name="LMUSIC"> F  </i>
   <v name="POMASS">     63.54600000     72.61000000     32.06600000</v>
   <v name="DARWINR">      0.00000000      0.00000000      0.00000000</v>
   <v name="DARWINV">      1.00000000      1.00000000      1.00000000</v>
   <i type="logical" name="LCORR"> T  </i>
  </separator>
  <i type="logical" name="GGA_COMPAT"> T  </i>
  <i type="logical" name="LBERRY"> F  </i>
  <i type="int" name="ICORELEVEL">     0</i>
  <i type="logical" name="LDAU"> F  </i>
  <i type="int" name="I_CONSTRAINED_M">     0</i>
  <separator name="electronic exchange-correlation" >
   <i type="string" name="GGA">PE</i>
   <i type="int" name="VOSKOWN">     0</i>
   <i type="logical" name="LHFCALC"> T  </i>
   <i type="string" name="PRECFOCK">fast</i>
   <i type="logical" name="LSYMGRAD"> F  </i>
   <i type="logical" name="LHFONE"> F  </i>
   <i type="logical" name="LRHFCALC"> F  </i>
   <i type="logical" name="LTHOMAS"> F  </i>
   <i type="logical" name="LMODELHF"> F  </i>
   <i name="ENCUT4O">     -1.00000000</i>
   <i type="int" name="EXXOEP">     0</i>
   <i type="int" name="FOURORBIT">     0</i>
   <i name="AEXX">      0.25000000</i>
   <i name="HFALPHA">     -1.00000000</i>
   <i name="MCALPHA">      0.00000000</i>
   <i name="ALDAX">      0.75000000</i>
   <i name="AGGAX">      0.75000000</i>
   <i name="ALDAC">      1.00000000</i>
   <i name="AGGAC">      1.00000000</i>
   <i type="int" name="NKREDX">     1</i>
   <i type="int" name="NKREDY">     1</i>
   <i type="int" name="NKREDZ">     1</i>
   <i type="logical" name="SHIFTRED"> F  </i>
   <i type="logical" name="ODDONLY"> F  </i>
   <i type="logical" name="EVENONLY"> F  </i>
   <i type="int" name="LMAXFOCK">     4</i>
   <i type="int" name="NMAXFOCKAE">     1</i>
   <i type="logical" name="LFOCKAEDFT"> F  </i>
   <i name="HFSCREEN">      0.20000000</i>
   <i name="HFSCREENC">      0.20000000</i>
   <i type="int" name="NBANDSGWLOW">     1</i>
  </separator>
  <separator name="vdW DFT" >
   <i type="logical" name="LUSE_VDW"> F  </i>
   <i name="Zab_VDW">     -0.84910000</i>
   <i name="PARAM1">      0.12340000</i>
   <i name="PARAM2">      1.00000000</i>
   <i name="PARAM3">      0.00000000</i>
  </separator>
  <separator name="model GW" >
   <i type="int" name="MODEL_GW">     0</i>
   <i name="MODEL_EPS0">     11.09505304</i>
   <i name="MODEL_ALPHA">      1.00000000</i>
  </separator>
  <separator name="linear response parameters" >
   <i type="logical" name="LEPSILON"> F  </i>
   <i type="logical" name="LRPA"> F  </i>
   <i type="logical" name="LNABLA"> F  </i>
   <i type="logical" name="LVEL"> F  </i>
   <i type="int" name="KINTER">     0</i>
   <i name="CSHIFT">      0.10000000</i>
   <i name="OMEGAMAX">     -1.00000000</i>
   <i name="DEG_THRESHOLD">      0.00200000</i>
  </separator>
  <separator name="orbital magnetization" >
   <i type="logical" name="NUCIND"> F  </i>
   <v name="MAGPOS">      0.00000000      0.00000000      0.00000000</v>
   <i type="logical" name="LNICSALL"> T  </i>
   <i type="logical" name="ORBITALMAG"> F  </i>
   <i type="logical" name="LMAGBLOCH"> F  </i>
   <i type="logical" name="LCHIMAG"> F  </i>
   <i type="logical" name="LGAUGE"> T  </i>
   <i type="int" name="MAGATOM">     0</i>
   <v name="MAGDIPOL">      0.00000000      0.00000000      0.00000000</v>
   <v name="AVECCONST">      0.00000000      0.00000000      0.00000000</v>
  </separator>
  <separator name="response functions" >
   <i type="logical" name="LADDER"> F  </i>
   <i type="logical" name="LFXC"> F  </i>
   <i type="logical" name="LHARTREE"> T  </i>
   <i type="int" name="IBSE">     0</i>
   <i type="logical" name="LTCTE"> F  </i>
   <i type="logical" name="LTETE"> F  </i>
   <i type="logical" name="LTRIPLET"> F  </i>
   <i type="logical" name="LFXCEPS"> F  </i>
   <i type="logical" name="L2ORDER"> F  </i>
   <i type="logical" name="LUSEW"> F  </i>
   <i name="ENCUTGW">     -2.00000000</i>
   <i name="ENCUTGWSOFT">     -2.00000000</i>
   <i name="ENCUTLF">     -1.00000000</i>
   <i type="int" name="LMAXMP2">    -1</i>
   <i name="SCISSOR">      0.00000000</i>
   <i type="int" name="NOMEGA">     0</i>
   <i type="int" name="NOMEGAR">     0</i>
   <i type="int" name="NBANDSGW">    -1</i>
   <i type="int" name="NBANDSO">    -1</i>
   <i type="int" name="NBANDSV">    -1</i>
   <i type="int" name="NELM">     1</i>
   <i type="int" name="DIM">     3</i>
   <i type="int" name="ANTIRES">     0</i>
   <i name="OMEGAMAX">    -30.00000000</i>
   <i name="OMEGATL">   -200.00000000</i>
   <i type="int" name="OMEGAGRID">     0</i>
   <i name="CSHIFT">     -0.10000000</i>
   <i type="logical" name="SELFENERGY"> F  </i>
   <i type="logical" name="LSPECTRAL"> F  </i>
   <i type="logical" name="ODDONLYGW"> F  </i>
   <i type="logical" name="EVENONLYGW"> F  </i>
   <i type="int" name="NKREDLFX">     1</i>
   <i type="int" name="NKREDLFY">     1</i>
   <i type="int" name="NKREDLFZ">     1</i>
   <i type="int" name="MAXMEM">  1800</i>
   <i type="int" name="TELESCOPE">     0</i>
  </separator>
 </parameters>
 <atominfo>
  <atoms>      12 </atoms>
  <types>       3 </types>
  <array name="atoms" >
   <dimension dim="1">ion</dimension>
   <field type="string">element</field>
   <field type="int">atomtype</field>
   <set>
    <rc><c>Cu</c><c>   1</c></rc>
    <rc><c>Cu</c><c>   1</c></rc>
    <rc><c>Cu</c><c>   1</c></rc>
    <rc><c>Cu</c><c>   1</c></rc>
    <rc><c>Ge</c><c>   2</c></rc>
    <rc><c>Ge</c><c>   2</c></rc>
    <rc><c>S </c><c>   3</c></rc>
    <rc><c>S </c><c>   3</c></rc>
    <rc><c>S </c><c>   3</c></rc>
    <rc><c>S </c><c>   3</c></rc>
    <rc><c>S </c><c>   3</c></rc>
    <rc><c>S </c><c>   3</c></rc>
   </set>
  </array>
  <array name="atomtypes" >
   <dimension dim="1">type</dimension>
   <field type="int">atomspertype</field>
   <field type="string">element</field>
   <field>mass</field>
   <field>valence</field>
   <field type="string">pseudopotential</field>
   <set>
    <rc><c>   4</c><c>Cu</c><c>     63.54600000</c><c>     17.00000000</c><c>  PAW_PBE Cu_pv 06Sep2000               </c></rc>
    <rc><c>   2</c><c>Ge</c><c>     72.61000000</c><c>      4.00000000</c><c>  PAW_PBE Ge 05Jan2001                  </c></rc>
    <rc><c>   6</c><c>S </c><c>     32.06600000</c><c>      6.00000000</c><c>  PAW_PBE S 17Jan2003                   </c></rc>
   </set>
  </array>
 </atominfo>
 <structure name="initialpos" >
  <crystal>
   <varray name="basis" >
    <v>       3.22479600      -5.64383000       0.03157200 </v>
    <v>       3.22479600       5.64383000       0.03157200 </v>
    <v>      -2.10194600       0.00000000       6.07553700 </v>
   </varray>
   <i name="volume">    221.90106089 </i>
   <varray name="rec_basis" >
    <v>       0.15452516      -0.08859232       0.05346088 </v>
    <v>       0.15452516       0.08859232       0.05346088 </v>
    <v>      -0.00160600       0.00000000       0.16403888 </v>
   </varray>
  </crystal>
  <varray name="positions" >
   <v>       0.61844300       0.12117100       0.12108848 </v>
   <v>       0.12117100       0.61844300       0.61953300 </v>
   <v>       0.96295700       0.79032200       0.11881300 </v>
   <v>       0.79032200       0.96295700       0.61881300 </v>
   <v>       0.43973200       0.26728100       0.59904700 </v>
   <v>       0.26728100       0.43973200       0.09904700 </v>
   <v>       0.07949800       0.91167500       0.49736300 </v>
   <v>       0.57140300       0.41236400       0.98018400 </v>
   <v>       0.73711100       0.25006200       0.49504900 </v>
   <v>       0.41236400       0.57140300       0.48018400 </v>
   <v>       0.91167500       0.07949800       0.99736300 </v>
   <v>       0.25006200       0.73711100       0.99504900 </v>
  </varray>
 </structure>
 <calculation>
  <scstep>
   <time name="total">  239.91  240.66</time>
   <energy>
    <i name="alphaZ">    339.31929130 </i>
    <i name="ewald">  -9064.48788273 </i>
    <i name="hartreedc">  -8067.04986992 </i>
    <i name="XCdc">    369.89270889 </i>
    <i name="pawpsdc">  16956.93322273 </i>
    <i name="pawaedc"> -17449.67528412 </i>
    <i name="eentropy">     -0.00145768 </i>
    <i name="bandstr">  -1657.62874172 </i>
    <i name="atom">  18320.98302006 </i>
    <i name="e_fr_energy">     75.72540870 </i>
    <i name="e_wo_entrp">     75.72686638 </i>
    <i name="e_0_energy">     75.72589459 </i>
   </energy>
  </scstep>
  <scstep>
   <time name="total">  249.31  249.18</time>
   <energy>
    <i name="e_fr_energy">     -8.24543980 </i>
    <i name="e_wo_entrp">     -8.24484239 </i>
    <i name="e_0_energy">     -8.24524066 </i>
   </energy>
  </scstep>
  <scstep>
   <time name="total">  243.65  243.71</time>
   <energy>
    <i name="e_fr_energy">    -15.08218282 </i>
    <i name="e_wo_entrp">    -15.08242610 </i>
    <i name="e_0_energy">    -15.08226391 </i>
   </energy>
  </scstep>
  <scstep>
   <time name="total">  249.54  249.35</time>
   <energy>
    <i name="e_fr_energy">    -22.58296564 </i>
    <i name="e_wo_entrp">    -22.58333775 </i>
    <i name="e_0_energy">    -22.58308968 </i>
   </energy>
  </scstep>
  <scstep>
   <time name="total">  248.84  248.64</time>
   <energy>
    <i name="e_fr_energy">    -60.77414663 </i>
    <i name="e_wo_entrp">    -60.77477624 </i>
    <i name="e_0_energy">    -60.77435650 </i>
   </energy>
  </scstep>
  <scstep>
   <time name="total">  249.50  249.29</time>
   <energy>
    <i name="e_fr_energy">    -65.90245789 </i>
    <i name="e_wo_entrp">    -65.90309099 </i>
    <i name="e_0_energy">    -65.90266892 </i>
   </energy>
  </scstep>
  <scstep>
   <time name="total">  248.64  248.68</time>
   <energy>
    <i name="e_fr_energy">    -67.45388101 </i>
    <i name="e_wo_entrp">    -67.45429995 </i>
    <i name="e_0_energy">    -67.45402066 </i>
   </energy>
  </scstep>
  <scstep>
   <time name="total">  249.40  249.64</time>
   <energy>
    <i name="e_fr_energy">    -69.07963322 </i>
    <i name="e_wo_entrp">    -69.08034704 </i>
    <i name="e_0_energy">    -69.07987116 </i>
   </energy>
  </scstep>
  <scstep>
   <time name="total">  251.13  251.40</time>
   <energy>
    <i name="e_fr_energy">    -69.39396572 </i>
    <i name="e_wo_entrp">    -69.39480961 </i>
    <i name="e_0_energy">    -69.39424702 </i>
   </energy>
  </scstep>
  <scstep>
   <time name="total">  250.67  250.46</time>
   <energy>
    <i name="e_fr_energy">    -69.49824079 </i>
    <i name="e_wo_entrp">    -69.49894230 </i>
    <i name="e_0_energy">    -69.49847463 </i>
   </energy>
  </scstep>
  <scstep>
   <time name="total">  250.08  249.88</time>
   <energy>
    <i name="e_fr_energy">    -69.56841128 </i>
    <i name="e_wo_entrp">    -69.56900481 </i>
    <i name="e_0_energy">    -69.56860912 </i>
   </energy>
  </scstep>
  <scstep>
   <time name="total">  250.25  250.04</time>
   <energy>
    <i name="e_fr_energy">    -69.58077484 </i>
    <i name="e_wo_entrp">    -69.58131710 </i>
    <i name="e_0_energy">    -69.58095560 </i>
   </energy>
  </scstep>
  <scstep>
   <time name="total">  249.98  249.80</time>
   <energy>
    <i name="e_fr_energy">    -69.59050467 </i>
    <i name="e_wo_entrp">    -69.59103473 </i>
    <i name="e_0_energy">    -69.59068136 </i>
   </energy>
  </scstep>
  <scstep>
   <time name="total">  249.27  249.11</time>
   <energy>
    <i name="e_fr_energy">    -69.59298903 </i>
    <i name="e_wo_entrp">    -69.59353719 </i>
    <i name="e_0_energy">    -69.59317175 </i>
   </energy>
  </scstep>
  <scstep>
   <time name="total">  249.99  249.87</time>
   <energy>
    <i name="e_fr_energy">    -69.59451213 </i>
    <i name="e_wo_entrp">    -69.59507302 </i>
    <i name="e_0_energy">    -69.59469909 </i>
   </energy>
  </scstep>
  <scstep>
   <time name="total">  249.86  249.67</time>
   <energy>
    <i name="e_fr_energy">    -69.59509154 </i>
    <i name="e_wo_entrp">    -69.59565290 </i>
    <i name="e_0_energy">    -69.59527866 </i>
   </energy>
  </scstep>
  <scstep>
   <time name="total">  252.21  252.00</time>
   <energy>
    <i name="e_fr_energy">    -69.59526789 </i>
    <i name="e_wo_entrp">    -69.59582631 </i>
    <i name="e_0_energy">    -69.59545403 </i>
   </energy>
  </scstep>
  <scstep>
   <time name="total">  251.31  251.09</time>
   <energy>
    <i name="e_fr_energy">    -69.59538678 </i>
    <i name="e_wo_entrp">    -69.59594237 </i>
    <i name="e_0_energy">    -69.59557198 </i>
   </energy>
  </scstep>
  <scstep>
   <time name="total">  250.81  250.65</time>
   <energy>
    <i name="e_fr_energy">    -69.59541654 </i>
    <i name="e_wo_entrp">    -69.59597076 </i>
    <i name="e_0_energy">    -69.59560128 </i>
   </energy>
  </scstep>
  <scstep>
   <time name="total">  250.61  250.40</time>
   <energy>
    <i name="e_fr_energy">    -69.59543684 </i>
    <i name="e_wo_entrp">    -69.59599145 </i>
    <i name="e_0_energy">    -69.59562171 </i>
   </energy>
  </scstep>
  <scstep>
   <time name="total">  249.64  249.45</time>
   <energy>
    <i name="alphaZ">    339.31929130 </i>
    <i name="ewald">  -9064.48788273 </i>
    <i name="hartreedc">  -8149.62502034 </i>
    <i name="XCdc">    372.06865055 </i>
    <i name="pawpsdc">  15922.03573302 </i>
    <i name="pawaedc"> -16407.22861531 </i>
    <i name="eentropy">      0.00055522 </i>
    <i name="bandstr">  -1742.72728955 </i>
    <i name="atom">  18320.98302006 </i>
    <i name="e_fr_energy">    -69.59544449 </i>
    <i name="e_wo_entrp">    -69.59599972 </i>
    <i name="e_0_energy">    -69.59562957 </i>
   </energy>
  </scstep>
  <structure>
   <crystal>
    <varray name="basis" >
     <v>       3.22479600      -5.64383000       0.03157200 </v>
     <v>       3.22479600       5.64383000       0.03157200 </v>
     <v>      -2.10194600       0.00000000       6.07553700 </v>
    </varray>
    <i name="volume">    221.90106089 </i>
    <varray name="rec_basis" >
     <v>       0.15452516      -0.08859232       0.05346088 </v>
     <v>       0.15452516       0.08859232       0.05346088 </v>
     <v>      -0.00160600       0.00000000       0.16403888 </v>
    </varray>
   </crystal>
   <varray name="positions" >
    <v>       0.61844300       0.12117100       0.12108848 </v>
    <v>       0.12117100       0.61844300       0.61953300 </v>
    <v>       0.96295700       0.79032200       0.11881300 </v>
    <v>       0.79032200       0.96295700       0.61881300 </v>
    <v>       0.43973200       0.26728100       0.59904700 </v>
    <v>       0.26728100       0.43973200       0.09904700 </v>
    <v>       0.07949800       0.91167500       0.49736300 </v>
    <v>       0.57140300       0.41236400       0.98018400 </v>
    <v>       0.73711100       0.25006200       0.49504900 </v>
    <v>       0.41236400       0.57140300       0.48018400 </v>
    <v>       0.91167500       0.07949800       0.99736300 </v>
    <v>       0.25006200       0.73711100       0.99504900 </v>
   </varray>
  </structure>
  <varray name="forces" >
   <v>       0.01292147      -0.00527966      -0.05276113 </v>
   <v>      -0.00173618       0.00083955       0.00205865 </v>
   <v>       0.00155814      -0.00054048       0.00077144 </v>
   <v>       0.00159486      -0.00154483       0.00355932 </v>
   <v>      -0.00370462       0.01164377       0.00803664 </v>
   <v>      -0.00173643      -0.00835154       0.00063660 </v>
   <v>       0.00141756       0.00099863      -0.00179402 </v>
   <v>      -0.00546841      -0.01267595       0.00386435 </v>
   <v>       0.00174413      -0.00049181       0.03168477 </v>
   <v>      -0.00050250       0.00682946       0.00089240 </v>
   <v>      -0.00358906       0.01212177       0.00409750 </v>
   <v>      -0.00249897      -0.00354892      -0.00104652 </v>
  </varray>
  <energy>
   <i name="e_fr_energy">    -69.59544449 </i>
   <i name="e_wo_entrp">    -69.59562957 </i>
   <i name="e_0_energy">      0.00055522 </i>
  </energy>
  <time name="totalsc"> 5704.86 5706.65</time>
  <eigenvalues>
   <array>
    <dimension dim="1">band</dimension>
    <dimension dim="2">kpoint</dimension>
    <dimension dim="3">spin</dimension>
    <field>eigene</field>
    <field>occ</field>
    <set>
     <set comment="spin 1">
      <set comment="kpoint 1">
       <r>  -68.6462    1.0000 </r>
       <r>  -68.6430    1.0000 </r>
       <r>  -68.6340    1.0000 </r>
       <r>  -68.6327    1.0000 </r>
       <r>  -68.6143    1.0000 </r>
       <r>  -68.6141    1.0000 </r>
       <r>  -68.5969    1.0000 </r>
       <r>  -68.5938    1.0000 </r>
       <r>  -68.5781    1.0000 </r>
       <r>  -68.5769    1.0000 </r>
       <r>  -68.5614    1.0000 </r>
       <r>  -68.5601    1.0000 </r>
       <r>  -12.7204    1.0000 </r>
       <r>  -11.1303    1.0000 </r>
       <r>  -10.9153    1.0000 </r>
       <r>  -10.6029    1.0000 </r>
       <r>  -10.2541    1.0000 </r>
       <r>  -10.2355    1.0000 </r>
       <r>   -5.9849    1.0000 </r>
       <r>   -4.9829    1.0000 </r>
       <r>   -2.7615    1.0000 </r>
       <r>   -2.2079    1.0000 </r>
       <r>   -2.0712    1.0000 </r>
       <r>   -1.9230    1.0000 </r>
       <r>   -1.5771    1.0000 </r>
       <r>   -0.9838    1.0000 </r>
       <r>   -0.9480    1.0000 </r>
       <r>   -0.6838    1.0000 </r>
       <r>   -0.4052    1.0000 </r>
       <r>   -0.2743    1.0000 </r>
       <r>   -0.2626    1.0000 </r>
       <r>   -0.2317    1.0000 </r>
       <r>   -0.1915    1.0000 </r>
       <r>   -0.1521    1.0000 </r>
       <r>   -0.0397    1.0000 </r>
       <r>    0.0289    1.0000 </r>
       <r>    1.3494    1.0000 </r>
       <r>    1.3635    1.0000 </r>
       <r>    1.4137    1.0000 </r>
       <r>    1.4573    1.0000 </r>
       <r>    1.4718    1.0000 </r>
       <r>    1.4740    1.0000 </r>
       <r>    1.5204    1.0000 </r>
       <r>    1.5332    1.0000 </r>
       <r>    1.5740    1.0000 </r>
       <r>    1.7116    1.0000 </r>
       <r>    1.8949    1.0000 </r>
       <r>    1.9300    1.0000 </r>
       <r>    2.0580    1.0000 </r>
       <r>    2.6500    1.0000 </r>
       <r>    2.7298    1.0000 </r>
       <r>    3.0885    1.0000 </r>
       <r>    3.2141    1.0000 </r>
       <r>    4.0048    1.0044 </r>
       <r>    4.0386    1.0130 </r>
       <r>    4.1733    0.8645 </r>
       <r>    5.5379   -0.0000 </r>
       <r>    6.3607   -0.0000 </r>
       <r>    7.6304    0.0000 </r>
       <r>    7.9860    0.0000 </r>
       <r>    8.6168    0.0000 </r>
       <r>    8.7929    0.0000 </r>
       <r>    9.5721    0.0000 </r>
       <r>    9.7395    0.0000 </r>
       <r>    9.8158    0.0000 </r>
       <r>   10.4173    0.0000 </r>
       <r>   10.5810    0.0000 </r>
       <r>   10.6921    0.0000 </r>
       <r>   10.7160    0.0000 </r>
       <r>   11.2842    0.0000 </r>
       <r>   11.7113    0.0000 </r>
       <r>   12.3889    0.0000 </r>
       <r>   12.4519    0.0000 </r>
       <r>   12.7300    0.0000 </r>
       <r>   13.3201    0.0000 </r>
       <r>   13.3823    0.0000 </r>
       <r>   13.8326    0.0000 </r>
       <r>   13.8849    0.0000 </r>
       <r>   14.1482    0.0000 </r>
       <r>   14.1838    0.0000 </r>
      </set>
      <set comment="kpoint 2">
       <r>  -68.6462    1.0000 </r>
       <r>  -68.6429    1.0000 </r>
       <r>  -68.6340    1.0000 </r>
       <r>  -68.6326    1.0000 </r>
       <r>  -68.6142    1.0000 </r>
       <r>  -68.6140    1.0000 </r>
       <r>  -68.5969    1.0000 </r>
       <r>  -68.5938    1.0000 </r>
       <r>  -68.5781    1.0000 </r>
       <r>  -68.5768    1.0000 </r>
       <r>  -68.5614    1.0000 </r>
       <r>  -68.5600    1.0000 </r>
       <r>  -12.5954    1.0000 </r>
       <r>  -11.1285    1.0000 </r>
       <r>  -10.9803    1.0000 </r>
       <r>  -10.6762    1.0000 </r>
       <r>  -10.3688    1.0000 </r>
       <r>  -10.2786    1.0000 </r>
       <r>   -5.9333    1.0000 </r>
       <r>   -4.7725    1.0000 </r>
       <r>   -2.6463    1.0000 </r>
       <r>   -2.2528    1.0000 </r>
       <r>   -2.0850    1.0000 </r>
       <r>   -1.6877    1.0000 </r>
       <r>   -1.3480    1.0000 </r>
       <r>   -0.9990    1.0000 </r>
       <r>   -0.7664    1.0000 </r>
       <r>   -0.6212    1.0000 </r>
       <r>   -0.5535    1.0000 </r>
       <r>   -0.4345    1.0000 </r>
       <r>   -0.3636    1.0000 </r>
       <r>   -0.2411    1.0000 </r>
       <r>   -0.1948    1.0000 </r>
       <r>   -0.1648    1.0000 </r>
       <r>   -0.0499    1.0000 </r>
       <r>    0.0362    1.0000 </r>
       <r>    1.2796    1.0000 </r>
       <r>    1.3358    1.0000 </r>
       <r>    1.3547    1.0000 </r>
       <r>    1.3923    1.0000 </r>
       <r>    1.4263    1.0000 </r>
       <r>    1.4721    1.0000 </r>
       <r>    1.4979    1.0000 </r>
       <r>    1.5311    1.0000 </r>
       <r>    1.7251    1.0000 </r>
       <r>    1.8593    1.0000 </r>
       <r>    2.0575    1.0000 </r>
       <r>    2.0946    1.0000 </r>
       <r>    2.2329    1.0000 </r>
       <r>    2.4135    1.0000 </r>
       <r>    2.5552    1.0000 </r>
       <r>    2.8253    1.0000 </r>
       <r>    2.9448    1.0000 </r>
       <r>    3.2444    1.0000 </r>
       <r>    3.6620    1.0000 </r>
       <r>    4.0399    1.0135 </r>
       <r>    6.1710   -0.0000 </r>
       <r>    6.9070   -0.0000 </r>
       <r>    8.1369    0.0000 </r>
       <r>    8.2689    0.0000 </r>
       <r>    8.5942    0.0000 </r>
       <r>    9.0138    0.0000 </r>
       <r>    9.2436    0.0000 </r>
       <r>    9.5325    0.0000 </r>
       <r>    9.8646    0.0000 </r>
       <r>   10.3759    0.0000 </r>
       <r>   10.6315    0.0000 </r>
       <r>   10.8136    0.0000 </r>
       <r>   10.9390    0.0000 </r>
       <r>   11.1888    0.0000 </r>
       <r>   11.6562    0.0000 </r>
       <r>   11.7703    0.0000 </r>
       <r>   12.1167    0.0000 </r>
       <r>   12.4440    0.0000 </r>
       <r>   12.6165    0.0000 </r>
       <r>   13.0089    0.0000 </r>
       <r>   13.5081    0.0000 </r>
       <r>   13.8749    0.0000 </r>
       <r>   14.2126    0.0000 </r>
       <r>   14.7109    0.0000 </r>
      </set>
      <set comment="kpoint 3">
       <r>  -68.6461    1.0000 </r>
       <r>  -68.6428    1.0000 </r>
       <r>  -68.6339    1.0000 </r>
       <r>  -68.6325    1.0000 </r>
       <r>  -68.6142    1.0000 </r>
       <r>  -68.6140    1.0000 </r>
       <r>  -68.5968    1.0000 </r>
       <r>  -68.5937    1.0000 </r>
       <r>  -68.5781    1.0000 </r>
       <r>  -68.5768    1.0000 </r>
       <r>  -68.5612    1.0000 </r>
       <r>  -68.5599    1.0000 </r>
       <r>  -12.4360    1.0000 </r>
       <r>  -11.2499    1.0000 </r>
       <r>  -10.9547    1.0000 </r>
       <r>  -10.7644    1.0000 </r>
       <r>  -10.4292    1.0000 </r>
       <r>  -10.3597    1.0000 </r>
       <r>   -5.8710    1.0000 </r>
       <r>   -4.5477    1.0000 </r>
       <r>   -2.4934    1.0000 </r>
       <r>   -2.2466    1.0000 </r>
       <r>   -1.9420    1.0000 </r>
       <r>   -1.4634    1.0000 </r>
       <r>   -1.2274    1.0000 </r>
       <r>   -1.1028    1.0000 </r>
       <r>   -0.9001    1.0000 </r>
       <r>   -0.8638    1.0000 </r>
       <r>   -0.5950    1.0000 </r>
       <r>   -0.5362    1.0000 </r>
       <r>   -0.2766    1.0000 </r>
       <r>   -0.2069    1.0000 </r>
       <r>   -0.1999    1.0000 </r>
       <r>   -0.1441    1.0000 </r>
       <r>   -0.0334    1.0000 </r>
       <r>    0.0779    1.0000 </r>
       <r>    1.2541    1.0000 </r>
       <r>    1.3268    1.0000 </r>
       <r>    1.3477    1.0000 </r>
       <r>    1.3973    1.0000 </r>
       <r>    1.4707    1.0000 </r>
       <r>    1.4786    1.0000 </r>
       <r>    1.5004    1.0000 </r>
       <r>    1.5544    1.0000 </r>
       <r>    1.7518    1.0000 </r>
       <r>    1.7912    1.0000 </r>
       <r>    1.9680    1.0000 </r>
       <r>    2.1467    1.0000 </r>
       <r>    2.3201    1.0000 </r>
       <r>    2.3620    1.0000 </r>
       <r>    2.5540    1.0000 </r>
       <r>    2.6725    1.0000 </r>
       <r>    2.9387    1.0000 </r>
       <r>    3.0813    1.0000 </r>
       <r>    3.2504    1.0000 </r>
       <r>    3.8595    1.0000 </r>
       <r>    6.3864   -0.0000 </r>
       <r>    7.0968    0.0000 </r>
       <r>    7.9804    0.0000 </r>
       <r>    8.2027    0.0000 </r>
       <r>    8.5221    0.0000 </r>
       <r>    8.8216    0.0000 </r>
       <r>    9.3275    0.0000 </r>
       <r>    9.8868    0.0000 </r>
       <r>   10.0106    0.0000 </r>
       <r>   10.5190    0.0000 </r>
       <r>   10.6917    0.0000 </r>
       <r>   10.7948    0.0000 </r>
       <r>   11.1422    0.0000 </r>
       <r>   11.4107    0.0000 </r>
       <r>   11.6101    0.0000 </r>
       <r>   11.7732    0.0000 </r>
       <r>   11.9420    0.0000 </r>
       <r>   12.5012    0.0000 </r>
       <r>   12.7799    0.0000 </r>
       <r>   13.0009    0.0000 </r>
       <r>   13.3959    0.0000 </r>
       <r>   13.5416    0.0000 </r>
       <r>   13.9378    0.0000 </r>
       <r>   14.2673    0.0000 </r>
      </set>
      <set comment="kpoint 4">
       <r>  -68.6462    1.0000 </r>
       <r>  -68.6429    1.0000 </r>
       <r>  -68.6340    1.0000 </r>
       <r>  -68.6326    1.0000 </r>
       <r>  -68.6142    1.0000 </r>
       <r>  -68.6140    1.0000 </r>
       <r>  -68.5969    1.0000 </r>
       <r>  -68.5938    1.0000 </r>
       <r>  -68.5781    1.0000 </r>
       <r>  -68.5768    1.0000 </r>
       <r>  -68.5614    1.0000 </r>
       <r>  -68.5600    1.0000 </r>
       <r>  -12.5954    1.0000 </r>
       <r>  -11.1292    1.0000 </r>
       <r>  -10.9806    1.0000 </r>
       <r>  -10.6739    1.0000 </r>
       <r>  -10.3702    1.0000 </r>
       <r>  -10.2785    1.0000 </r>
       <r>   -5.9334    1.0000 </r>
       <r>   -4.7724    1.0000 </r>
       <r>   -2.6465    1.0000 </r>
       <r>   -2.2496    1.0000 </r>
       <r>   -2.0882    1.0000 </r>
       <r>   -1.6888    1.0000 </r>
       <r>   -1.3442    1.0000 </r>
       <r>   -0.9985    1.0000 </r>
       <r>   -0.7683    1.0000 </r>
       <r>   -0.6252    1.0000 </r>
       <r>   -0.5516    1.0000 </r>
       <r>   -0.4391    1.0000 </r>
       <r>   -0.3600    1.0000 </r>
       <r>   -0.2402    1.0000 </r>
       <r>   -0.1955    1.0000 </r>
       <r>   -0.1681    1.0000 </r>
       <r>   -0.0479    1.0000 </r>
       <r>    0.0398    1.0000 </r>
       <r>    1.2793    1.0000 </r>
       <r>    1.3361    1.0000 </r>
       <r>    1.3545    1.0000 </r>
       <r>    1.3920    1.0000 </r>
       <r>    1.4267    1.0000 </r>
       <r>    1.4722    1.0000 </r>
       <r>    1.4983    1.0000 </r>
       <r>    1.5300    1.0000 </r>
       <r>    1.7249    1.0000 </r>
       <r>    1.8606    1.0000 </r>
       <r>    2.0565    1.0000 </r>
       <r>    2.0953    1.0000 </r>
       <r>    2.2318    1.0000 </r>
       <r>    2.4145    1.0000 </r>
       <r>    2.5543    1.0000 </r>
       <r>    2.8243    1.0000 </r>
       <r>    2.9467    1.0000 </r>
       <r>    3.2428    1.0000 </r>
       <r>    3.6627    1.0000 </r>
       <r>    4.0408    1.0139 </r>
       <r>    6.1699   -0.0000 </r>
       <r>    6.9077   -0.0000 </r>
       <r>    8.1375    0.0000 </r>
       <r>    8.2682    0.0000 </r>
       <r>    8.5928    0.0000 </r>
       <r>    9.0152    0.0000 </r>
       <r>    9.2420    0.0000 </r>
       <r>    9.5316    0.0000 </r>
       <r>    9.8649    0.0000 </r>
       <r>   10.3757    0.0000 </r>
       <r>   10.6342    0.0000 </r>
       <r>   10.8155    0.0000 </r>
       <r>   10.9386    0.0000 </r>
       <r>   11.1891    0.0000 </r>
       <r>   11.6556    0.0000 </r>
       <r>   11.7702    0.0000 </r>
       <r>   12.1173    0.0000 </r>
       <r>   12.4414    0.0000 </r>
       <r>   12.6169    0.0000 </r>
       <r>   13.0083    0.0000 </r>
       <r>   13.5211    0.0000 </r>
       <r>   13.8993    0.0000 </r>
       <r>   14.2730    0.0000 </r>
       <r>   14.8272    0.0000 </r>
      </set>
      <set comment="kpoint 5">
       <r>  -68.6462    1.0000 </r>
       <r>  -68.6429    1.0000 </r>
       <r>  -68.6339    1.0000 </r>
       <r>  -68.6325    1.0000 </r>
       <r>  -68.6144    1.0000 </r>
       <r>  -68.6142    1.0000 </r>
       <r>  -68.5968    1.0000 </r>
       <r>  -68.5937    1.0000 </r>
       <r>  -68.5782    1.0000 </r>
       <r>  -68.5770    1.0000 </r>
       <r>  -68.5614    1.0000 </r>
       <r>  -68.5600    1.0000 </r>
       <r>  -12.4397    1.0000 </r>
       <r>  -11.1925    1.0000 </r>
       <r>  -10.9414    1.0000 </r>
       <r>  -10.8763    1.0000 </r>
       <r>  -10.3912    1.0000 </r>
       <r>  -10.3537    1.0000 </r>
       <r>   -5.8762    1.0000 </r>
       <r>   -4.5209    1.0000 </r>
       <r>   -2.4181    1.0000 </r>
       <r>   -2.2450    1.0000 </r>
       <r>   -1.7905    1.0000 </r>
       <r>   -1.6805    1.0000 </r>
       <r>   -1.3574    1.0000 </r>
       <r>   -1.2980    1.0000 </r>
       <r>   -1.0789    1.0000 </r>
       <r>   -0.6819    1.0000 </r>
       <r>   -0.5288    1.0000 </r>
       <r>   -0.2979    1.0000 </r>
       <r>   -0.2816    1.0000 </r>
       <r>   -0.2249    1.0000 </r>
       <r>   -0.1866    1.0000 </r>
       <r>   -0.1293    1.0000 </r>
       <r>   -0.0904    1.0000 </r>
       <r>    0.0791    1.0000 </r>
       <r>    1.2929    1.0000 </r>
       <r>    1.3111    1.0000 </r>
       <r>    1.4154    1.0000 </r>
       <r>    1.4264    1.0000 </r>
       <r>    1.4636    1.0000 </r>
       <r>    1.4824    1.0000 </r>
       <r>    1.4954    1.0000 </r>
       <r>    1.5700    1.0000 </r>
       <r>    1.6713    1.0000 </r>
       <r>    1.8817    1.0000 </r>
       <r>    1.9403    1.0000 </r>
       <r>    2.1347    1.0000 </r>
       <r>    2.2796    1.0000 </r>
       <r>    2.3197    1.0000 </r>
       <r>    2.5600    1.0000 </r>
       <r>    2.6516    1.0000 </r>
       <r>    2.9041    1.0000 </r>
       <r>    2.9443    1.0000 </r>
       <r>    3.6986    1.0000 </r>
       <r>    3.8317    1.0000 </r>
       <r>    6.1717   -0.0000 </r>
       <r>    6.9907    0.0000 </r>
       <r>    8.0036    0.0000 </r>
       <r>    8.3274    0.0000 </r>
       <r>    8.4353    0.0000 </r>
       <r>    8.5728    0.0000 </r>
       <r>    9.1468    0.0000 </r>
       <r>    9.2485    0.0000 </r>
       <r>   10.3611    0.0000 </r>
       <r>   10.4953    0.0000 </r>
       <r>   10.9211    0.0000 </r>
       <r>   11.1862    0.0000 </r>
       <r>   11.3291    0.0000 </r>
       <r>   11.5574    0.0000 </r>
       <r>   11.8120    0.0000 </r>
       <r>   11.9624    0.0000 </r>
       <r>   12.3152    0.0000 </r>
       <r>   12.5019    0.0000 </r>
       <r>   12.7130    0.0000 </r>
       <r>   12.9153    0.0000 </r>
       <r>   13.3384    0.0000 </r>
       <r>   13.4458    0.0000 </r>
       <r>   14.2532    0.0000 </r>
       <r>   14.3653    0.0000 </r>
      </set>
      <set comment="kpoint 6">
       <r>  -68.6460    1.0000 </r>
       <r>  -68.6427    1.0000 </r>
       <r>  -68.6339    1.0000 </r>
       <r>  -68.6326    1.0000 </r>
       <r>  -68.6141    1.0000 </r>
       <r>  -68.6140    1.0000 </r>
       <r>  -68.5968    1.0000 </r>
       <r>  -68.5938    1.0000 </r>
       <r>  -68.5780    1.0000 </r>
       <r>  -68.5768    1.0000 </r>
       <r>  -68.5612    1.0000 </r>
       <r>  -68.5599    1.0000 </r>
       <r>  -12.4400    1.0000 </r>
       <r>  -11.3557    1.0000 </r>
       <r>  -10.9360    1.0000 </r>
       <r>  -10.7364    1.0000 </r>
       <r>  -10.3933    1.0000 </r>
       <r>  -10.2714    1.0000 </r>
       <r>   -5.9478    1.0000 </r>
       <r>   -4.6419    1.0000 </r>
       <r>   -2.3921    1.0000 </r>
       <r>   -2.2250    1.0000 </r>
       <r>   -2.0581    1.0000 </r>
       <r>   -1.6398    1.0000 </r>
       <r>   -1.3648    1.0000 </r>
       <r>   -1.2787    1.0000 </r>
       <r>   -1.0208    1.0000 </r>
       <r>   -0.5114    1.0000 </r>
       <r>   -0.4838    1.0000 </r>
       <r>   -0.3294    1.0000 </r>
       <r>   -0.2836    1.0000 </r>
       <r>   -0.2114    1.0000 </r>
       <r>   -0.1513    1.0000 </r>
       <r>   -0.1375    1.0000 </r>
       <r>   -0.0129    1.0000 </r>
       <r>    0.1100    1.0000 </r>
       <r>    1.2460    1.0000 </r>
       <r>    1.3150    1.0000 </r>
       <r>    1.3823    1.0000 </r>
       <r>    1.4375    1.0000 </r>
       <r>    1.4613    1.0000 </r>
       <r>    1.4920    1.0000 </r>
       <r>    1.4975    1.0000 </r>
       <r>    1.5501    1.0000 </r>
       <r>    1.7496    1.0000 </r>
       <r>    1.8280    1.0000 </r>
       <r>    1.9216    1.0000 </r>
       <r>    2.1335    1.0000 </r>
       <r>    2.2215    1.0000 </r>
       <r>    2.3847    1.0000 </r>
       <r>    2.5605    1.0000 </r>
       <r>    2.7935    1.0000 </r>
       <r>    2.9781    1.0000 </r>
       <r>    3.3136    1.0000 </r>
       <r>    3.6043    1.0000 </r>
       <r>    3.7470    1.0000 </r>
       <r>    6.0887   -0.0000 </r>
       <r>    6.9395   -0.0000 </r>
       <r>    7.6122    0.0000 </r>
       <r>    8.0688    0.0000 </r>
       <r>    8.4099    0.0000 </r>
       <r>    8.6177    0.0000 </r>
       <r>    8.9837    0.0000 </r>
       <r>    9.1523    0.0000 </r>
       <r>   10.0871    0.0000 </r>
       <r>   10.3356    0.0000 </r>
       <r>   10.7325    0.0000 </r>
       <r>   11.1076    0.0000 </r>
       <r>   11.4597    0.0000 </r>
       <r>   11.5958    0.0000 </r>
       <r>   11.7969    0.0000 </r>
       <r>   12.0826    0.0000 </r>
       <r>   12.4790    0.0000 </r>
       <r>   12.9193    0.0000 </r>
       <r>   13.0362    0.0000 </r>
       <r>   13.8213    0.0000 </r>
       <r>   14.1923    0.0000 </r>
       <r>   14.6558    0.0000 </r>
       <r>   15.4264    0.0000 </r>
       <r>   15.6388    0.0000 </r>
      </set>
      <set comment="kpoint 7">
       <r>  -68.6462    1.0000 </r>
       <r>  -68.6429    1.0000 </r>
       <r>  -68.6339    1.0000 </r>
       <r>  -68.6326    1.0000 </r>
       <r>  -68.6142    1.0000 </r>
       <r>  -68.6140    1.0000 </r>
       <r>  -68.5969    1.0000 </r>
       <r>  -68.5938    1.0000 </r>
       <r>  -68.5780    1.0000 </r>
       <r>  -68.5768    1.0000 </r>
       <r>  -68.5614    1.0000 </r>
       <r>  -68.5600    1.0000 </r>
       <r>  -12.5982    1.0000 </r>
       <r>  -11.2532    1.0000 </r>
       <r>  -10.9893    1.0000 </r>
       <r>  -10.5677    1.0000 </r>
       <r>  -10.3711    1.0000 </r>
       <r>  -10.1806    1.0000 </r>
       <r>   -6.0101    1.0000 </r>
       <r>   -4.8941    1.0000 </r>
       <r>   -2.6480    1.0000 </r>
       <r>   -2.3129    1.0000 </r>
       <r>   -1.9724    1.0000 </r>
       <r>   -1.6471    1.0000 </r>
       <r>   -1.4932    1.0000 </r>
       <r>   -1.1865    1.0000 </r>
       <r>   -0.7887    1.0000 </r>
       <r>   -0.5817    1.0000 </r>
       <r>   -0.4420    1.0000 </r>
       <r>   -0.3340    1.0000 </r>
       <r>   -0.2948    1.0000 </r>
       <r>   -0.2352    1.0000 </r>
       <r>   -0.1728    1.0000 </r>
       <r>   -0.1330    1.0000 </r>
       <r>   -0.0121    1.0000 </r>
       <r>    0.0704    1.0000 </r>
       <r>    1.2593    1.0000 </r>
       <r>    1.3210    1.0000 </r>
       <r>    1.3640    1.0000 </r>
       <r>    1.4237    1.0000 </r>
       <r>    1.4309    1.0000 </r>
       <r>    1.4758    1.0000 </r>
       <r>    1.5036    1.0000 </r>
       <r>    1.5428    1.0000 </r>
       <r>    1.7243    1.0000 </r>
       <r>    1.8124    1.0000 </r>
       <r>    1.9967    1.0000 </r>
       <r>    2.0727    1.0000 </r>
       <r>    2.4170    1.0000 </r>
       <r>    2.4634    1.0000 </r>
       <r>    2.5293    1.0000 </r>
       <r>    2.8699    1.0000 </r>
       <r>    3.1418    1.0000 </r>
       <r>    3.2285    1.0000 </r>
       <r>    3.7848    1.0000 </r>
       <r>    4.0711    1.0271 </r>
       <r>    5.9797   -0.0000 </r>
       <r>    6.6902   -0.0000 </r>
       <r>    7.5340    0.0000 </r>
       <r>    8.2229    0.0000 </r>
       <r>    8.6167    0.0000 </r>
       <r>    8.9137    0.0000 </r>
       <r>    9.3078    0.0000 </r>
       <r>    9.4326    0.0000 </r>
       <r>    9.8043    0.0000 </r>
       <r>   10.2705    0.0000 </r>
       <r>   10.5433    0.0000 </r>
       <r>   10.8278    0.0000 </r>
       <r>   10.9715    0.0000 </r>
       <r>   11.3803    0.0000 </r>
       <r>   11.4700    0.0000 </r>
       <r>   11.7332    0.0000 </r>
       <r>   12.1001    0.0000 </r>
       <r>   12.6645    0.0000 </r>
       <r>   12.9410    0.0000 </r>
       <r>   13.1078    0.0000 </r>
       <r>   13.3507    0.0000 </r>
       <r>   13.5211    0.0000 </r>
       <r>   14.4781    0.0000 </r>
       <r>   14.7556    0.0000 </r>
      </set>
      <set comment="kpoint 8">
       <r>  -68.6460    1.0000 </r>
       <r>  -68.6428    1.0000 </r>
       <r>  -68.6339    1.0000 </r>
       <r>  -68.6325    1.0000 </r>
       <r>  -68.6142    1.0000 </r>
       <r>  -68.6140    1.0000 </r>
       <r>  -68.5968    1.0000 </r>
       <r>  -68.5937    1.0000 </r>
       <r>  -68.5780    1.0000 </r>
       <r>  -68.5768    1.0000 </r>
       <r>  -68.5613    1.0000 </r>
       <r>  -68.5599    1.0000 </r>
       <r>  -12.4358    1.0000 </r>
       <r>  -11.2516    1.0000 </r>
       <r>  -10.9549    1.0000 </r>
       <r>  -10.7601    1.0000 </r>
       <r>  -10.4334    1.0000 </r>
       <r>  -10.3580    1.0000 </r>
       <r>   -5.8713    1.0000 </r>
       <r>   -4.5474    1.0000 </r>
       <r>   -2.4944    1.0000 </r>
       <r>   -2.2420    1.0000 </r>
       <r>   -1.9458    1.0000 </r>
       <r>   -1.4624    1.0000 </r>
       <r>   -1.2267    1.0000 </r>
       <r>   -1.0981    1.0000 </r>
       <r>   -0.9030    1.0000 </r>
       <r>   -0.8631    1.0000 </r>
       <r>   -0.6027    1.0000 </r>
       <r>   -0.5419    1.0000 </r>
       <r>   -0.2740    1.0000 </r>
       <r>   -0.2048    1.0000 </r>
       <r>   -0.1981    1.0000 </r>
       <r>   -0.1489    1.0000 </r>
       <r>   -0.0281    1.0000 </r>
       <r>    0.0814    1.0000 </r>
       <r>    1.2547    1.0000 </r>
       <r>    1.3290    1.0000 </r>
       <r>    1.3453    1.0000 </r>
       <r>    1.3954    1.0000 </r>
       <r>    1.4709    1.0000 </r>
       <r>    1.4801    1.0000 </r>
       <r>    1.4996    1.0000 </r>
       <r>    1.5528    1.0000 </r>
       <r>    1.7517    1.0000 </r>
       <r>    1.7915    1.0000 </r>
       <r>    1.9694    1.0000 </r>
       <r>    2.1467    1.0000 </r>
       <r>    2.3207    1.0000 </r>
       <r>    2.3646    1.0000 </r>
       <r>    2.5549    1.0000 </r>
       <r>    2.6704    1.0000 </r>
       <r>    2.9370    1.0000 </r>
       <r>    3.0769    1.0000 </r>
       <r>    3.2506    1.0000 </r>
       <r>    3.8632    1.0000 </r>
       <r>    6.3844   -0.0000 </r>
       <r>    7.0980    0.0000 </r>
       <r>    7.9808    0.0000 </r>
       <r>    8.2067    0.0000 </r>
       <r>    8.5166    0.0000 </r>
       <r>    8.8204    0.0000 </r>
       <r>    9.3282    0.0000 </r>
       <r>    9.8884    0.0000 </r>
       <r>   10.0117    0.0000 </r>
       <r>   10.5182    0.0000 </r>
       <r>   10.6915    0.0000 </r>
       <r>   10.7931    0.0000 </r>
       <r>   11.1416    0.0000 </r>
       <r>   11.4110    0.0000 </r>
       <r>   11.6086    0.0000 </r>
       <r>   11.7738    0.0000 </r>
       <r>   11.9446    0.0000 </r>
       <r>   12.5068    0.0000 </r>
       <r>   12.8201    0.0000 </r>
       <r>   13.0284    0.0000 </r>
       <r>   13.5234    0.0000 </r>
       <r>   13.6631    0.0000 </r>
       <r>   14.5525    0.0000 </r>
       <r>   15.2542    0.0000 </r>
      </set>
      <set comment="kpoint 9">
       <r>  -68.6460    1.0000 </r>
       <r>  -68.6427    1.0000 </r>
       <r>  -68.6339    1.0000 </r>
       <r>  -68.6326    1.0000 </r>
       <r>  -68.6141    1.0000 </r>
       <r>  -68.6140    1.0000 </r>
       <r>  -68.5968    1.0000 </r>
       <r>  -68.5938    1.0000 </r>
       <r>  -68.5780    1.0000 </r>
       <r>  -68.5768    1.0000 </r>
       <r>  -68.5613    1.0000 </r>
       <r>  -68.5599    1.0000 </r>
       <r>  -12.4399    1.0000 </r>
       <r>  -11.3562    1.0000 </r>
       <r>  -10.9360    1.0000 </r>
       <r>  -10.7356    1.0000 </r>
       <r>  -10.3925    1.0000 </r>
       <r>  -10.2725    1.0000 </r>
       <r>   -5.9479    1.0000 </r>
       <r>   -4.6418    1.0000 </r>
       <r>   -2.3926    1.0000 </r>
       <r>   -2.2241    1.0000 </r>
       <r>   -2.0577    1.0000 </r>
       <r>   -1.6401    1.0000 </r>
       <r>   -1.3590    1.0000 </r>
       <r>   -1.2838    1.0000 </r>
       <r>   -1.0224    1.0000 </r>
       <r>   -0.5144    1.0000 </r>
       <r>   -0.4808    1.0000 </r>
       <r>   -0.3276    1.0000 </r>
       <r>   -0.2841    1.0000 </r>
       <r>   -0.2141    1.0000 </r>
       <r>   -0.1529    1.0000 </r>
       <r>   -0.1390    1.0000 </r>
       <r>   -0.0105    1.0000 </r>
       <r>    0.1132    1.0000 </r>
       <r>    1.2463    1.0000 </r>
       <r>    1.3143    1.0000 </r>
       <r>    1.3836    1.0000 </r>
       <r>    1.4365    1.0000 </r>
       <r>    1.4618    1.0000 </r>
       <r>    1.4921    1.0000 </r>
       <r>    1.4969    1.0000 </r>
       <r>    1.5494    1.0000 </r>
       <r>    1.7492    1.0000 </r>
       <r>    1.8283    1.0000 </r>
       <r>    1.9222    1.0000 </r>
       <r>    2.1328    1.0000 </r>
       <r>    2.2208    1.0000 </r>
       <r>    2.3862    1.0000 </r>
       <r>    2.5627    1.0000 </r>
       <r>    2.7895    1.0000 </r>
       <r>    2.9785    1.0000 </r>
       <r>    3.3123    1.0000 </r>
       <r>    3.6044    1.0000 </r>
       <r>    3.7497    1.0000 </r>
       <r>    6.0875   -0.0000 </r>
       <r>    6.9400   -0.0000 </r>
       <r>    7.6118    0.0000 </r>
       <r>    8.0684    0.0000 </r>
       <r>    8.4114    0.0000 </r>
       <r>    8.6153    0.0000 </r>
       <r>    8.9835    0.0000 </r>
       <r>    9.1529    0.0000 </r>
       <r>   10.0889    0.0000 </r>
       <r>   10.3343    0.0000 </r>
       <r>   10.7340    0.0000 </r>
       <r>   11.1075    0.0000 </r>
       <r>   11.4561    0.0000 </r>
       <r>   11.5764    0.0000 </r>
       <r>   11.7849    0.0000 </r>
       <r>   12.0325    0.0000 </r>
       <r>   12.5218    0.0000 </r>
       <r>   12.6834    0.0000 </r>
       <r>   12.9128    0.0000 </r>
       <r>   13.2108    0.0000 </r>
       <r>   14.2331    0.0000 </r>
       <r>   14.7742    0.0000 </r>
       <r>   15.2493    0.0000 </r>
       <r>   15.9024    0.0000 </r>
      </set>
      <set comment="kpoint 10">
       <r>  -68.6458    1.0000 </r>
       <r>  -68.6425    1.0000 </r>
       <r>  -68.6337    1.0000 </r>
       <r>  -68.6324    1.0000 </r>
       <r>  -68.6140    1.0000 </r>
       <r>  -68.6139    1.0000 </r>
       <r>  -68.5966    1.0000 </r>
       <r>  -68.5936    1.0000 </r>
       <r>  -68.5779    1.0000 </r>
       <r>  -68.5767    1.0000 </r>
       <r>  -68.5610    1.0000 </r>
       <r>  -68.5597    1.0000 </r>
       <r>  -12.4316    1.0000 </r>
       <r>  -11.5034    1.0000 </r>
       <r>  -10.9112    1.0000 </r>
       <r>  -10.6153    1.0000 </r>
       <r>  -10.4022    1.0000 </r>
       <r>  -10.1997    1.0000 </r>
       <r>   -6.0263    1.0000 </r>
       <r>   -4.8100    1.0000 </r>
       <r>   -2.3116    1.0000 </r>
       <r>   -2.2634    1.0000 </r>
       <r>   -2.0964    1.0000 </r>
       <r>   -1.7007    1.0000 </r>
       <r>   -1.2473    1.0000 </r>
       <r>   -1.1093    1.0000 </r>
       <r>   -0.8401    1.0000 </r>
       <r>   -0.7821    1.0000 </r>
       <r>   -0.7227    1.0000 </r>
       <r>   -0.2440    1.0000 </r>
       <r>   -0.2016    1.0000 </r>
       <r>   -0.1849    1.0000 </r>
       <r>   -0.1493    1.0000 </r>
       <r>   -0.0403    1.0000 </r>
       <r>   -0.0054    1.0000 </r>
       <r>    0.1842    1.0000 </r>
       <r>    1.2667    1.0000 </r>
       <r>    1.3171    1.0000 </r>
       <r>    1.3750    1.0000 </r>
       <r>    1.4140    1.0000 </r>
       <r>    1.4335    1.0000 </r>
       <r>    1.4910    1.0000 </r>
       <r>    1.5092    1.0000 </r>
       <r>    1.5490    1.0000 </r>
       <r>    1.7870    1.0000 </r>
       <r>    1.8460    1.0000 </r>
       <r>    1.9970    1.0000 </r>
       <r>    2.1516    1.0000 </r>
       <r>    2.2541    1.0000 </r>
       <r>    2.3363    1.0000 </r>
       <r>    2.5578    1.0000 </r>
       <r>    2.7659    1.0000 </r>
       <r>    2.7738    1.0000 </r>
       <r>    3.3707    1.0000 </r>
       <r>    3.7634    1.0000 </r>
       <r>    4.0085    1.0050 </r>
       <r>    5.8551   -0.0000 </r>
       <r>    6.7661   -0.0000 </r>
       <r>    7.0843    0.0000 </r>
       <r>    8.4120    0.0000 </r>
       <r>    8.5610    0.0000 </r>
       <r>    8.7703    0.0000 </r>
       <r>    9.1418    0.0000 </r>
       <r>    9.2404    0.0000 </r>
       <r>    9.9593    0.0000 </r>
       <r>   10.2837    0.0000 </r>
       <r>   10.7245    0.0000 </r>
       <r>   10.8253    0.0000 </r>
       <r>   10.8779    0.0000 </r>
       <r>   11.2753    0.0000 </r>
       <r>   11.7561    0.0000 </r>
       <r>   11.9093    0.0000 </r>
       <r>   11.9753    0.0000 </r>
       <r>   12.3676    0.0000 </r>
       <r>   12.5385    0.0000 </r>
       <r>   13.4641    0.0000 </r>
       <r>   14.2787    0.0000 </r>
       <r>   14.6821    0.0000 </r>
       <r>   16.7481    0.0000 </r>
       <r>   16.7518    0.0000 </r>
      </set>
      <set comment="kpoint 11">
       <r>  -68.6462    1.0000 </r>
       <r>  -68.6430    1.0000 </r>
       <r>  -68.6340    1.0000 </r>
       <r>  -68.6326    1.0000 </r>
       <r>  -68.6143    1.0000 </r>
       <r>  -68.6140    1.0000 </r>
       <r>  -68.5969    1.0000 </r>
       <r>  -68.5938    1.0000 </r>
       <r>  -68.5781    1.0000 </r>
       <r>  -68.5769    1.0000 </r>
       <r>  -68.5614    1.0000 </r>
       <r>  -68.5601    1.0000 </r>
       <r>  -12.6172    1.0000 </r>
       <r>  -11.4250    1.0000 </r>
       <r>  -10.7778    1.0000 </r>
       <r>  -10.6080    1.0000 </r>
       <r>  -10.2530    1.0000 </r>
       <r>  -10.2373    1.0000 </r>
       <r>   -5.8312    1.0000 </r>
       <r>   -5.0464    1.0000 </r>
       <r>   -2.6012    1.0000 </r>
       <r>   -2.3711    1.0000 </r>
       <r>   -1.9619    1.0000 </r>
       <r>   -1.7758    1.0000 </r>
       <r>   -1.4448    1.0000 </r>
       <r>   -1.1246    1.0000 </r>
       <r>   -1.0626    1.0000 </r>
       <r>   -0.7737    1.0000 </r>
       <r>   -0.4710    1.0000 </r>
       <r>   -0.2940    1.0000 </r>
       <r>   -0.2389    1.0000 </r>
       <r>   -0.2310    1.0000 </r>
       <r>   -0.1910    1.0000 </r>
       <r>   -0.1467    1.0000 </r>
       <r>   -0.0179    1.0000 </r>
       <r>    0.0232    1.0000 </r>
       <r>    1.3327    1.0000 </r>
       <r>    1.3824    1.0000 </r>
       <r>    1.4157    1.0000 </r>
       <r>    1.4395    1.0000 </r>
       <r>    1.4652    1.0000 </r>
       <r>    1.4667    1.0000 </r>
       <r>    1.5149    1.0000 </r>
       <r>    1.5463    1.0000 </r>
       <r>    1.6321    1.0000 </r>
       <r>    1.7588    1.0000 </r>
       <r>    1.7882    1.0000 </r>
       <r>    1.9536    1.0000 </r>
       <r>    2.0878    1.0000 </r>
       <r>    2.6605    1.0000 </r>
       <r>    2.7185    1.0000 </r>
       <r>    3.1929    1.0000 </r>
       <r>    3.2495    1.0000 </r>
       <r>    3.5211    1.0000 </r>
       <r>    3.8931    1.0000 </r>
       <r>    3.9764    1.0014 </r>
       <r>    6.0462   -0.0000 </r>
       <r>    6.4191   -0.0000 </r>
       <r>    7.8240    0.0000 </r>
       <r>    7.9084    0.0000 </r>
       <r>    8.3656    0.0000 </r>
       <r>    8.8194    0.0000 </r>
       <r>    9.7770    0.0000 </r>
       <r>    9.7939    0.0000 </r>
       <r>   10.0625    0.0000 </r>
       <r>   10.5867    0.0000 </r>
       <r>   10.6423    0.0000 </r>
       <r>   10.8148    0.0000 </r>
       <r>   10.8538    0.0000 </r>
       <r>   11.4945    0.0000 </r>
       <r>   11.5579    0.0000 </r>
       <r>   12.0266    0.0000 </r>
       <r>   12.5790    0.0000 </r>
       <r>   12.7746    0.0000 </r>
       <r>   12.9114    0.0000 </r>
       <r>   13.2052    0.0000 </r>
       <r>   13.5349    0.0000 </r>
       <r>   13.8240    0.0000 </r>
       <r>   14.1976    0.0000 </r>
       <r>   14.7079    0.0000 </r>
      </set>
      <set comment="kpoint 12">
       <r>  -68.6462    1.0000 </r>
       <r>  -68.6429    1.0000 </r>
       <r>  -68.6340    1.0000 </r>
       <r>  -68.6326    1.0000 </r>
       <r>  -68.6143    1.0000 </r>
       <r>  -68.6141    1.0000 </r>
       <r>  -68.5968    1.0000 </r>
       <r>  -68.5938    1.0000 </r>
       <r>  -68.5781    1.0000 </r>
       <r>  -68.5769    1.0000 </r>
       <r>  -68.5614    1.0000 </r>
       <r>  -68.5600    1.0000 </r>
       <r>  -12.4581    1.0000 </r>
       <r>  -11.4661    1.0000 </r>
       <r>  -10.8635    1.0000 </r>
       <r>  -10.6898    1.0000 </r>
       <r>  -10.3746    1.0000 </r>
       <r>  -10.2469    1.0000 </r>
       <r>   -5.7666    1.0000 </r>
       <r>   -4.8038    1.0000 </r>
       <r>   -2.4450    1.0000 </r>
       <r>   -2.2329    1.0000 </r>
       <r>   -1.8481    1.0000 </r>
       <r>   -1.7121    1.0000 </r>
       <r>   -1.4369    1.0000 </r>
       <r>   -1.1884    1.0000 </r>
       <r>   -0.8884    1.0000 </r>
       <r>   -0.7455    1.0000 </r>
       <r>   -0.6085    1.0000 </r>
       <r>   -0.5223    1.0000 </r>
       <r>   -0.3097    1.0000 </r>
       <r>   -0.2422    1.0000 </r>
       <r>   -0.1721    1.0000 </r>
       <r>   -0.1230    1.0000 </r>
       <r>   -0.0560    1.0000 </r>
       <r>    0.0599    1.0000 </r>
       <r>    1.3024    1.0000 </r>
       <r>    1.3368    1.0000 </r>
       <r>    1.3691    1.0000 </r>
       <r>    1.4309    1.0000 </r>
       <r>    1.4464    1.0000 </r>
       <r>    1.4788    1.0000 </r>
       <r>    1.5215    1.0000 </r>
       <r>    1.5470    1.0000 </r>
       <r>    1.6432    1.0000 </r>
       <r>    1.8723    1.0000 </r>
       <r>    1.9780    1.0000 </r>
       <r>    2.0489    1.0000 </r>
       <r>    2.1962    1.0000 </r>
       <r>    2.4758    1.0000 </r>
       <r>    2.5941    1.0000 </r>
       <r>    2.8398    1.0000 </r>
       <r>    2.9636    1.0000 </r>
       <r>    3.1315    1.0000 </r>
       <r>    3.5663    1.0000 </r>
       <r>    3.7237    1.0000 </r>
       <r>    6.4420   -0.0000 </r>
       <r>    6.9580    0.0000 </r>
       <r>    8.1717    0.0000 </r>
       <r>    8.2461    0.0000 </r>
       <r>    8.8348    0.0000 </r>
       <r>    9.1287    0.0000 </r>
       <r>    9.4656    0.0000 </r>
       <r>    9.7964    0.0000 </r>
       <r>   10.0847    0.0000 </r>
       <r>   10.2975    0.0000 </r>
       <r>   10.7409    0.0000 </r>
       <r>   11.0776    0.0000 </r>
       <r>   11.2907    0.0000 </r>
       <r>   11.4251    0.0000 </r>
       <r>   11.6329    0.0000 </r>
       <r>   11.7229    0.0000 </r>
       <r>   12.0863    0.0000 </r>
       <r>   12.2662    0.0000 </r>
       <r>   12.5438    0.0000 </r>
       <r>   12.6580    0.0000 </r>
       <r>   12.9531    0.0000 </r>
       <r>   13.0603    0.0000 </r>
       <r>   13.6389    0.0000 </r>
       <r>   14.6905    0.0000 </r>
      </set>
      <set comment="kpoint 13">
       <r>  -68.6460    1.0000 </r>
       <r>  -68.6427    1.0000 </r>
       <r>  -68.6339    1.0000 </r>
       <r>  -68.6326    1.0000 </r>
       <r>  -68.6141    1.0000 </r>
       <r>  -68.6140    1.0000 </r>
       <r>  -68.5967    1.0000 </r>
       <r>  -68.5937    1.0000 </r>
       <r>  -68.5780    1.0000 </r>
       <r>  -68.5768    1.0000 </r>
       <r>  -68.5613    1.0000 </r>
       <r>  -68.5599    1.0000 </r>
       <r>  -12.3557    1.0000 </r>
       <r>  -11.4128    1.0000 </r>
       <r>  -10.9526    1.0000 </r>
       <r>  -10.6851    1.0000 </r>
       <r>  -10.4802    1.0000 </r>
       <r>  -10.3349    1.0000 </r>
       <r>   -5.7520    1.0000 </r>
       <r>   -4.7217    1.0000 </r>
       <r>   -2.5217    1.0000 </r>
       <r>   -2.1855    1.0000 </r>
       <r>   -1.9509    1.0000 </r>
       <r>   -1.5356    1.0000 </r>
       <r>   -1.3000    1.0000 </r>
       <r>   -1.1009    1.0000 </r>
       <r>   -0.8714    1.0000 </r>
       <r>   -0.7512    1.0000 </r>
       <r>   -0.5477    1.0000 </r>
       <r>   -0.4437    1.0000 </r>
       <r>   -0.2930    1.0000 </r>
       <r>   -0.1793    1.0000 </r>
       <r>   -0.1451    1.0000 </r>
       <r>   -0.1052    1.0000 </r>
       <r>   -0.0486    1.0000 </r>
       <r>    0.0203    1.0000 </r>
       <r>    1.2713    1.0000 </r>
       <r>    1.2986    1.0000 </r>
       <r>    1.3518    1.0000 </r>
       <r>    1.4292    1.0000 </r>
       <r>    1.4530    1.0000 </r>
       <r>    1.4797    1.0000 </r>
       <r>    1.5013    1.0000 </r>
       <r>    1.5890    1.0000 </r>
       <r>    1.7188    1.0000 </r>
       <r>    1.9304    1.0000 </r>
       <r>    2.0767    1.0000 </r>
       <r>    2.1453    1.0000 </r>
       <r>    2.2668    1.0000 </r>
       <r>    2.4029    1.0000 </r>
       <r>    2.5683    1.0000 </r>
       <r>    2.5970    1.0000 </r>
       <r>    2.9013    1.0000 </r>
       <r>    3.0120    1.0000 </r>
       <r>    3.3597    1.0000 </r>
       <r>    3.8988    1.0000 </r>
       <r>    6.3658   -0.0000 </r>
       <r>    6.8966   -0.0000 </r>
       <r>    7.5751    0.0000 </r>
       <r>    8.0837    0.0000 </r>
       <r>    8.5495    0.0000 </r>
       <r>    8.7983    0.0000 </r>
       <r>    9.2787    0.0000 </r>
       <r>    9.6289    0.0000 </r>
       <r>    9.9305    0.0000 </r>
       <r>   10.2747    0.0000 </r>
       <r>   10.6598    0.0000 </r>
       <r>   10.9286    0.0000 </r>
       <r>   10.9734    0.0000 </r>
       <r>   11.2797    0.0000 </r>
       <r>   11.5210    0.0000 </r>
       <r>   11.7863    0.0000 </r>
       <r>   12.2469    0.0000 </r>
       <r>   12.5443    0.0000 </r>
       <r>   13.0944    0.0000 </r>
       <r>   13.5148    0.0000 </r>
       <r>   14.2931    0.0000 </r>
       <r>   14.5492    0.0000 </r>
       <r>   15.1300    0.0000 </r>
       <r>   16.2644    0.0000 </r>
      </set>
      <set comment="kpoint 14">
       <r>  -68.6462    1.0000 </r>
       <r>  -68.6429    1.0000 </r>
       <r>  -68.6339    1.0000 </r>
       <r>  -68.6326    1.0000 </r>
       <r>  -68.6143    1.0000 </r>
       <r>  -68.6141    1.0000 </r>
       <r>  -68.5969    1.0000 </r>
       <r>  -68.5938    1.0000 </r>
       <r>  -68.5781    1.0000 </r>
       <r>  -68.5769    1.0000 </r>
       <r>  -68.5614    1.0000 </r>
       <r>  -68.5601    1.0000 </r>
       <r>  -12.5408    1.0000 </r>
       <r>  -11.3370    1.0000 </r>
       <r>  -10.8725    1.0000 </r>
       <r>  -10.6062    1.0000 </r>
       <r>  -10.4019    1.0000 </r>
       <r>  -10.2828    1.0000 </r>
       <r>   -5.8249    1.0000 </r>
       <r>   -4.9741    1.0000 </r>
       <r>   -2.6656    1.0000 </r>
       <r>   -2.4525    1.0000 </r>
       <r>   -2.0391    1.0000 </r>
       <r>   -1.5755    1.0000 </r>
       <r>   -1.1723    1.0000 </r>
       <r>   -0.9828    1.0000 </r>
       <r>   -0.7921    1.0000 </r>
       <r>   -0.6596    1.0000 </r>
       <r>   -0.5130    1.0000 </r>
       <r>   -0.3891    1.0000 </r>
       <r>   -0.2660    1.0000 </r>
       <r>   -0.2529    1.0000 </r>
       <r>   -0.1929    1.0000 </r>
       <r>   -0.1432    1.0000 </r>
       <r>   -0.0485    1.0000 </r>
       <r>    0.0104    1.0000 </r>
       <r>    1.2902    1.0000 </r>
       <r>    1.3124    1.0000 </r>
       <r>    1.3886    1.0000 </r>
       <r>    1.4089    1.0000 </r>
       <r>    1.4339    1.0000 </r>
       <r>    1.4556    1.0000 </r>
       <r>    1.4919    1.0000 </r>
       <r>    1.5642    1.0000 </r>
       <r>    1.6865    1.0000 </r>
       <r>    1.9163    1.0000 </r>
       <r>    1.9862    1.0000 </r>
       <r>    2.1449    1.0000 </r>
       <r>    2.3360    1.0000 </r>
       <r>    2.5654    1.0000 </r>
       <r>    2.6172    1.0000 </r>
       <r>    2.8289    1.0000 </r>
       <r>    2.9703    1.0000 </r>
       <r>    3.2486    1.0000 </r>
       <r>    3.6848    1.0000 </r>
       <r>    3.9445    1.0003 </r>
       <r>    6.1790   -0.0000 </r>
       <r>    6.6394   -0.0000 </r>
       <r>    7.7664    0.0000 </r>
       <r>    7.9730    0.0000 </r>
       <r>    8.2164    0.0000 </r>
       <r>    8.5631    0.0000 </r>
       <r>    9.3794    0.0000 </r>
       <r>    9.5773    0.0000 </r>
       <r>    9.9066    0.0000 </r>
       <r>   10.2500    0.0000 </r>
       <r>   10.5429    0.0000 </r>
       <r>   10.7876    0.0000 </r>
       <r>   10.8399    0.0000 </r>
       <r>   11.0672    0.0000 </r>
       <r>   11.5661    0.0000 </r>
       <r>   12.0211    0.0000 </r>
       <r>   12.5305    0.0000 </r>
       <r>   12.7503    0.0000 </r>
       <r>   12.9538    0.0000 </r>
       <r>   13.3098    0.0000 </r>
       <r>   13.4138    0.0000 </r>
       <r>   13.7426    0.0000 </r>
       <r>   13.8498    0.0000 </r>
       <r>   14.7257    0.0000 </r>
      </set>
      <set comment="kpoint 15">
       <r>  -68.6462    1.0000 </r>
       <r>  -68.6429    1.0000 </r>
       <r>  -68.6340    1.0000 </r>
       <r>  -68.6326    1.0000 </r>
       <r>  -68.6143    1.0000 </r>
       <r>  -68.6141    1.0000 </r>
       <r>  -68.5969    1.0000 </r>
       <r>  -68.5938    1.0000 </r>
       <r>  -68.5781    1.0000 </r>
       <r>  -68.5769    1.0000 </r>
       <r>  -68.5613    1.0000 </r>
       <r>  -68.5600    1.0000 </r>
       <r>  -12.4580    1.0000 </r>
       <r>  -11.4667    1.0000 </r>
       <r>  -10.8647    1.0000 </r>
       <r>  -10.6868    1.0000 </r>
       <r>  -10.3755    1.0000 </r>
       <r>  -10.2474    1.0000 </r>
       <r>   -5.7670    1.0000 </r>
       <r>   -4.8035    1.0000 </r>
       <r>   -2.4451    1.0000 </r>
       <r>   -2.2319    1.0000 </r>
       <r>   -1.8504    1.0000 </r>
       <r>   -1.7126    1.0000 </r>
       <r>   -1.4315    1.0000 </r>
       <r>   -1.1871    1.0000 </r>
       <r>   -0.8902    1.0000 </r>
       <r>   -0.7520    1.0000 </r>
       <r>   -0.6071    1.0000 </r>
       <r>   -0.5193    1.0000 </r>
       <r>   -0.3123    1.0000 </r>
       <r>   -0.2463    1.0000 </r>
       <r>   -0.1723    1.0000 </r>
       <r>   -0.1208    1.0000 </r>
       <r>   -0.0546    1.0000 </r>
       <r>    0.0629    1.0000 </r>
       <r>    1.3023    1.0000 </r>
       <r>    1.3355    1.0000 </r>
       <r>    1.3705    1.0000 </r>
       <r>    1.4325    1.0000 </r>
       <r>    1.4457    1.0000 </r>
       <r>    1.4793    1.0000 </r>
       <r>    1.5206    1.0000 </r>
       <r>    1.5465    1.0000 </r>
       <r>    1.6422    1.0000 </r>
       <r>    1.8727    1.0000 </r>
       <r>    1.9802    1.0000 </r>
       <r>    2.0484    1.0000 </r>
       <r>    2.1954    1.0000 </r>
       <r>    2.4764    1.0000 </r>
       <r>    2.5932    1.0000 </r>
       <r>    2.8381    1.0000 </r>
       <r>    2.9640    1.0000 </r>
       <r>    3.1304    1.0000 </r>
       <r>    3.5686    1.0000 </r>
       <r>    3.7242    1.0000 </r>
       <r>    6.4409   -0.0000 </r>
       <r>    6.9589    0.0000 </r>
       <r>    8.1713    0.0000 </r>
       <r>    8.2460    0.0000 </r>
       <r>    8.8337    0.0000 </r>
       <r>    9.1291    0.0000 </r>
       <r>    9.4660    0.0000 </r>
       <r>    9.7956    0.0000 </r>
       <r>   10.0831    0.0000 </r>
       <r>   10.2996    0.0000 </r>
       <r>   10.7429    0.0000 </r>
       <r>   11.0773    0.0000 </r>
       <r>   11.2894    0.0000 </r>
       <r>   11.4239    0.0000 </r>
       <r>   11.6338    0.0000 </r>
       <r>   11.7238    0.0000 </r>
       <r>   12.0857    0.0000 </r>
       <r>   12.2665    0.0000 </r>
       <r>   12.5416    0.0000 </r>
       <r>   12.6572    0.0000 </r>
       <r>   12.9563    0.0000 </r>
       <r>   13.0603    0.0000 </r>
       <r>   13.6554    0.0000 </r>
       <r>   14.6949    0.0000 </r>
      </set>
      <set comment="kpoint 16">
       <r>  -68.6461    1.0000 </r>
       <r>  -68.6428    1.0000 </r>
       <r>  -68.6338    1.0000 </r>
       <r>  -68.6325    1.0000 </r>
       <r>  -68.6141    1.0000 </r>
       <r>  -68.6139    1.0000 </r>
       <r>  -68.5967    1.0000 </r>
       <r>  -68.5937    1.0000 </r>
       <r>  -68.5780    1.0000 </r>
       <r>  -68.5767    1.0000 </r>
       <r>  -68.5613    1.0000 </r>
       <r>  -68.5599    1.0000 </r>
       <r>  -12.3261    1.0000 </r>
       <r>  -11.4751    1.0000 </r>
       <r>  -10.8619    1.0000 </r>
       <r>  -10.8583    1.0000 </r>
       <r>  -10.4060    1.0000 </r>
       <r>  -10.2900    1.0000 </r>
       <r>   -5.7481    1.0000 </r>
       <r>   -4.6911    1.0000 </r>
       <r>   -2.2413    1.0000 </r>
       <r>   -2.1375    1.0000 </r>
       <r>   -1.9271    1.0000 </r>
       <r>   -1.8496    1.0000 </r>
       <r>   -1.4556    1.0000 </r>
       <r>   -1.3961    1.0000 </r>
       <r>   -1.0382    1.0000 </r>
       <r>   -0.5207    1.0000 </r>
       <r>   -0.4592    1.0000 </r>
       <r>   -0.3473    1.0000 </r>
       <r>   -0.2541    1.0000 </r>
       <r>   -0.2179    1.0000 </r>
       <r>   -0.1628    1.0000 </r>
       <r>   -0.1131    1.0000 </r>
       <r>   -0.0876    1.0000 </r>
       <r>    0.0798    1.0000 </r>
       <r>    1.2617    1.0000 </r>
       <r>    1.3472    1.0000 </r>
       <r>    1.3981    1.0000 </r>
       <r>    1.4355    1.0000 </r>
       <r>    1.4529    1.0000 </r>
       <r>    1.5098    1.0000 </r>
       <r>    1.5349    1.0000 </r>
       <r>    1.5438    1.0000 </r>
       <r>    1.7528    1.0000 </r>
       <r>    1.8197    1.0000 </r>
       <r>    2.0411    1.0000 </r>
       <r>    2.1329    1.0000 </r>
       <r>    2.2838    1.0000 </r>
       <r>    2.3105    1.0000 </r>
       <r>    2.5207    1.0000 </r>
       <r>    2.7678    1.0000 </r>
       <r>    2.9020    1.0000 </r>
       <r>    3.2634    1.0000 </r>
       <r>    3.4961    1.0000 </r>
       <r>    3.8011    1.0000 </r>
       <r>    6.1830   -0.0000 </r>
       <r>    6.8417   -0.0000 </r>
       <r>    7.8267    0.0000 </r>
       <r>    8.0468    0.0000 </r>
       <r>    8.1896    0.0000 </r>
       <r>    8.7281    0.0000 </r>
       <r>    9.1539    0.0000 </r>
       <r>    9.3053    0.0000 </r>
       <r>   10.2213    0.0000 </r>
       <r>   10.4416    0.0000 </r>
       <r>   10.5908    0.0000 </r>
       <r>   11.0052    0.0000 </r>
       <r>   11.2401    0.0000 </r>
       <r>   11.4881    0.0000 </r>
       <r>   11.8143    0.0000 </r>
       <r>   12.1711    0.0000 </r>
       <r>   12.2059    0.0000 </r>
       <r>   12.5749    0.0000 </r>
       <r>   12.6904    0.0000 </r>
       <r>   13.1130    0.0000 </r>
       <r>   13.4158    0.0000 </r>
       <r>   13.8794    0.0000 </r>
       <r>   14.0060    0.0000 </r>
       <r>   14.5261    0.0000 </r>
      </set>
      <set comment="kpoint 17">
       <r>  -68.6459    1.0000 </r>
       <r>  -68.6427    1.0000 </r>
       <r>  -68.6339    1.0000 </r>
       <r>  -68.6326    1.0000 </r>
       <r>  -68.6141    1.0000 </r>
       <r>  -68.6140    1.0000 </r>
       <r>  -68.5968    1.0000 </r>
       <r>  -68.5937    1.0000 </r>
       <r>  -68.5780    1.0000 </r>
       <r>  -68.5768    1.0000 </r>
       <r>  -68.5612    1.0000 </r>
       <r>  -68.5599    1.0000 </r>
       <r>  -12.3727    1.0000 </r>
       <r>  -11.4741    1.0000 </r>
       <r>  -10.9365    1.0000 </r>
       <r>  -10.6515    1.0000 </r>
       <r>  -10.4238    1.0000 </r>
       <r>  -10.3040    1.0000 </r>
       <r>   -5.8008    1.0000 </r>
       <r>   -4.8359    1.0000 </r>
       <r>   -2.5258    1.0000 </r>
       <r>   -2.2455    1.0000 </r>
       <r>   -1.8711    1.0000 </r>
       <r>   -1.6422    1.0000 </r>
       <r>   -1.5067    1.0000 </r>
       <r>   -1.3070    1.0000 </r>
       <r>   -0.8996    1.0000 </r>
       <r>   -0.5298    1.0000 </r>
       <r>   -0.3797    1.0000 </r>
       <r>   -0.3491    1.0000 </r>
       <r>   -0.2233    1.0000 </r>
       <r>   -0.1811    1.0000 </r>
       <r>   -0.1577    1.0000 </r>
       <r>   -0.0780    1.0000 </r>
       <r>   -0.0294    1.0000 </r>
       <r>    0.0790    1.0000 </r>
       <r>    1.1902    1.0000 </r>
       <r>    1.3636    1.0000 </r>
       <r>    1.3970    1.0000 </r>
       <r>    1.4432    1.0000 </r>
       <r>    1.4633    1.0000 </r>
       <r>    1.5067    1.0000 </r>
       <r>    1.5187    1.0000 </r>
       <r>    1.5847    1.0000 </r>
       <r>    1.7397    1.0000 </r>
       <r>    1.8171    1.0000 </r>
       <r>    2.0371    1.0000 </r>
       <r>    2.2348    1.0000 </r>
       <r>    2.2684    1.0000 </r>
       <r>    2.3638    1.0000 </r>
       <r>    2.4852    1.0000 </r>
       <r>    2.6735    1.0000 </r>
       <r>    3.0531    1.0000 </r>
       <r>    3.4118    1.0000 </r>
       <r>    3.7297    1.0000 </r>
       <r>    3.8654    1.0000 </r>
       <r>    5.9318   -0.0000 </r>
       <r>    6.6138   -0.0000 </r>
       <r>    7.3536    0.0000 </r>
       <r>    7.9439    0.0000 </r>
       <r>    8.0673    0.0000 </r>
       <r>    8.7240    0.0000 </r>
       <r>    8.9074    0.0000 </r>
       <r>    9.1377    0.0000 </r>
       <r>    9.8452    0.0000 </r>
       <r>   10.3269    0.0000 </r>
       <r>   10.5539    0.0000 </r>
       <r>   10.9258    0.0000 </r>
       <r>   11.2247    0.0000 </r>
       <r>   11.4140    0.0000 </r>
       <r>   11.7487    0.0000 </r>
       <r>   12.0009    0.0000 </r>
       <r>   12.4974    0.0000 </r>
       <r>   12.8307    0.0000 </r>
       <r>   13.2078    0.0000 </r>
       <r>   14.1810    0.0000 </r>
       <r>   14.7157    0.0000 </r>
       <r>   15.1456    0.0000 </r>
       <r>   15.9177    0.0000 </r>
       <r>   16.5659    0.0000 </r>
      </set>
      <set comment="kpoint 18">
       <r>  -68.6461    1.0000 </r>
       <r>  -68.6429    1.0000 </r>
       <r>  -68.6340    1.0000 </r>
       <r>  -68.6327    1.0000 </r>
       <r>  -68.6142    1.0000 </r>
       <r>  -68.6140    1.0000 </r>
       <r>  -68.5969    1.0000 </r>
       <r>  -68.5938    1.0000 </r>
       <r>  -68.5781    1.0000 </r>
       <r>  -68.5768    1.0000 </r>
       <r>  -68.5614    1.0000 </r>
       <r>  -68.5600    1.0000 </r>
       <r>  -12.4992    1.0000 </r>
       <r>  -11.4259    1.0000 </r>
       <r>  -10.9473    1.0000 </r>
       <r>  -10.5794    1.0000 </r>
       <r>  -10.3789    1.0000 </r>
       <r>  -10.2081    1.0000 </r>
       <r>   -5.8288    1.0000 </r>
       <r>   -4.9397    1.0000 </r>
       <r>   -2.5724    1.0000 </r>
       <r>   -2.3662    1.0000 </r>
       <r>   -1.9153    1.0000 </r>
       <r>   -1.5963    1.0000 </r>
       <r>   -1.4161    1.0000 </r>
       <r>   -1.1231    1.0000 </r>
       <r>   -0.8127    1.0000 </r>
       <r>   -0.6765    1.0000 </r>
       <r>   -0.5352    1.0000 </r>
       <r>   -0.4649    1.0000 </r>
       <r>   -0.2512    1.0000 </r>
       <r>   -0.1974    1.0000 </r>
       <r>   -0.1691    1.0000 </r>
       <r>   -0.1207    1.0000 </r>
       <r>   -0.0364    1.0000 </r>
       <r>    0.0591    1.0000 </r>
       <r>    1.2813    1.0000 </r>
       <r>    1.3242    1.0000 </r>
       <r>    1.3451    1.0000 </r>
       <r>    1.4344    1.0000 </r>
       <r>    1.4517    1.0000 </r>
       <r>    1.4683    1.0000 </r>
       <r>    1.4938    1.0000 </r>
       <r>    1.5559    1.0000 </r>
       <r>    1.7254    1.0000 </r>
       <r>    1.8416    1.0000 </r>
       <r>    1.9723    1.0000 </r>
       <r>    2.0984    1.0000 </r>
       <r>    2.3368    1.0000 </r>
       <r>    2.4510    1.0000 </r>
       <r>    2.5397    1.0000 </r>
       <r>    2.8506    1.0000 </r>
       <r>    3.0516    1.0000 </r>
       <r>    3.2631    1.0000 </r>
       <r>    3.6735    1.0000 </r>
       <r>    3.7832    1.0000 </r>
       <r>    6.2612   -0.0000 </r>
       <r>    6.8006   -0.0000 </r>
       <r>    7.8140    0.0000 </r>
       <r>    8.1368    0.0000 </r>
       <r>    8.3377    0.0000 </r>
       <r>    8.9312    0.0000 </r>
       <r>    9.3380    0.0000 </r>
[...]
       <r>   11.7050    0.0000 </r>
       <r>   11.8922    0.0000 </r>
       <r>   12.2991    0.0000 </r>
       <r>   12.6582    0.0000 </r>
       <r>   13.0128    0.0000 </r>
       <r>   13.2302    0.0000 </r>
       <r>   13.6683    0.0000 </r>
       <r>   14.0625    0.0000 </r>
       <r>   14.3903    0.0000 </r>
       <r>   16.5200    0.0000 </r>
      </set>
      <set comment="kpoint 42">
       <r>  -68.6461    1.0000 </r>
       <r>  -68.6428    1.0000 </r>
       <r>  -68.6337    1.0000 </r>
       <r>  -68.6324    1.0000 </r>
       <r>  -68.6141    1.0000 </r>
       <r>  -68.6140    1.0000 </r>
       <r>  -68.5966    1.0000 </r>
       <r>  -68.5936    1.0000 </r>
       <r>  -68.5780    1.0000 </r>
       <r>  -68.5768    1.0000 </r>
       <r>  -68.5613    1.0000 </r>
       <r>  -68.5600    1.0000 </r>
       <r>  -12.1782    1.0000 </r>
       <r>  -11.7051    1.0000 </r>
       <r>  -10.7169    1.0000 </r>
       <r>  -10.6945    1.0000 </r>
       <r>  -10.5866    1.0000 </r>
       <r>  -10.3934    1.0000 </r>
       <r>   -5.4456    1.0000 </r>
       <r>   -5.0715    1.0000 </r>
       <r>   -2.5071    1.0000 </r>
       <r>   -2.3798    1.0000 </r>
       <r>   -1.9649    1.0000 </r>
       <r>   -1.3653    1.0000 </r>
       <r>   -1.3305    1.0000 </r>
       <r>   -1.0538    1.0000 </r>
       <r>   -0.8328    1.0000 </r>
       <r>   -0.7681    1.0000 </r>
       <r>   -0.4224    1.0000 </r>
       <r>   -0.3394    1.0000 </r>
       <r>   -0.2701    1.0000 </r>
       <r>   -0.2081    1.0000 </r>
       <r>   -0.1434    1.0000 </r>
       <r>   -0.1383    1.0000 </r>
       <r>   -0.0153    1.0000 </r>
       <r>    0.0269    1.0000 </r>
       <r>    1.1736    1.0000 </r>
       <r>    1.3715    1.0000 </r>
       <r>    1.3973    1.0000 </r>
       <r>    1.4531    1.0000 </r>
       <r>    1.4541    1.0000 </r>
       <r>    1.4996    1.0000 </r>
       <r>    1.5172    1.0000 </r>
       <r>    1.5484    1.0000 </r>
       <r>    1.7440    1.0000 </r>
       <r>    1.8228    1.0000 </r>
       <r>    1.9713    1.0000 </r>
       <r>    2.2256    1.0000 </r>
       <r>    2.3962    1.0000 </r>
       <r>    2.6116    1.0000 </r>
       <r>    2.6574    1.0000 </r>
       <r>    2.9158    1.0000 </r>
       <r>    3.0697    1.0000 </r>
       <r>    3.1166    1.0000 </r>
       <r>    3.2873    1.0000 </r>
       <r>    3.5851    1.0000 </r>
       <r>    6.2911   -0.0000 </r>
       <r>    6.3795   -0.0000 </r>
       <r>    7.3561    0.0000 </r>
       <r>    7.5266    0.0000 </r>
       <r>    8.3093    0.0000 </r>
       <r>    8.3358    0.0000 </r>
       <r>    9.1043    0.0000 </r>
       <r>    9.3595    0.0000 </r>
       <r>    9.7174    0.0000 </r>
       <r>    9.9480    0.0000 </r>
       <r>   10.5231    0.0000 </r>
       <r>   10.9889    0.0000 </r>
       <r>   11.4251    0.0000 </r>
       <r>   11.5629    0.0000 </r>
       <r>   12.0182    0.0000 </r>
       <r>   12.2836    0.0000 </r>
       <r>   12.4313    0.0000 </r>
       <r>   12.4780    0.0000 </r>
       <r>   13.0336    0.0000 </r>
       <r>   13.1485    0.0000 </r>
       <r>   14.1406    0.0000 </r>
       <r>   14.4382    0.0000 </r>
       <r>   15.1646    0.0000 </r>
       <r>   15.8681    0.0000 </r>
      </set>
     </set>
    </set>
   </array>
  </eigenvalues>
  <separator name="orbital magnetization" >
   <v name="MAGDIPOLOUT">      0.00000000      0.00000000      0.00000000</v>
  </separator>
  <dos>
   <i name="efermi">      4.22225051 </i>
   <total>
    <array>
     <dimension dim="1">gridpoints</dimension>
     <dimension dim="2">spin</dimension>
     <field>energy</field>
     <field>total</field>
     <field>integrated</field>
     <set>
      <set comment="spin 1">
       <r>   -72.8301     0.0000     0.0000 </r>
       <r>   -72.5238     0.0000     0.0000 </r>
       <r>   -72.2174     0.0000     0.0000 </r>
       <r>   -71.9110     0.0000     0.0000 </r>
       <r>   -71.6046     0.0000     0.0000 </r>
       <r>   -71.2982     0.0000     0.0000 </r>
       <r>   -70.9918     0.0000     0.0000 </r>
       <r>   -70.6855     0.0000     0.0000 </r>
       <r>   -70.3791     0.0000     0.0000 </r>
       <r>   -70.0727     0.0000     0.0000 </r>
       <r>   -69.7663     0.0000     0.0000 </r>
       <r>   -69.4599    -0.0000    -0.0000 </r>
       <r>   -69.1536    -0.0000    -0.0000 </r>
       <r>   -68.8472    -0.2139    -0.0655 </r>
       <r>   -68.5408    70.1920    21.4400 </r>
       <r>   -68.2344     8.3561    24.0001 </r>
       <r>   -67.9280    -0.0004    24.0000 </r>
       <r>   -67.6217     0.0000    24.0000 </r>
       <r>   -67.3153     0.0000    24.0000 </r>
       <r>   -67.0089     0.0000    24.0000 </r>
       <r>   -66.7025     0.0000    24.0000 </r>
       <r>   -66.3961     0.0000    24.0000 </r>
       <r>   -66.0898     0.0000    24.0000 </r>
       <r>   -65.7834     0.0000    24.0000 </r>
       <r>   -65.4770     0.0000    24.0000 </r>
       <r>   -65.1706     0.0000    24.0000 </r>
       <r>   -64.8642     0.0000    24.0000 </r>
       <r>   -64.5578     0.0000    24.0000 </r>
       <r>   -64.2515     0.0000    24.0000 </r>
       <r>   -63.9451     0.0000    24.0000 </r>
       <r>   -63.6387     0.0000    24.0000 </r>
       <r>   -63.3323     0.0000    24.0000 </r>
       <r>   -63.0259     0.0000    24.0000 </r>
       <r>   -62.7196     0.0000    24.0000 </r>
       <r>   -62.4132     0.0000    24.0000 </r>
       <r>   -62.1068     0.0000    24.0000 </r>
       <r>   -61.8004     0.0000    24.0000 </r>
       <r>   -61.4940     0.0000    24.0000 </r>
       <r>   -61.1877     0.0000    24.0000 </r>
       <r>   -60.8813     0.0000    24.0000 </r>
       <r>   -60.5749     0.0000    24.0000 </r>
       <r>   -60.2685     0.0000    24.0000 </r>
       <r>   -59.9621     0.0000    24.0000 </r>
       <r>   -59.6557     0.0000    24.0000 </r>
       <r>   -59.3494     0.0000    24.0000 </r>
       <r>   -59.0430     0.0000    24.0000 </r>
       <r>   -58.7366     0.0000    24.0000 </r>
       <r>   -58.4302     0.0000    24.0000 </r>
       <r>   -58.1238     0.0000    24.0000 </r>
       <r>   -57.8175     0.0000    24.0000 </r>
       <r>   -57.5111     0.0000    24.0000 </r>
       <r>   -57.2047     0.0000    24.0000 </r>
       <r>   -56.8983     0.0000    24.0000 </r>
       <r>   -56.5919     0.0000    24.0000 </r>
       <r>   -56.2856     0.0000    24.0000 </r>
       <r>   -55.9792     0.0000    24.0000 </r>
       <r>   -55.6728     0.0000    24.0000 </r>
       <r>   -55.3664     0.0000    24.0000 </r>
       <r>   -55.0600     0.0000    24.0000 </r>
       <r>   -54.7537     0.0000    24.0000 </r>
       <r>   -54.4473     0.0000    24.0000 </r>
       <r>   -54.1409     0.0000    24.0000 </r>
       <r>   -53.8345     0.0000    24.0000 </r>
       <r>   -53.5281     0.0000    24.0000 </r>
       <r>   -53.2217     0.0000    24.0000 </r>
       <r>   -52.9154     0.0000    24.0000 </r>
       <r>   -52.6090     0.0000    24.0000 </r>
       <r>   -52.3026     0.0000    24.0000 </r>
       <r>   -51.9962     0.0000    24.0000 </r>
       <r>   -51.6898     0.0000    24.0000 </r>
       <r>   -51.3835     0.0000    24.0000 </r>
       <r>   -51.0771     0.0000    24.0000 </r>
       <r>   -50.7707     0.0000    24.0000 </r>
       <r>   -50.4643     0.0000    24.0000 </r>
       <r>   -50.1579     0.0000    24.0000 </r>
       <r>   -49.8516     0.0000    24.0000 </r>
       <r>   -49.5452     0.0000    24.0000 </r>
       <r>   -49.2388     0.0000    24.0000 </r>
       <r>   -48.9324     0.0000    24.0000 </r>
       <r>   -48.6260     0.0000    24.0000 </r>
       <r>   -48.3197     0.0000    24.0000 </r>
       <r>   -48.0133     0.0000    24.0000 </r>
       <r>   -47.7069     0.0000    24.0000 </r>
       <r>   -47.4005     0.0000    24.0000 </r>
       <r>   -47.0941     0.0000    24.0000 </r>
       <r>   -46.7877     0.0000    24.0000 </r>
       <r>   -46.4814     0.0000    24.0000 </r>
       <r>   -46.1750     0.0000    24.0000 </r>
       <r>   -45.8686     0.0000    24.0000 </r>
       <r>   -45.5622     0.0000    24.0000 </r>
       <r>   -45.2558     0.0000    24.0000 </r>
       <r>   -44.9495     0.0000    24.0000 </r>
       <r>   -44.6431     0.0000    24.0000 </r>
       <r>   -44.3367     0.0000    24.0000 </r>
       <r>   -44.0303     0.0000    24.0000 </r>
       <r>   -43.7239     0.0000    24.0000 </r>
       <r>   -43.4176     0.0000    24.0000 </r>
       <r>   -43.1112     0.0000    24.0000 </r>
       <r>   -42.8048     0.0000    24.0000 </r>
       <r>   -42.4984     0.0000    24.0000 </r>
       <r>   -42.1920     0.0000    24.0000 </r>
       <r>   -41.8856     0.0000    24.0000 </r>
       <r>   -41.5793     0.0000    24.0000 </r>
       <r>   -41.2729     0.0000    24.0000 </r>
       <r>   -40.9665     0.0000    24.0000 </r>
       <r>   -40.6601     0.0000    24.0000 </r>
       <r>   -40.3537     0.0000    24.0000 </r>
       <r>   -40.0474     0.0000    24.0000 </r>
       <r>   -39.7410     0.0000    24.0000 </r>
       <r>   -39.4346     0.0000    24.0000 </r>
       <r>   -39.1282     0.0000    24.0000 </r>
       <r>   -38.8218     0.0000    24.0000 </r>
       <r>   -38.5155     0.0000    24.0000 </r>
       <r>   -38.2091     0.0000    24.0000 </r>
       <r>   -37.9027     0.0000    24.0000 </r>
       <r>   -37.5963     0.0000    24.0000 </r>
       <r>   -37.2899     0.0000    24.0000 </r>
       <r>   -36.9836     0.0000    24.0000 </r>
       <r>   -36.6772     0.0000    24.0000 </r>
       <r>   -36.3708     0.0000    24.0000 </r>
       <r>   -36.0644     0.0000    24.0000 </r>
       <r>   -35.7580     0.0000    24.0000 </r>
       <r>   -35.4516     0.0000    24.0000 </r>
       <r>   -35.1453     0.0000    24.0000 </r>
       <r>   -34.8389     0.0000    24.0000 </r>
       <r>   -34.5325     0.0000    24.0000 </r>
       <r>   -34.2261     0.0000    24.0000 </r>
       <r>   -33.9197     0.0000    24.0000 </r>
       <r>   -33.6134     0.0000    24.0000 </r>
       <r>   -33.3070     0.0000    24.0000 </r>
       <r>   -33.0006     0.0000    24.0000 </r>
       <r>   -32.6942     0.0000    24.0000 </r>
       <r>   -32.3878     0.0000    24.0000 </r>
       <r>   -32.0815     0.0000    24.0000 </r>
       <r>   -31.7751     0.0000    24.0000 </r>
       <r>   -31.4687     0.0000    24.0000 </r>
       <r>   -31.1623     0.0000    24.0000 </r>
       <r>   -30.8559     0.0000    24.0000 </r>
       <r>   -30.5496     0.0000    24.0000 </r>
       <r>   -30.2432     0.0000    24.0000 </r>
       <r>   -29.9368     0.0000    24.0000 </r>
       <r>   -29.6304     0.0000    24.0000 </r>
       <r>   -29.3240     0.0000    24.0000 </r>
       <r>   -29.0176     0.0000    24.0000 </r>
       <r>   -28.7113     0.0000    24.0000 </r>
       <r>   -28.4049     0.0000    24.0000 </r>
       <r>   -28.0985     0.0000    24.0000 </r>
       <r>   -27.7921     0.0000    24.0000 </r>
       <r>   -27.4857     0.0000    24.0000 </r>
       <r>   -27.1794     0.0000    24.0000 </r>
       <r>   -26.8730     0.0000    24.0000 </r>
       <r>   -26.5666     0.0000    24.0000 </r>
       <r>   -26.2602     0.0000    24.0000 </r>
       <r>   -25.9538     0.0000    24.0000 </r>
       <r>   -25.6475     0.0000    24.0000 </r>
       <r>   -25.3411     0.0000    24.0000 </r>
       <r>   -25.0347     0.0000    24.0000 </r>
       <r>   -24.7283     0.0000    24.0000 </r>
       <r>   -24.4219     0.0000    24.0000 </r>
       <r>   -24.1155     0.0000    24.0000 </r>
       <r>   -23.8092     0.0000    24.0000 </r>
       <r>   -23.5028     0.0000    24.0000 </r>
       <r>   -23.1964     0.0000    24.0000 </r>
       <r>   -22.8900     0.0000    24.0000 </r>
       <r>   -22.5836     0.0000    24.0000 </r>
       <r>   -22.2773     0.0000    24.0000 </r>
       <r>   -21.9709     0.0000    24.0000 </r>
       <r>   -21.6645     0.0000    24.0000 </r>
       <r>   -21.3581     0.0000    24.0000 </r>
       <r>   -21.0517     0.0000    24.0000 </r>
       <r>   -20.7454     0.0000    24.0000 </r>
       <r>   -20.4390     0.0000    24.0000 </r>
       <r>   -20.1326     0.0000    24.0000 </r>
       <r>   -19.8262     0.0000    24.0000 </r>
       <r>   -19.5198     0.0000    24.0000 </r>
       <r>   -19.2135     0.0000    24.0000 </r>
       <r>   -18.9071     0.0000    24.0000 </r>
       <r>   -18.6007     0.0000    24.0000 </r>
       <r>   -18.2943     0.0000    24.0000 </r>
       <r>   -17.9879     0.0000    24.0000 </r>
       <r>   -17.6815     0.0000    24.0000 </r>
       <r>   -17.3752     0.0000    24.0000 </r>
       <r>   -17.0688     0.0000    24.0000 </r>
       <r>   -16.7624     0.0000    24.0000 </r>
       <r>   -16.4560     0.0000    24.0000 </r>
       <r>   -16.1496     0.0000    24.0000 </r>
       <r>   -15.8433     0.0000    24.0000 </r>
       <r>   -15.5369     0.0000    24.0000 </r>
       <r>   -15.2305     0.0000    24.0000 </r>
       <r>   -14.9241     0.0000    24.0000 </r>
       <r>   -14.6177     0.0000    24.0000 </r>
       <r>   -14.3114     0.0000    24.0000 </r>
       <r>   -14.0050     0.0000    24.0000 </r>
       <r>   -13.6986    -0.0000    24.0000 </r>
       <r>   -13.3922    -0.0000    24.0000 </r>
       <r>   -13.0858    -0.0000    24.0000 </r>
       <r>   -12.7795    -0.0039    23.9988 </r>
       <r>   -12.4731     1.5397    24.4705 </r>
       <r>   -12.1667     3.5693    25.5641 </r>
       <r>   -11.8603     1.9110    26.1496 </r>
       <r>   -11.5539     2.1561    26.8102 </r>
       <r>   -11.2475     3.1949    27.7890 </r>
       <r>   -10.9412     2.5027    28.5558 </r>
       <r>   -10.6348     9.3183    31.4107 </r>
       <r>   -10.3284     9.4863    34.3172 </r>
       <r>   -10.0220     5.5101    36.0054 </r>
       <r>    -9.7156    -0.0175    36.0000 </r>
       <r>    -9.4093    -0.0000    36.0000 </r>
       <r>    -9.1029     0.0000    36.0000 </r>
       <r>    -8.7965     0.0000    36.0000 </r>
       <r>    -8.4901     0.0000    36.0000 </r>
       <r>    -8.1837     0.0000    36.0000 </r>
       <r>    -7.8774     0.0000    36.0000 </r>
       <r>    -7.5710     0.0000    36.0000 </r>
       <r>    -7.2646     0.0000    36.0000 </r>
       <r>    -6.9582    -0.0000    36.0000 </r>
       <r>    -6.6518    -0.0000    36.0000 </r>
       <r>    -6.3454    -0.0000    36.0000 </r>
       <r>    -6.0391     0.0573    36.0176 </r>
       <r>    -5.7327     3.4949    37.0883 </r>
       <r>    -5.4263     2.0468    37.7154 </r>
       <r>    -5.1199     1.8708    38.2886 </r>
       <r>    -4.8135     3.3025    39.3004 </r>
       <r>    -4.5072     2.2164    39.9795 </r>
       <r>    -4.2008     0.0670    40.0000 </r>
       <r>    -3.8944    -0.0000    40.0000 </r>
       <r>    -3.5880    -0.0000    40.0000 </r>
       <r>    -3.2816    -0.0000    40.0000 </r>
       <r>    -2.9753    -0.0004    39.9999 </r>
       <r>    -2.6689     0.3794    40.1161 </r>
       <r>    -2.3625     6.1311    41.9946 </r>
       <r>    -2.0561     6.7160    44.0522 </r>
       <r>    -1.7497     7.3382    46.3005 </r>
       <r>    -1.4434     6.4260    48.2693 </r>
       <r>    -1.1370     8.7313    50.9444 </r>
       <r>    -0.8306     9.0941    53.7306 </r>
       <r>    -0.5242    11.3345    57.2033 </r>
       <r>    -0.2178    18.1671    62.7694 </r>
       <r>     0.0886    28.9910    71.6517 </r>
       <r>     0.3949     1.1376    72.0002 </r>
       <r>     0.7013    -0.0007    72.0000 </r>
       <r>     1.0077    -0.0200    71.9939 </r>
       <r>     1.3141     7.4103    74.2643 </r>
       <r>     1.6205    44.8426    88.0032 </r>
       <r>     1.9268    13.7826    92.2259 </r>
       <r>     2.2332    13.1978    96.2695 </r>
       <r>     2.5396    12.8416   100.2039 </r>
       <r>     2.8460    11.1630   103.6240 </r>
       <r>     3.1524     9.0868   106.4080 </r>
       <r>     3.4587     7.9030   108.8294 </r>
       <r>     3.7651     6.9329   110.9535 </r>
       <r>     4.0715     3.1668   111.9237 </r>
       <r>     4.3779     0.2496   112.0002 </r>
       <r>     4.6843    -0.0006   112.0000 </r>
       <r>     4.9907    -0.0000   112.0000 </r>
       <r>     5.2970    -0.0001   112.0000 </r>
       <r>     5.6034     0.0770   112.0236 </r>
       <r>     5.9098     0.1702   112.0757 </r>
       <r>     6.2162     2.6401   112.8846 </r>
       <r>     6.5226     4.3639   114.2216 </r>
       <r>     6.8289     3.4418   115.2761 </r>
       <r>     7.1353     2.4285   116.0201 </r>
       <r>     7.4417     1.4388   116.4609 </r>
       <r>     7.7481     3.1711   117.4325 </r>
       <r>     8.0545     5.5640   119.1372 </r>
       <r>     8.3608     5.5494   120.8374 </r>
       <r>     8.6672     4.5862   122.2426 </r>
       <r>     8.9736     4.4768   123.6142 </r>
       <r>     9.2800     5.6212   125.3364 </r>
       <r>     9.5864     5.6814   127.0771 </r>
       <r>     9.8927     4.7845   128.5430 </r>
       <r>    10.1991     4.4676   129.9117 </r>
       <r>    10.5055     6.5014   131.9036 </r>
       <r>    10.8119     8.2677   134.4367 </r>
       <r>    11.1183     8.2472   136.9635 </r>
       <r>    11.4247     7.9845   139.4098 </r>
       <r>    11.7310     7.9131   141.8342 </r>
       <r>    12.0374     6.5666   143.8461 </r>
       <r>    12.3438     5.8717   145.6451 </r>
       <r>    12.6502     6.6394   147.6792 </r>
       <r>    12.9566     5.7789   149.4498 </r>
       <r>    13.2629     6.2070   151.3515 </r>
       <r>    13.5693     5.3601   152.9937 </r>
       <r>    13.8757     4.0835   154.2448 </r>
       <r>    14.1821     3.1701   155.2161 </r>
       <r>    14.4885     4.5947   156.6238 </r>
       <r>    14.7948     3.4587   157.6835 </r>
       <r>    15.1012     1.4094   158.1153 </r>
       <r>    15.4076     1.5933   158.6034 </r>
       <r>    15.7140     1.2162   158.9761 </r>
       <r>    16.0204     1.6811   159.4911 </r>
       <r>    16.3267     0.3354   159.5939 </r>
       <r>    16.6331     0.6824   159.8030 </r>
       <r>    16.9395     0.5211   159.9626 </r>
       <r>    17.2459     0.1220   160.0000 </r>
       <r>    17.5523    -0.0000   160.0000 </r>
       <r>    17.8587     0.0000   160.0000 </r>
       <r>    18.1650     0.0000   160.0000 </r>
       <r>    18.4714     0.0000   160.0000 </r>
       <r>    18.7778     0.0000   160.0000 </r>
       <r>    19.0842     0.0000   160.0000 </r>
      </set>
     </set>
    </array>
   </total>
  </dos>
 </calculation>
 <structure name="finalpos" >
  <crystal>
   <varray name="basis" >
    <v>       3.22479600      -5.64383000       0.03157200 </v>
    <v>       3.22479600       5.64383000       0.03157200 </v>
    <v>      -2.10194600       0.00000000       6.07553700 </v>
   </varray>
   <i name="volume">    221.90106089 </i>
   <varray name="rec_basis" >
    <v>       0.15452516      -0.08859232       0.05346088 </v>
    <v>       0.15452516       0.08859232       0.05346088 </v>
    <v>      -0.00160600       0.00000000       0.16403888 </v>
   </varray>
  </crystal>
  <varray name="positions" >
   <v>       0.61844300       0.12117100       0.12108848 </v>
   <v>       0.12117100       0.61844300       0.61953300 </v>
   <v>       0.96295700       0.79032200       0.11881300 </v>
   <v>       0.79032200       0.96295700       0.61881300 </v>
   <v>       0.43973200       0.26728100       0.59904700 </v>
   <v>       0.26728100       0.43973200       0.09904700 </v>
   <v>       0.07949800       0.91167500       0.49736300 </v>
   <v>       0.57140300       0.41236400       0.98018400 </v>
   <v>       0.73711100       0.25006200       0.49504900 </v>
   <v>       0.41236400       0.57140300       0.48018400 </v>
   <v>       0.91167500       0.07949800       0.99736300 </v>
   <v>       0.25006200       0.73711100       0.99504900 </v>
  </varray>
 </structure>
</modeling>
