       N       E                     dE             d eps       ncg     rms          ort
SDA:   1     0.755397156988E+02    0.75540E+02   -0.21315E+03  3360   0.533E+03 0.000E+00
DMP:   2    -0.838936689348E+01   -0.83929E+02   -0.14687E+03  3360   0.395E+03-0.736E+02
DMP:   3    -0.151676267851E+02   -0.67783E+01   -0.20391E+03  3360   0.694E+03-0.482E+03
DMP:   4    -0.226407875659E+02   -0.74732E+01   -0.10740E+03  3360   0.391E+03-0.319E+03
DMP:   5    -0.608120748317E+02   -0.38171E+02   -0.15057E+02  3360   0.706E+02-0.863E+02
DMP:   6    -0.659285891654E+02   -0.51165E+01   -0.81881E+01  3360   0.247E+02-0.111E+02
DMP:   7    -0.674697840026E+02   -0.15412E+01   -0.41424E+01  3360   0.147E+02-0.115E+02
DMP:   8    -0.690841596327E+02   -0.16144E+01   -0.77164E+00  3360   0.284E+01-0.238E+01
DMP:   9    -0.693945254056E+02   -0.31037E+00   -0.38704E+00  3360   0.111E+01-0.367E+00
DMP:  10    -0.694984405915E+02   -0.10392E+00   -0.15247E+00  3360   0.548E+00-0.438E+00
DMP:  11    -0.695681440912E+02   -0.69703E-01   -0.36949E-01  3360   0.105E+00-0.339E-01
DMP:  12    -0.695805012271E+02   -0.12357E-01   -0.22877E-01  3360   0.691E-01-0.311E-01
DMP:  13    -0.695901737694E+02   -0.96725E-02   -0.51264E-02  3360   0.162E-01-0.877E-02
DMP:  14    -0.695926313545E+02   -0.24576E-02   -0.37860E-02  3360   0.966E-02-0.520E-03
DMP:  15    -0.695941389377E+02   -0.15076E-02   -0.10386E-02  3360   0.334E-02-0.193E-02
DMP:  16    -0.695947103544E+02   -0.57142E-03   -0.40989E-03  3360   0.918E-03 0.280E-03
DMP:  17    -0.695948835377E+02   -0.17318E-03   -0.20897E-03  3360   0.581E-03-0.152E-03
DMP:  18    -0.695950006580E+02   -0.11712E-03   -0.56179E-04  3360   0.119E-03 0.550E-04
DMP:  19    -0.695950295227E+02   -0.28865E-04   -0.35309E-04  3360   0.884E-04-0.328E-06
DMP:  20    -0.695950492844E+02   -0.19762E-04   -0.11584E-04  3360   0.242E-04 0.125E-04
DMP:  21    -0.695950566730E+02   -0.73886E-05   -0.70117E-05  3360   0.140E-04 0.912E-05
   1 F= -.69595057E+02 E0= -.69595249E+02  d E =0.576000E-03
