       N       E                     dE             d eps       ncg     rms          ort
SDA:   1     0.755404437628E+02    0.75540E+02   -0.21322E+03  3360   0.533E+03 0.000E+00
DMP:   2    -0.837404258305E+01   -0.83914E+02   -0.14691E+03  3360   0.395E+03-0.738E+02
DMP:   3    -0.151674922038E+02   -0.67934E+01   -0.20342E+03  3360   0.692E+03-0.480E+03
DMP:   4    -0.226524391793E+02   -0.74849E+01   -0.10736E+03  3360   0.390E+03-0.319E+03
DMP:   5    -0.608297769822E+02   -0.38177E+02   -0.15044E+02  3360   0.705E+02-0.860E+02
DMP:   6    -0.659464026471E+02   -0.51166E+01   -0.81462E+01  3360   0.246E+02-0.110E+02
DMP:   7    -0.674812309767E+02   -0.15348E+01   -0.41211E+01  3360   0.147E+02-0.114E+02
DMP:   8    -0.690865049672E+02   -0.16053E+01   -0.76896E+00  3360   0.283E+01-0.237E+01
DMP:   9    -0.693955697075E+02   -0.30906E+00   -0.38506E+00  3360   0.110E+01-0.367E+00
DMP:  10    -0.694990299093E+02   -0.10346E+00   -0.15182E+00  3360   0.546E+00-0.435E+00
DMP:  11    -0.695684355440E+02   -0.69406E-01   -0.36879E-01  3360   0.105E+00-0.337E-01
DMP:  12    -0.695807900956E+02   -0.12355E-01   -0.22767E-01  3360   0.687E-01-0.309E-01
DMP:  13    -0.695904119308E+02   -0.96218E-02   -0.51108E-02  3360   0.161E-01-0.875E-02
DMP:  14    -0.695928605566E+02   -0.24486E-02   -0.37653E-02  3360   0.961E-02-0.525E-03
DMP:  15    -0.695943591581E+02   -0.14986E-02   -0.10337E-02  3360   0.332E-02-0.193E-02
DMP:  16    -0.695949270428E+02   -0.56788E-03   -0.40755E-03  3360   0.914E-03 0.274E-03
DMP:  17    -0.695950990903E+02   -0.17205E-03   -0.20790E-03  3360   0.578E-03-0.152E-03
DMP:  18    -0.695952154666E+02   -0.11638E-03   -0.55819E-04  3360   0.119E-03 0.540E-04
DMP:  19    -0.695952441032E+02   -0.28637E-04   -0.35070E-04  3360   0.879E-04-0.568E-06
DMP:  20    -0.695952636937E+02   -0.19590E-04   -0.11499E-04  3360   0.241E-04 0.122E-04
DMP:  21    -0.695952710091E+02   -0.73155E-05   -0.69498E-05  3360   0.140E-04 0.896E-05
   1 F= -.69595271E+02 E0= -.69595449E+02  d E =0.534959E-03
