 vasp.5.3.3 18Dez12 (build Nov 13 2015 09:58:40) complex                        
  
 executed on             LinuxIFC date 2017.10.18  13:07:58
 running on   48 total cores
 distrk:  each k-point on   16 cores,    3 groups
 distr:  one band on NCORES_PER_BAND=   1 cores,   16 groups


--------------------------------------------------------------------------------------------------------


 INCAR:
 POTCAR:    PAW_PBE Cu_pv 06Sep2000               
 POTCAR:    PAW_PBE Ge 05Jan2001                  
 POTCAR:    PAW_PBE S 17Jan2003                   

 ----------------------------------------------------------------------------- 
|                                                                             |
|           W    W    AA    RRRRR   N    N  II  N    N   GGGG   !!!           |
|           W    W   A  A   R    R  NN   N  II  NN   N  G    G  !!!           |
|           W    W  A    A  R    R  N N  N  II  N N  N  G       !!!           |
|           W WW W  AAAAAA  RRRRR   N  N N  II  N  N N  G  GGG   !            |
|           WW  WW  A    A  R   R   N   NN  II  N   NN  G    G                |
|           W    W  A    A  R    R  N    N  II  N    N   GGGG   !!!           |
|                                                                             |
|      For optimal performance we recommend that you set                      |
|        NPAR = 4 - approx SQRT( number of cores)                             |
|      (number of cores/NPAR must be integer)                                 |
|      This setting will greatly improve the performance of VASP for DFT.     |
|      The default NPAR=number of cores might be grossly inefficient          |
|      on modern multi-core architectures or massively parallel machines.     |
|      Do your own testing.                                                   |
|      Unfortunately you need to use the default for hybrid, GW and RPA       |
|      calculations.                                                          |
|                                                                             |
 ----------------------------------------------------------------------------- 


 ----------------------------------------------------------------------------- 
|                                                                             |
|           W    W    AA    RRRRR   N    N  II  N    N   GGGG   !!!           |
|           W    W   A  A   R    R  NN   N  II  NN   N  G    G  !!!           |
|           W    W  A    A  R    R  N N  N  II  N N  N  G       !!!           |
|           W WW W  AAAAAA  RRRRR   N  N N  II  N  N N  G  GGG   !            |
|           WW  WW  A    A  R   R   N   NN  II  N   NN  G    G                |
|           W    W  A    A  R    R  N    N  II  N    N   GGGG   !!!           |
|                                                                             |
|      You have enabled k-point parallelism (KPAR>1).                         |
|      This developmental code was originally  written by Paul Kent at ORNL,  |
|      and carefully double checked in Vienna.                                |
|      GW as well as linear response parallelism added by Martijn Marsman     |
|      and Georg Kresse.                                                      |
|      Carefully verify results versus KPAR=1.                                |
|      Report problems to Paul Kent and Vienna.                               |
|                                                                             |
 ----------------------------------------------------------------------------- 

 POTCAR:    PAW_PBE Cu_pv 06Sep2000               
   VRHFIN =Cu: d10 p1                                                           
   LEXCH  = PE                                                                  
   EATOM  =  4120.1201 eV,  302.8203 Ry                                         
                                                                                
   TITEL  = PAW_PBE Cu_pv 06Sep2000                                             
   LULTRA =        F    use ultrasoft PP ?                                      
   IUNSCR =        1    unscreen: 0-lin 1-nonlin 2-no                           
   RPACOR =    1.500    partial core radius                                     
   POMASS =   63.546; ZVAL   =   17.000    mass and valenz                      
   RCORE  =    2.000    outmost cutoff radius                                   
   RWIGS  =    2.000; RWIGS  =    1.058    wigner-seitz radius (au A)           
   ENMAX  =  368.648; ENMIN  =  276.486 eV                                      
   RCLOC  =    1.304    cutoff for local pot                                    
   LCOR   =        T    correct aug charges                                     
   LPAW   =        T    paw PP                                                  
   EAUG   =  758.233                                                            
   DEXC   =    0.000                                                            
   RMAX   =    2.046    core radius for proj-oper                               
   RAUG   =    1.300    factor for augmentation sphere                          
   RDEP   =    2.025    radius for radial grids                                 
   RDEPT  =    1.558    core radius for aug-charge                              
                                                                                
   Atomic configuration                                                         
    8 entries                                                                   
     n  l   j            E        occ.                                          
     1  0  0.50     -8850.2467   2.0000                                         
     2  0  0.50     -1062.3498   2.0000                                         
     2  1  1.50      -916.8226   6.0000                                         
     3  0  0.50      -114.6929   2.0000                                         
     3  1  1.50       -72.1325   6.0000                                         
     3  2  2.50        -5.0394  10.0000                                         
     4  0  0.50        -4.6097   1.0000                                         
     4  3  2.50        -1.3606   0.0000                                         
   Description                                                                  
     l       E           TYP  RCUT    TYP  RCUT                                 
     1    -72.1324777     23  1.700                                             
     1     -1.3605826     23  1.700                                             
     2     -5.0393776     23  2.000                                             
     2     -6.3999602     23  2.000                                             
     0     -4.6097062     23  1.800                                             
     0     14.1620818     23  1.800                                             
  local pseudopotential read in
  partial core-charges read in
  partial kinetic energy density read in
  atomic valenz-charges read in
  non local Contribution for L=           1  read in
    real space projection operators read in
  non local Contribution for L=           1  read in
    real space projection operators read in
  non local Contribution for L=           2  read in
    real space projection operators read in
  non local Contribution for L=           2  read in
    real space projection operators read in
  non local Contribution for L=           0  read in
    real space projection operators read in
  non local Contribution for L=           0  read in
    real space projection operators read in
    PAW grid and wavefunctions read in
 
   number of l-projection  operators is LMAX  =           6
   number of lm-projection operators is LMMAX =          18
 
 POTCAR:    PAW_PBE Ge 05Jan2001                  
   VRHFIN =Ge: s2p2                                                             
   LEXCH  = PE                                                                  
   EATOM  =   104.9960 eV,    7.7170 Ry                                         
                                                                                
   TITEL  = PAW_PBE Ge 05Jan2001                                                
   LULTRA =        F    use ultrasoft PP ?                                      
   IUNSCR =        1    unscreen: 0-lin 1-nonlin 2-no                           
   RPACOR =    2.170    partial core radius                                     
   POMASS =   72.610; ZVAL   =    4.000    mass and valenz                      
   RCORE  =    2.300    outmost cutoff radius                                   
   RWIGS  =    2.300; RWIGS  =    1.217    wigner-seitz radius (au A)           
   ENMAX  =  173.807; ENMIN  =  130.355 eV                                      
   ICORE  =        3    local potential                                         
   LCOR   =        T    correct aug charges                                     
   LPAW   =        T    paw PP                                                  
   EAUG   =  385.843                                                            
   DEXC   =    0.000                                                            
   RMAX   =    2.342    core radius for proj-oper                               
   RAUG   =    1.300    factor for augmentation sphere                          
   RDEP   =    2.318    radius for radial grids                                 
   RDEPT  =    2.103    core radius for aug-charge                              
                                                                                
   Atomic configuration                                                         
   10 entries                                                                   
     n  l   j            E        occ.                                          
     1  0  0.50    -10959.8463   2.0000                                         
     2  0  0.50     -1371.6056   2.0000                                         
     2  1  1.50     -1198.4791   6.0000                                         
     3  0  0.50      -168.4733   2.0000                                         
     3  1  1.50      -115.6019   6.0000                                         
     3  2  2.50       -29.3106  10.0000                                         
     4  0  0.50       -11.7309   2.0000                                         
     4  1  0.50        -3.8952   2.0000                                         
     4  2  1.50        -4.0817   0.0000                                         
     4  3  2.50        -4.0817   0.0000                                         
   Description                                                                  
     l       E           TYP  RCUT    TYP  RCUT                                 
     0    -11.7309493     23  2.300                                             
     0     -7.4578696     23  2.300                                             
     1     -3.8952261     23  2.300                                             
     1      6.1178114     23  2.300                                             
     2     -4.0817478     23  2.300                                             
     3     -1.3605826      7  2.300                                             
  local pseudopotential read in
  partial core-charges read in
  partial kinetic energy density read in
  atomic valenz-charges read in
  non local Contribution for L=           0  read in
    real space projection operators read in
  non local Contribution for L=           0  read in
    real space projection operators read in
  non local Contribution for L=           1  read in
    real space projection operators read in
  non local Contribution for L=           1  read in
    real space projection operators read in
  non local Contribution for L=           2  read in
    real space projection operators read in
    PAW grid and wavefunctions read in
 
   number of l-projection  operators is LMAX  =           5
   number of lm-projection operators is LMMAX =          13
 
 POTCAR:    PAW_PBE S 17Jan2003                   
   VRHFIN =S : s2p4                                                             
   LEXCH  = PE                                                                  
   EATOM  =   276.8230 eV,   20.3459 Ry                                         
                                                                                
   TITEL  = PAW_PBE S 17Jan2003                                                 
   LULTRA =        F    use ultrasoft PP ?                                      
   IUNSCR =        1    unscreen: 0-lin 1-nonlin 2-no                           
   RPACOR =    1.500    partial core radius                                     
   POMASS =   32.066; ZVAL   =    6.000    mass and valenz                      
   RCORE  =    1.900    outmost cutoff radius                                   
   RWIGS  =    2.200; RWIGS  =    1.164    wigner-seitz radius (au A)           
   ENMAX  =  280.000; ENMIN  =  194.016 eV                                      
   ICORE  =        2    local potential                                         
   LCOR   =        T    correct aug charges                                     
   LPAW   =        T    paw PP                                                  
   EAUG   =  335.092                                                            
   DEXC   =     .000                                                            
   RMAX   =    2.867    core radius for proj-oper                               
   RAUG   =    1.300    factor for augmentation sphere                          
   RDEP   =    1.954    radius for radial grids                                 
   QCUT   =   -4.360; QGAM   =    8.721    optimization parameters              
                                                                                
   Description                                                                  
     l     E      TYP  RCUT    TYP  RCUT                                        
     0   .000     23  1.900                                                     
     0   .000     23  1.900                                                     
     1   .000     23  1.900                                                     
     1   .000     23  1.900                                                     
     2   .000     23  1.900                                                     
  local pseudopotential read in
  partial core-charges read in
  atomic valenz-charges read in
  non local Contribution for L=           0  read in
    real space projection operators read in
  non local Contribution for L=           0  read in
    real space projection operators read in
  non local Contribution for L=           1  read in
    real space projection operators read in
  non local Contribution for L=           1  read in
    real space projection operators read in
    PAW grid and wavefunctions read in
 
   number of l-projection  operators is LMAX  =           4
   number of lm-projection operators is LMMAX =           8
 
  PAW_PBE Cu_pv 06Sep2000               :
 energy of atom  1       EATOM=-4120.1201
 kinetic energy error for atom=    0.0996 (will be added to EATOM!!)
  PAW_PBE Ge 05Jan2001                  :
 energy of atom  2       EATOM= -104.9960
 kinetic energy error for atom=    0.0003 (will be added to EATOM!!)
  PAW_PBE S 17Jan2003                   :
 energy of atom  3       EATOM= -276.8230
 kinetic energy error for atom=    0.0046 (will be added to EATOM!!)
 
 
 POSCAR: Cu Ge S                                 
  positions in direct lattice
  No initial velocities read in
 exchange correlation table for  LEXCH =        8
   RHO(1)=    0.500       N(1)  =     2000
   RHO(2)=  100.500       N(2)  =     4000
 


--------------------------------------------------------------------------------------------------------


 ion  position               nearest neighbor table
   1  0.618  0.121  0.120-   9 2.29  11 2.29  12 2.30   8 2.35
   2  0.121  0.618  0.620-  12 2.29   7 2.30   9 2.30  10 2.35
   3  0.963  0.790  0.119-  11 2.30  12 2.30   7 2.31   8 2.36
   4  0.790  0.963  0.619-   7 2.29   9 2.30  11 2.31  10 2.36
   5  0.440  0.267  0.599-   9 2.19   7 2.20  10 2.31   8 2.33
   6  0.267  0.440  0.099-  11 2.19  12 2.19   8 2.31  10 2.33
   7  0.078  0.912  0.497-   5 2.20   4 2.29   2 2.30   3 2.31
   8  0.571  0.412  0.980-   6 2.31   5 2.33   1 2.35   3 2.36
   9  0.737  0.250  0.495-   5 2.19   1 2.29   4 2.30   2 2.30
  10  0.412  0.571  0.480-   5 2.31   6 2.33   2 2.35   4 2.36
  11  0.912  0.079  0.997-   6 2.19   1 2.29   3 2.30   4 2.31
  12  0.250  0.737  0.995-   6 2.19   2 2.29   3 2.30   1 2.30
 
  Warning from LATTYP: Got some problem with cell dimensions!
  Tried to take original basis but could not verify dimensions!
  LATTYP: Found a base centered monoclinic cell.
 ALAT       =     6.4499010947
 B/A-ratio  =     1.7500516418
 C/A-ratio  =     1.9305142024
 COS(beta)  =    -0.4326083233
  
  Lattice vectors:
  
 A1 = (   3.2247960000,   5.6438300000,   0.0315720000)
 A2 = (   3.2247960000,  -5.6438300000,   0.0315720000)
 A3 = ( -10.7972380000,   0.0000000000,  -6.2018250000)


Analysis of symmetry for initial positions (statically):
=====================================================================
 Subroutine PRICEL returns:
 Original cell was already a primitive cell.
 

 Routine SETGRP: Setting up the symmetry group for a 
 base centered monoclinic supercell.


 Subroutine GETGRP returns: Found  1 space group operations
 (whereof  1 operations were pure point group operations)
 out of a pool of  4 trial point group operations.


The static configuration has the point symmetry C_1 .


Analysis of symmetry for dynamics (positions and initial velocities):
=====================================================================
 Subroutine PRICEL returns:
 Original cell was already a primitive cell.
 

 Routine SETGRP: Setting up the symmetry group for a 
 base centered monoclinic supercell.


 Subroutine GETGRP returns: Found  1 space group operations
 (whereof  1 operations were pure point group operations)
 out of a pool of  4 trial point group operations.


The dynamic configuration has the point symmetry C_1 .


 irot  :   1
 --------------------------------------------------------------------
 isymop:   1   0   0
           0   1   0
           0   0   1

 gtrans:     0.0000000     0.0000000     0.0000000

 ptrans:     0.0000000     0.0000000     0.0000000
 rotmap:
 (   1->   1)  (   2->   2)  (   3->   3)  (   4->   4)  (   5->   5) 
 (   6->   6)  (   7->   7)  (   8->   8)  (   9->   9)  (  10->  10) 
 (  11->  11)  (  12->  12) 
 
 
 KPOINTS: pymatgen 4.7.6+ generated KPOINTS with g

Automatic generation of k-mesh.
Space group operators:
 irot       det(A)        alpha          n_x          n_y          n_z        tau_x        tau_y        tau_z
    1     1.000000     0.000000     1.000000     0.000000     0.000000     0.000000     0.000000     0.000000
 
 Subroutine IBZKPT returns following result:
 ===========================================
 
 Found     42 irreducible k-points:
 
 Following reciprocal coordinates:
            Coordinates               Weight
  0.000000  0.000000  0.000000      1.000000
  0.250000  0.000000  0.000000      2.000000
  0.500000  0.000000  0.000000      1.000000
  0.000000  0.250000  0.000000      2.000000
  0.250000  0.250000  0.000000      2.000000
  0.500000  0.250000 -0.000000      2.000000
 -0.250000  0.250000  0.000000      2.000000
  0.000000  0.500000  0.000000      1.000000
  0.250000  0.500000 -0.000000      2.000000
  0.500000  0.500000  0.000000      1.000000
 -0.000000 -0.000000  0.200000      2.000000
  0.250000  0.000000  0.200000      2.000000
  0.500000  0.000000  0.200000      2.000000
 -0.250000 -0.000000  0.200000      2.000000
  0.000000  0.250000  0.200000      2.000000
  0.250000  0.250000  0.200000      2.000000
  0.500000  0.250000  0.200000      2.000000
 -0.250000  0.250000  0.200000      2.000000
  0.000000  0.500000  0.200000      2.000000
  0.250000  0.500000  0.200000      2.000000
  0.500000  0.500000  0.200000      2.000000
 -0.250000  0.500000  0.200000      2.000000
 -0.000000 -0.250000  0.200000      2.000000
  0.250000 -0.250000  0.200000      2.000000
  0.500000 -0.250000  0.200000      2.000000
 -0.250000 -0.250000  0.200000      2.000000
 -0.000000 -0.000000  0.400000      2.000000
  0.250000  0.000000  0.400000      2.000000
  0.500000  0.000000  0.400000      2.000000
 -0.250000  0.000000  0.400000      2.000000
  0.000000  0.250000  0.400000      2.000000
  0.250000  0.250000  0.400000      2.000000
  0.500000  0.250000  0.400000      2.000000
 -0.250000  0.250000  0.400000      2.000000
  0.000000  0.500000  0.400000      2.000000
  0.250000  0.500000  0.400000      2.000000
  0.500000  0.500000  0.400000      2.000000
 -0.250000  0.500000  0.400000      2.000000
  0.000000 -0.250000  0.400000      2.000000
  0.250000 -0.250000  0.400000      2.000000
  0.500000 -0.250000  0.400000      2.000000
 -0.250000 -0.250000  0.400000      2.000000
 
 Following cartesian coordinates:
            Coordinates               Weight
  0.000000  0.000000  0.000000      1.000000
  0.038631 -0.022148  0.013365      2.000000
  0.077263 -0.044296  0.026730      1.000000
  0.038631  0.022148  0.013365      2.000000
  0.077263  0.000000  0.026730      2.000000
  0.115894 -0.022148  0.040096      2.000000
  0.000000  0.044296  0.000000      2.000000
  0.077263  0.044296  0.026730      1.000000
  0.115894  0.022148  0.040096      2.000000
  0.154525  0.000000  0.053461      1.000000
 -0.000321  0.000000  0.032808      2.000000
  0.038310 -0.022148  0.046173      2.000000
  0.076941 -0.044296  0.059538      2.000000
 -0.038952  0.022148  0.019443      2.000000
  0.038310  0.022148  0.046173      2.000000
  0.076941  0.000000  0.059538      2.000000
  0.115573 -0.022148  0.072903      2.000000
 -0.000321  0.044296  0.032808      2.000000
  0.076941  0.044296  0.059538      2.000000
  0.115573  0.022148  0.072903      2.000000
  0.154204  0.000000  0.086269      2.000000
  0.038310  0.066444  0.046173      2.000000
 -0.038952 -0.022148  0.019443      2.000000
 -0.000321 -0.044296  0.032808      2.000000
  0.038310 -0.066444  0.046173      2.000000
 -0.077584  0.000000  0.006077      2.000000
 -0.000642  0.000000  0.065616      2.000000
  0.037989 -0.022148  0.078981      2.000000
  0.076620 -0.044296  0.092346      2.000000
 -0.039274  0.022148  0.052250      2.000000
  0.037989  0.022148  0.078981      2.000000
  0.076620  0.000000  0.092346      2.000000
  0.115251 -0.022148  0.105711      2.000000
 -0.000642  0.044296  0.065616      2.000000
  0.076620  0.044296  0.092346      2.000000
  0.115251  0.022148  0.105711      2.000000
  0.153883  0.000000  0.119076      2.000000
  0.037989  0.066444  0.078981      2.000000
 -0.039274 -0.022148  0.052250      2.000000
 -0.000642 -0.044296  0.065616      2.000000
  0.037989 -0.066444  0.078981      2.000000
 -0.077905  0.000000  0.038885      2.000000
 
 
 Subroutine IBZKPT_HF returns following result:
 ==============================================
 
 Found     80 k-points in 1st BZ
 the following     80 k-points will be used (e.g. in the exchange kernel)
 Following reciprocal coordinates:   # in IRBZ
  0.000000  0.000000  0.000000       1 t-inv F
  0.250000  0.000000  0.000000       2 t-inv F
  0.500000  0.000000  0.000000       3 t-inv F
  0.000000  0.250000  0.000000       4 t-inv F
  0.250000  0.250000  0.000000       5 t-inv F
  0.500000  0.250000 -0.000000       6 t-inv F
 -0.250000  0.250000  0.000000       7 t-inv F
  0.000000  0.500000  0.000000       8 t-inv F
  0.250000  0.500000 -0.000000       9 t-inv F
  0.500000  0.500000  0.000000      10 t-inv F
 -0.000000 -0.000000  0.200000      11 t-inv F
  0.250000  0.000000  0.200000      12 t-inv F
  0.500000  0.000000  0.200000      13 t-inv F
 -0.250000 -0.000000  0.200000      14 t-inv F
  0.000000  0.250000  0.200000      15 t-inv F
  0.250000  0.250000  0.200000      16 t-inv F
  0.500000  0.250000  0.200000      17 t-inv F
 -0.250000  0.250000  0.200000      18 t-inv F
  0.000000  0.500000  0.200000      19 t-inv F
  0.250000  0.500000  0.200000      20 t-inv F
  0.500000  0.500000  0.200000      21 t-inv F
 -0.250000  0.500000  0.200000      22 t-inv F
 -0.000000 -0.250000  0.200000      23 t-inv F
  0.250000 -0.250000  0.200000      24 t-inv F
  0.500000 -0.250000  0.200000      25 t-inv F
 -0.250000 -0.250000  0.200000      26 t-inv F
 -0.000000 -0.000000  0.400000      27 t-inv F
  0.250000  0.000000  0.400000      28 t-inv F
  0.500000  0.000000  0.400000      29 t-inv F
 -0.250000  0.000000  0.400000      30 t-inv F
  0.000000  0.250000  0.400000      31 t-inv F
  0.250000  0.250000  0.400000      32 t-inv F
  0.500000  0.250000  0.400000      33 t-inv F
 -0.250000  0.250000  0.400000      34 t-inv F
  0.000000  0.500000  0.400000      35 t-inv F
  0.250000  0.500000  0.400000      36 t-inv F
  0.500000  0.500000  0.400000      37 t-inv F
 -0.250000  0.500000  0.400000      38 t-inv F
  0.000000 -0.250000  0.400000      39 t-inv F
  0.250000 -0.250000  0.400000      40 t-inv F
  0.500000 -0.250000  0.400000      41 t-inv F
 -0.250000 -0.250000  0.400000      42 t-inv F
 -0.250000 -0.000000 -0.000000       2 t-inv T
 -0.000000 -0.250000 -0.000000       4 t-inv T
 -0.250000 -0.250000  0.000000       5 t-inv T
 -0.500000 -0.250000  0.000000       6 t-inv T
  0.250000 -0.250000  0.000000       7 t-inv T
 -0.250000 -0.500000  0.000000       9 t-inv T
  0.000000  0.000000 -0.200000      11 t-inv T
 -0.250000 -0.000000 -0.200000      12 t-inv T
 -0.500000 -0.000000 -0.200000      13 t-inv T
  0.250000  0.000000 -0.200000      14 t-inv T
 -0.000000 -0.250000 -0.200000      15 t-inv T
 -0.250000 -0.250000 -0.200000      16 t-inv T
 -0.500000 -0.250000 -0.200000      17 t-inv T
  0.250000 -0.250000 -0.200000      18 t-inv T
 -0.000000 -0.500000 -0.200000      19 t-inv T
 -0.250000 -0.500000 -0.200000      20 t-inv T
 -0.500000 -0.500000 -0.200000      21 t-inv T
  0.250000 -0.500000 -0.200000      22 t-inv T
  0.000000  0.250000 -0.200000      23 t-inv T
 -0.250000  0.250000 -0.200000      24 t-inv T
 -0.500000  0.250000 -0.200000      25 t-inv T
  0.250000  0.250000 -0.200000      26 t-inv T
  0.000000  0.000000 -0.400000      27 t-inv T
 -0.250000 -0.000000 -0.400000      28 t-inv T
 -0.500000 -0.000000 -0.400000      29 t-inv T
  0.250000 -0.000000 -0.400000      30 t-inv T
 -0.000000 -0.250000 -0.400000      31 t-inv T
 -0.250000 -0.250000 -0.400000      32 t-inv T
 -0.500000 -0.250000 -0.400000      33 t-inv T
  0.250000 -0.250000 -0.400000      34 t-inv T
 -0.000000 -0.500000 -0.400000      35 t-inv T
 -0.250000 -0.500000 -0.400000      36 t-inv T
 -0.500000 -0.500000 -0.400000      37 t-inv T
  0.250000 -0.500000 -0.400000      38 t-inv T
 -0.000000  0.250000 -0.400000      39 t-inv T
 -0.250000  0.250000 -0.400000      40 t-inv T
 -0.500000  0.250000 -0.400000      41 t-inv T
  0.250000  0.250000 -0.400000      42 t-inv T


--------------------------------------------------------------------------------------------------------




 Dimension of arrays:
   k-points           NKPTS =     42   k-points in BZ     NKDIM =     80   number of bands    NBANDS=     80
   number of dos      NEDOS =    301   number of ions     NIONS =     12
   non local maximal  LDIM  =      6   non local SUM 2l+1 LMDIM =     18
   total plane-waves  NPLWV =  32768
   max r-space proj   IRMAX =      1   max aug-charges    IRDMAX=   8224
   dimension x,y,z NGX =    32 NGY =   32 NGZ =   32
   dimension x,y,z NGXF=    64 NGYF=   64 NGZF=   64
   support grid    NGXF=    64 NGYF=   64 NGZF=   64
   ions per type =               4   2   6
 NGX,Y,Z   is equivalent  to a cutoff of   8.18,  8.18,  8.27 a.u.
 NGXF,Y,Z  is equivalent  to a cutoff of  16.37, 16.37, 16.55 a.u.


 I would recommend the setting:
   dimension x,y,z NGX =    32 NGY =   32 NGZ =   31
 SYSTEM =  CGS                                     
 POSCAR =  Cu Ge S                                 

 Startparameter for this run:
   NWRITE =      2    write-flag & timer
   PREC   = normal    normal or accurate (medium, high low for compatibility)
   ISTART =      1    job   : 0-new  1-cont  2-samecut
   ICHARG =      0    charge: 1-file 2-atom 10-const
   ISPIN  =      1    spin polarized calculation?
   LNONCOLLINEAR =      F non collinear calculations
   LSORBIT =      F    spin-orbit coupling
   INIWAV =      1    electr: 0-lowe 1-rand  2-diag
   LASPH  =      F    aspherical Exc in radial PAW
   METAGGA=      F    non-selfconsistent MetaGGA calc.

 Electronic Relaxation 1
   ENCUT  =  400.0 eV  29.40 Ry    5.42 a.u.  10.60 10.60 10.48*2*pi/ulx,y,z
   ENINI  =  400.0     initial cutoff
   ENAUG  =  758.2 eV  augmentation charge cutoff
   NELM   =     60;   NELMIN=  2; NELMDL=  0     # of ELM steps 
   EDIFF  = 0.1E-04   stopping-criterion for ELM
   LREAL  =      F    real-space projection
   NLSPLINE    = F    spline interpolate recip. space projectors
   LCOMPAT=      F    compatible to vasp.4.4
   GGA_COMPAT  = T    GGA compatible to vasp.4.4-vasp.4.6
   LMAXPAW     = -100 max onsite density
   LMAXMIX     =    2 max onsite mixed and CHGCAR
   VOSKOWN=      0    Vosko Wilk Nusair interpolation
   ROPT   =    0.00000   0.00000   0.00000
 Ionic relaxation
   EDIFFG = 0.1E-03   stopping-criterion for IOM
   NSW    =      0    number of steps for IOM
   NBLOCK =      1;   KBLOCK =      1    inner block; outer block 
   IBRION =     -1    ionic relax: 0-MD 1-quasi-New 2-CG
   NFREE  =      0    steps in history (QN), initial steepest desc. (CG)
   ISIF   =      0    stress and relaxation
   IWAVPR =     10    prediction:  0-non 1-charg 2-wave 3-comb
   ISYM   =      3    0-nonsym 1-usesym 2-fastsym
   LCORR  =      T    Harris-Foulkes like correction to forces

   POTIM  = 0.5000    time-step for ionic-motion
   TEIN   =    0.0    initial temperature
   TEBEG  =    0.0;   TEEND  =   0.0 temperature during run
   SMASS  =  -3.00    Nose mass-parameter (am)
   estimated Nose-frequenzy (Omega)   =  0.10E-29 period in steps =****** mass=  -0.966E-27a.u.
   SCALEE = 1.0000    scale energy and forces
   NPACO  =    256;   APACO  = 16.0  distance and # of slots for P.C.
   PSTRESS=    0.0 pullay stress

  Mass of Ions in am
   POMASS =  63.55 72.61 32.07
  Ionic Valenz
   ZVAL   =  17.00  4.00  6.00
  Atomic Wigner-Seitz radii
   RWIGS  =  -1.00 -1.00 -1.00
  virtual crystal weights 
   VCA    =   1.00  1.00  1.00
   NELECT =     112.0000    total number of electrons
   NUPDOWN=      -1.0000    fix difference up-down

 DOS related values:
   EMIN   =  10.00;   EMAX   =-10.00  energy-range for DOS
   EFERMI =   0.00
   ISMEAR =     1;   SIGMA  =   0.10  broadening in eV -4-tet -1-fermi 0-gaus

 Electronic relaxation 2 (details)
   IALGO  =     53    algorithm
   LDIAG  =      T    sub-space diagonalisation (order eigenvalues)
   LSUBROT=      T    optimize rotation matrix (better conditioning)
   TURBO    =      0    0=normal 1=particle mesh
   IRESTART =      0    0=no restart 2=restart with 2 vectors
   NREBOOT  =      0    no. of reboots
   NMIN     =      0    reboot dimension
   EREF     =   0.00    reference energy to select bands
   IMIX   =      4    mixing-type and parameters
     AMIX     =   0.40;   BMIX     =  1.00
     AMIX_MAG =   1.60;   BMIX_MAG =  1.00
     AMIN     =   0.10
     WC   =   100.;   INIMIX=   1;  MIXPRE=   1;  MAXMIX= -45

 Intra band minimization:
   WEIMIN = 0.0000     energy-eigenvalue tresh-hold
   EBREAK =  0.31E-07  absolut break condition
   DEPER  =   0.30     relativ break condition  

   TIME   =   0.40     timestep for ELM

  volume/ion in A,a.u.               =      18.49       124.79
  Fermi-wavevector in a.u.,A,eV,Ry     =   1.303450  2.463163 23.116052  1.698982
  Thomas-Fermi vector in A             =   2.434451
 
 Write flags
   LWAVE  =      T    write WAVECAR
   LCHARG =      T    write CHGCAR
   LVTOT  =      F    write LOCPOT, total local potential
   LVHAR  =      F    write LOCPOT, Hartree potential only
   LELF   =      F    write electronic localiz. function (ELF)
   LORBIT =      0    0 simple, 1 ext, 2 COOP (PROOUT)


 Dipole corrections
   LMONO  =      F    monopole corrections only (constant potential shift)
   LDIPOL =      F    correct potential (dipole corrections)
   IDIPOL =      0    1-x, 2-y, 3-z, 4-all directions 
   EPSILON=  1.0000000 bulk dielectric constant

 Exchange correlation treatment:
   GGA     =    PE    GGA type
   LEXCH   =     8    internal setting for exchange type
   VOSKOWN=      0    Vosko Wilk Nusair interpolation
   EXXOEP  =     0    0=HF, 1=EXX-LHF (local Hartree Fock) 2=EXX OEP
   LHFCALC =     T    Hartree Fock is set to
   LSYMGRAD=     F    symmetrize gradient (conserves proper symmetry)
   PRECFOCK=fast      Normal, Fast or Accurate (Low or Medium for compatibility)
   LRHFCALC=     F    long range Hartree Fock
   LRSCOR  =     F    long range correlation only (use DFT for short range part)
   LTHOMAS =     F    Thomas Fermi screening in HF
   LMODELHF=     F    short range full HF, long range fraction AEXX
   ENCUT4O =  -1.0   cutoff for four orbital integrals eV
   LMAXFOCK=     4    L truncation for augmentation on plane wave grid
   LMAXFOCKAE=  -1    L truncation for all-electron charge restoration on plane wave grid
   NMAXFOCKAE=   1    number of basis functions for all-electron charge restoration
   LFOCKAEDFT=     F  apply the AE augmentation even for DFT
   NKREDX  =     1    reduce k-point grid by
   NKREDY  =     1    reduce k-point grid by
   NKREDZ  =     1    reduce k-point grid by
   SHIFTRED=     F    shift reduced grid of Gamma
   HFKIDENT=     F    idential grid for each k-point
   ODDONLY =     F    use only odd q-grid points
   EVENONLY=     F    use only even q-grid points
   HFALPHA =   -1.0000 decay constant for conv. correction
   MCALPHA =    0.0000 extent of test-charge in conv. correction in multipole expansion
   AEXX    =    0.2500 exact exchange contribution
   HFSCREEN=    0.2000 screening length (either q_TF or 0.3 A-1)
   HFSCREENC=   0.2000 screening length for correlation (either q_TF or 0.3 A-1)
   HFRCUT  =    0.0000 spherical cutoff for potential kernel
   ALDAX   =    0.7500 LDA exchange part
   AGGAX   =    0.7500 GGA exchange part
   ALDAC   =    1.0000 LDA correlation
   AGGAC   =    1.0000 GGA correlation
   NBANDSGWLOW=     1    first orbital included in HF term
 Linear response parameters
   LEPSILON=     F    determine dielectric tensor
   LRPA    =     F    only Hartree local field effects (RPA)
   LNABLA  =     F    use nabla operator in PAW spheres
   LVEL    =     F    velocity operator in full k-point grid
   LINTERFAST=   F  fast interpolation
   KINTER  =     0    interpolate to denser k-point grid
   CSHIFT  =0.1000    complex shift for real part using Kramers Kronig
   OMEGAMAX=  -1.0    maximum frequency
   DEG_THRESHOLD= 0.2000000E-02 threshold for treating states as degnerate
   RTIME   =    0.100 relaxation time in fs

 Orbital magnetization related:
   ORBITALMAG=     F  switch on orbital magnetization
   LCHIMAG   =     F  perturbation theory with respect to B field
   DQ        =  0.001000  dq finite difference perturbation B field



--------------------------------------------------------------------------------------------------------


 Static calculation
 charge density and potential will be updated during run
 non-spin polarized calculation
 Conjugate gradient for all bands, subspace preconditioning
 perform sub-space diagonalisation
    before iterative eigenvector-optimisation
 modified Broyden-mixing scheme, WC =      100.0
 initial mixing is a Kerker type mixing with AMIX =  0.4000 and BMIX =      1.0000
 Hartree-type preconditioning will be used
 using additional bands           24
 reciprocal scheme for non local part
 use partial core corrections
 no Harris-corrections to forces 
 use gradient corrections 
 use of overlap-Matrix (Vanderbilt PP)
 Methfessel and Paxton  Order N= 1 SIGMA  =   0.10


--------------------------------------------------------------------------------------------------------


  energy-cutoff  :      400.00
  volume of cell :      221.90
      direct lattice vectors                 reciprocal lattice vectors
     3.224796000 -5.643830000  0.031572000     0.154525165 -0.088592321  0.053460880
     3.224796000  5.643830000  0.031572000     0.154525165  0.088592321  0.053460880
    -2.101946000  0.000000000  6.075537000    -0.001606004  0.000000000  0.164038877

  length of vectors
     6.500240234  6.500240234  6.428866683     0.185969598  0.185969598  0.164046738


 
 old parameters found on file WAVECAR:
  energy-cutoff  :      400.00
  volume of cell :      222.35
      direct lattice vectors                 reciprocal lattice vectors
     3.227235519 -5.642745207  0.030241751     0.154430495 -0.088609353  0.053450002
     3.227235519  5.642745207  0.030241751     0.154430495  0.088609353  0.053450002
    -2.106135241  0.000000000  6.085154262    -0.001534965  0.000000000  0.163803104

  length of vectors

 
 k-points in units of 2pi/SCALE and weight: pymatgen 4.7.6+ generated KPOINTS with g
   0.00000000  0.00000000  0.00000000       0.013
   0.03863129 -0.02214808  0.01336522       0.025
   0.07726258 -0.04429616  0.02673044       0.013
   0.03863129  0.02214808  0.01336522       0.025
   0.07726258  0.00000000  0.02673044       0.025
   0.11589387 -0.02214808  0.04009566       0.025
   0.00000000  0.04429616  0.00000000       0.025
   0.07726258  0.04429616  0.02673044       0.013
   0.11589387  0.02214808  0.04009566       0.025
   0.15452516  0.00000000  0.05346088       0.013
  -0.00032120  0.00000000  0.03280778       0.025
   0.03831009 -0.02214808  0.04617300       0.025
   0.07694138 -0.04429616  0.05953822       0.025
  -0.03895249  0.02214808  0.01944256       0.025
   0.03831009  0.02214808  0.04617300       0.025
   0.07694138  0.00000000  0.05953822       0.025
   0.11557267 -0.02214808  0.07290344       0.025
  -0.00032120  0.04429616  0.03280778       0.025
   0.07694138  0.04429616  0.05953822       0.025
   0.11557267  0.02214808  0.07290344       0.025
   0.15420396  0.00000000  0.08626865       0.025
   0.03831009  0.06644424  0.04617300       0.025
  -0.03895249 -0.02214808  0.01944256       0.025
  -0.00032120 -0.04429616  0.03280778       0.025
   0.03831009 -0.06644424  0.04617300       0.025
  -0.07758378  0.00000000  0.00607734       0.025
  -0.00064240  0.00000000  0.06561555       0.025
   0.03798889 -0.02214808  0.07898077       0.025
   0.07662018 -0.04429616  0.09234599       0.025
  -0.03927369  0.02214808  0.05225033       0.025
   0.03798889  0.02214808  0.07898077       0.025
   0.07662018  0.00000000  0.09234599       0.025
   0.11525147 -0.02214808  0.10571121       0.025
  -0.00064240  0.04429616  0.06561555       0.025
   0.07662018  0.04429616  0.09234599       0.025
   0.11525147  0.02214808  0.10571121       0.025
   0.15388276  0.00000000  0.11907643       0.025
   0.03798889  0.06644424  0.07898077       0.025
  -0.03927369 -0.02214808  0.05225033       0.025
  -0.00064240 -0.04429616  0.06561555       0.025
   0.03798889 -0.06644424  0.07898077       0.025
  -0.07790498  0.00000000  0.03888511       0.025
 
 k-points in reciprocal lattice and weights: pymatgen 4.7.6+ generated KPOINTS with g
   0.00000000  0.00000000  0.00000000       0.013
   0.25000000  0.00000000  0.00000000       0.025
   0.50000000  0.00000000  0.00000000       0.013
   0.00000000  0.25000000  0.00000000       0.025
   0.25000000  0.25000000  0.00000000       0.025
   0.50000000  0.25000000 -0.00000000       0.025
  -0.25000000  0.25000000  0.00000000       0.025
   0.00000000  0.50000000  0.00000000       0.013
   0.25000000  0.50000000 -0.00000000       0.025
   0.50000000  0.50000000  0.00000000       0.013
  -0.00000000 -0.00000000  0.20000000       0.025
   0.25000000  0.00000000  0.20000000       0.025
   0.50000000  0.00000000  0.20000000       0.025
  -0.25000000 -0.00000000  0.20000000       0.025
   0.00000000  0.25000000  0.20000000       0.025
   0.25000000  0.25000000  0.20000000       0.025
   0.50000000  0.25000000  0.20000000       0.025
  -0.25000000  0.25000000  0.20000000       0.025
   0.00000000  0.50000000  0.20000000       0.025
   0.25000000  0.50000000  0.20000000       0.025
   0.50000000  0.50000000  0.20000000       0.025
  -0.25000000  0.50000000  0.20000000       0.025
  -0.00000000 -0.25000000  0.20000000       0.025
   0.25000000 -0.25000000  0.20000000       0.025
   0.50000000 -0.25000000  0.20000000       0.025
  -0.25000000 -0.25000000  0.20000000       0.025
  -0.00000000 -0.00000000  0.40000000       0.025
   0.25000000  0.00000000  0.40000000       0.025
   0.50000000  0.00000000  0.40000000       0.025
  -0.25000000  0.00000000  0.40000000       0.025
   0.00000000  0.25000000  0.40000000       0.025
   0.25000000  0.25000000  0.40000000       0.025
   0.50000000  0.25000000  0.40000000       0.025
  -0.25000000  0.25000000  0.40000000       0.025
   0.00000000  0.50000000  0.40000000       0.025
   0.25000000  0.50000000  0.40000000       0.025
   0.50000000  0.50000000  0.40000000       0.025
  -0.25000000  0.50000000  0.40000000       0.025
   0.00000000 -0.25000000  0.40000000       0.025
   0.25000000 -0.25000000  0.40000000       0.025
   0.50000000 -0.25000000  0.40000000       0.025
  -0.25000000 -0.25000000  0.40000000       0.025
 
 position of ions in fractional coordinates (direct lattice) 
   0.61844300  0.12117100  0.11953300
   0.12117100  0.61844300  0.61953300
   0.96295700  0.79032200  0.11881300
   0.79032200  0.96295700  0.61881300
   0.43973200  0.26728100  0.59904700
   0.26728100  0.43973200  0.09904700
   0.07795960  0.91167500  0.49736300
   0.57140300  0.41236400  0.98018400
   0.73711100  0.25006200  0.49504900
   0.41236400  0.57140300  0.48018400
   0.91167500  0.07949800  0.99736300
   0.25006200  0.73711100  0.99504900
 
 position of ions in cartesian coordinates  (Angst):
   2.13385236 -2.80651863  0.74957826
   1.08287936  2.80651863  3.78734676
   5.40422860 -0.97432259  0.77720730
   4.35325560  0.97432259  3.81497580
   1.02080825 -0.97328413  3.66185403
   2.07178125  0.97328413  0.62408553
   2.14593952  4.70534801  3.05299205
   1.11215405 -0.89758908  5.98620365
   2.14286528 -2.74882176  3.03885554
   2.16312705  0.89758908  2.94843515
   1.09992756 -4.69666552  6.09080912
   1.09189228  2.74882176  6.07662404
 


--------------------------------------------------------------------------------------------------------


 k-point  1 :   0.0000 0.0000 0.0000  plane waves:    4051
 k-point  2 :   0.2500 0.0000 0.0000  plane waves:    4032
 k-point  3 :   0.5000 0.0000 0.0000  plane waves:    4030
 k-point  4 :   0.0000 0.2500 0.0000  plane waves:    4032
 k-point  5 :   0.2500 0.2500 0.0000  plane waves:    4038
 k-point  6 :   0.5000 0.2500-0.0000  plane waves:    4037
 k-point  7 :  -0.2500 0.2500 0.0000  plane waves:    4042
 k-point  8 :   0.0000 0.5000 0.0000  plane waves:    4030
 k-point  9 :   0.2500 0.5000-0.0000  plane waves:    4037
 k-point 10 :   0.5000 0.5000 0.0000  plane waves:    4026
 k-point 11 :  -0.0000-0.0000 0.2000  plane waves:    4046
 k-point 12 :   0.2500 0.0000 0.2000  plane waves:    4034
 k-point 13 :   0.5000 0.0000 0.2000  plane waves:    4025
 k-point 14 :  -0.2500-0.0000 0.2000  plane waves:    4044
 k-point 15 :   0.0000 0.2500 0.2000  plane waves:    4034
 k-point 16 :   0.2500 0.2500 0.2000  plane waves:    4017
 k-point 17 :   0.5000 0.2500 0.2000  plane waves:    4039
 k-point 18 :  -0.2500 0.2500 0.2000  plane waves:    4042
 k-point 19 :   0.0000 0.5000 0.2000  plane waves:    4025
 k-point 20 :   0.2500 0.5000 0.2000  plane waves:    4039
 k-point 21 :   0.5000 0.5000 0.2000  plane waves:    4030
 k-point 22 :  -0.2500 0.5000 0.2000  plane waves:    4030
 k-point 23 :  -0.0000-0.2500 0.2000  plane waves:    4044
 k-point 24 :   0.2500-0.2500 0.2000  plane waves:    4042
 k-point 25 :   0.5000-0.2500 0.2000  plane waves:    4030
 k-point 26 :  -0.2500-0.2500 0.2000  plane waves:    4020
 k-point 27 :  -0.0000-0.0000 0.4000  plane waves:    4027
 k-point 28 :   0.2500 0.0000 0.4000  plane waves:    4034
 k-point 29 :   0.5000 0.0000 0.4000  plane waves:    4013
 k-point 30 :  -0.2500 0.0000 0.4000  plane waves:    4042
 k-point 31 :   0.0000 0.2500 0.4000  plane waves:    4034
 k-point 32 :   0.2500 0.2500 0.4000  plane waves:    4009
 k-point 33 :   0.5000 0.2500 0.4000  plane waves:    4026
 k-point 34 :  -0.2500 0.2500 0.4000  plane waves:    4027
 k-point 35 :   0.0000 0.5000 0.4000  plane waves:    4013
 k-point 36 :   0.2500 0.5000 0.4000  plane waves:    4026
 k-point 37 :   0.5000 0.5000 0.4000  plane waves:    4037
 k-point 38 :  -0.2500 0.5000 0.4000  plane waves:    4022
 k-point 39 :   0.0000-0.2500 0.4000  plane waves:    4042
 k-point 40 :   0.2500-0.2500 0.4000  plane waves:    4027
 k-point 41 :   0.5000-0.2500 0.4000  plane waves:    4022
 k-point 42 :  -0.2500-0.2500 0.4000  plane waves:    4015

 maximum and minimum number of plane-waves per node :      4051     4009

 maximum number of plane-waves:      4051
 maximum index in each direction: 
   IXMAX=   10   IYMAX=   10   IZMAX=   10
   IXMIN=  -11   IYMIN=  -11   IZMIN=  -10

 WARNING: aliasing errors must be expected set NGX to  44 to avoid them
 WARNING: aliasing errors must be expected set NGY to  44 to avoid them
 WARNING: aliasing errors must be expected set NGZ to  42 to avoid them
 aliasing errors are usually negligible using standard VASP settings
 and one can safely disregard these warnings

 serial   3D FFT for wavefunctions
 parallel 3D FFT for charge:
    minimum data exchange during FFTs selected (reduces bandwidth)


 FFT grid for exact exchange (Hartree Fock) 
  NGX = 24; NGY = 24; NGZ = 24

 
 Radii for the augmentation spheres in the non-local exchange
 for species   1 augmentation radius   1.120 (default was   0.830)
       energy cutoff for augmentation   1600.0
 for species   2 augmentation radius   1.570 (default was   1.163)
       energy cutoff for augmentation   1600.0
 for species   3 augmentation radius   1.034 (default was   0.970)
       energy cutoff for augmentation   1600.0

 total amount of memory used by VASP on root node   151697. kBytes
========================================================================

   base      :      30000. kBytes
   nonl-proj :      74517. kBytes
   fftplans  :        702. kBytes
   grid      :       2400. kBytes
   one-center:        186. kBytes
   HF        :        194. kBytes
   nonlr-proj:       1122. kBytes
   wavefun   :      42576. kBytes
 
 Broyden mixing: mesh for mixing (old mesh)
   NGX = 21   NGY = 21   NGZ = 21
  (NGX  = 64   NGY  = 64   NGZ  = 64)
  gives a total of   9261 points

 charge density for first step will be calculated from the start-wavefunctions


--------------------------------------------------------------------------------------------------------


 Maximum index for augmentation-charges          485 (set IRDMAX)


--------------------------------------------------------------------------------------------------------


 initial charge from wavefunction
 First call to EWALD:  gamma=   0.293
 Maximum number of real-space cells 3x 3x 3
 Maximum number of reciprocal cells 3x 3x 3

 FEWALD executed in parallel
    FEWALD:  cpu time    0.00: real time    0.00


----------------------------------------- Iteration    1(   1)  ---------------------------------------


    POTLOK:  cpu time    0.05: real time    0.05
    SETDIJ:  cpu time    1.86: real time    1.87
 
    SUBROT:  cpu time    0.92: real time    0.92
    SUBROT:  cpu time    0.44: real time    0.44
    SUBROT:  cpu time    0.43: real time    0.43
    SUBROT:  cpu time    0.43: real time    0.43
    --------------------------------------------
    SUBRT+:  cpu time    2.22: real time    2.23

 Broyden mixing:
  rms(total) = 0.10379E-01    rms(broyden)= 0.10374E-01
  rms(prec ) = 0.18843E-01
  weight for this iteration     100.00

 eigenvalues of (default mixing * dielectric matrix)
  average eigenvalue GAMMA=   1.5885
  2.4457  0.8641  1.4556
 
    TRIAL :  cpu time  246.36: real time  246.15
    CORREC:  cpu time    0.00: real time    0.00
    CHARGE:  cpu time    0.05: real time    0.06
    --------------------------------------------
      LOOP:  cpu time  248.35: real time  248.14

 eigenvalue-minimisations  :     0
 total energy-change (2. order) : 0.7554044E+02  (-0.2132238E+03)
 number of electron     112.0001479 magnetization 
 augmentation part       38.9119856 magnetization 

 Free energy of the ion-electron system (eV)
  ---------------------------------------------------
  alpha Z        PSCENC =       339.31929130
  Ewald energy   TEWEN  =     -9064.06463612
  -1/2 Hartree   DENC   =     -8067.44731597
  -exchange  EXHF       =       327.44906254
  -V(xc)+E(xc)   XCENC  =       369.90396503
  PAW double counting   =     16899.28072424   -17392.09339670
  entropy T*S    EENTRO =        -0.00146641
  eigenvalues    EBANDS =     -1657.79093390
  atomic energy  EATOM  =     18320.98302006
  ---------------------------------------------------
  free energy    TOTEN  =        75.54044376 eV

  energy without entropy =       75.54191017  energy(sigma->0) =       75.54093257


--------------------------------------------------------------------------------------------------------




----------------------------------------- Iteration    1(   2)  ---------------------------------------


    POTLOK:  cpu time    0.05: real time    0.05
    SETDIJ:  cpu time    1.87: real time    1.87
 
    SUBROT:  cpu time    0.89: real time    0.89
    SUBROT:  cpu time    0.44: real time    0.44
    SUBROT:  cpu time    0.43: real time    0.44
    SUBROT:  cpu time    0.44: real time    0.44
    --------------------------------------------
    SUBRT+:  cpu time    2.21: real time    2.22

 Broyden mixing:
  rms(total) = 0.27745E-01    rms(broyden)= 0.27736E-01
  rms(prec ) = 0.50866E-01
  weight for this iteration     100.00

 eigenvalues of (default mixing * dielectric matrix)
  average eigenvalue GAMMA=   1.5571
  2.5472  1.2661  0.8581
 
    TRIAL :  cpu time  250.52: real time  250.30
    CORREC:  cpu time    0.00: real time    0.00
    CHARGE:  cpu time    0.06: real time    0.06
    --------------------------------------------
      LOOP:  cpu time  252.50: real time  252.30

 eigenvalue-minimisations  :     0
 total energy-change (2. order) :-0.8391449E+02  (-0.1469062E+03)
 number of electron     112.0001384 magnetization 
 augmentation part       35.4529884 magnetization 

 Free energy of the ion-electron system (eV)
  ---------------------------------------------------
  alpha Z        PSCENC =       339.31929130
  Ewald energy   TEWEN  =     -9064.06463612
  -1/2 Hartree   DENC   =     -8371.06158750
  -exchange  EXHF       =       338.95811483
  -V(xc)+E(xc)   XCENC  =       377.32487631
  PAW double counting   =     17402.12714841   -17941.28945760
  entropy T*S    EENTRO =        -0.00068285
  eigenvalues    EBANDS =     -1410.66934587
  atomic energy  EATOM  =     18320.98302006
  ---------------------------------------------------
  free energy    TOTEN  =        -8.37404258 eV

  energy without entropy =       -8.37335973  energy(sigma->0) =       -8.37381497


--------------------------------------------------------------------------------------------------------




----------------------------------------- Iteration    1(   3)  ---------------------------------------


    POTLOK:  cpu time    0.05: real time    0.05
    SETDIJ:  cpu time    1.89: real time    1.88
 
    SUBROT:  cpu time    0.95: real time    0.96
    SUBROT:  cpu time    0.43: real time    0.43
    SUBROT:  cpu time    0.44: real time    0.44
    SUBROT:  cpu time    0.43: real time    0.43
    --------------------------------------------
    SUBRT+:  cpu time    2.26: real time    2.27

 Broyden mixing:
  rms(total) = 0.28212E-01    rms(broyden)= 0.28201E-01
  rms(prec ) = 0.52530E-01
  weight for this iteration     100.00

 eigenvalues of (default mixing * dielectric matrix)
  average eigenvalue GAMMA=   1.7738
  1.0115  2.4991  1.8108
 
    TRIAL :  cpu time  249.82: real time  249.60
    CORREC:  cpu time    0.00: real time    0.00
    CHARGE:  cpu time    0.06: real time    0.06
    --------------------------------------------
      LOOP:  cpu time  251.82: real time  251.60

 eigenvalue-minimisations  :     0
 total energy-change (2. order) :-0.6793450E+01  (-0.2034216E+03)
 number of electron     112.0001509 magnetization 
 augmentation part       39.6844969 magnetization 

 Free energy of the ion-electron system (eV)
  ---------------------------------------------------
  alpha Z        PSCENC =       339.31929130
  Ewald energy   TEWEN  =     -9064.06463612
  -1/2 Hartree   DENC   =     -7478.31759971
  -exchange  EXHF       =       324.98258872
  -V(xc)+E(xc)   XCENC  =       357.39019707
  PAW double counting   =     15150.25794346   -15579.69188785
  entropy T*S    EENTRO =         0.00023881
  eigenvalues    EBANDS =     -2386.02572628
  atomic energy  EATOM  =     18320.98302006
  ---------------------------------------------------
  free energy    TOTEN  =       -15.16749220 eV

  energy without entropy =      -15.16773102  energy(sigma->0) =      -15.16757181


--------------------------------------------------------------------------------------------------------




----------------------------------------- Iteration    1(   4)  ---------------------------------------


    POTLOK:  cpu time    0.05: real time    0.10
    SETDIJ:  cpu time    1.69: real time    1.87
 
    SUBROT:  cpu time    0.93: real time    0.93
    SUBROT:  cpu time    0.44: real time    0.44
    SUBROT:  cpu time    0.45: real time    0.45
    SUBROT:  cpu time    0.43: real time    0.43
    SUBROT:  cpu time    0.45: real time    0.45
    --------------------------------------------
    SUBRT+:  cpu time    2.69: real time    2.70

 Broyden mixing:
  rms(total) = 0.11156E+00    rms(broyden)= 0.11138E+00
  rms(prec ) = 0.19689E+00
  weight for this iteration     100.00

 eigenvalues of (default mixing * dielectric matrix)
  average eigenvalue GAMMA=   1.2753
  2.6213  1.4136  0.6753  0.3910
 
    TRIAL :  cpu time  254.50: real time  254.29
    CORREC:  cpu time    0.00: real time    0.00
    CHARGE:  cpu time    0.07: real time    0.07
    --------------------------------------------
      LOOP:  cpu time  256.32: real time  256.33

 eigenvalue-minimisations  :     0
 total energy-change (2. order) :-0.7484947E+01  (-0.1073574E+03)
 number of electron     112.0001430 magnetization 
 augmentation part       37.2448565 magnetization 

 Free energy of the ion-electron system (eV)
  ---------------------------------------------------
  alpha Z        PSCENC =       339.31929130
  Ewald energy   TEWEN  =     -9064.06463612
  -1/2 Hartree   DENC   =     -8544.14971292
  -exchange  EXHF       =       342.99406836
  -V(xc)+E(xc)   XCENC  =       381.65643192
  PAW double counting   =     17633.16173399   -18213.89926722
  entropy T*S    EENTRO =         0.00035806
  eigenvalues    EBANDS =     -1218.65360736
  atomic energy  EATOM  =     18320.98302006
  ---------------------------------------------------
  free energy    TOTEN  =       -22.65243918 eV

  energy without entropy =      -22.65279724  energy(sigma->0) =      -22.65255853


--------------------------------------------------------------------------------------------------------




----------------------------------------- Iteration    1(   5)  ---------------------------------------


    POTLOK:  cpu time    0.05: real time    0.05
    SETDIJ:  cpu time    1.87: real time    1.87
 
    SUBROT:  cpu time    0.95: real time    0.95
    SUBROT:  cpu time    0.44: real time    0.44
    SUBROT:  cpu time    0.45: real time    0.45
    SUBROT:  cpu time    0.45: real time    0.45
    --------------------------------------------
    SUBRT+:  cpu time    2.29: real time    2.30

 Broyden mixing:
  rms(total) = 0.42756E-01    rms(broyden)= 0.42747E-01
  rms(prec ) = 0.87815E-01
  weight for this iteration     100.00

 eigenvalues of (default mixing * dielectric matrix)
  average eigenvalue GAMMA=   1.6809
  2.4644  0.9357  1.6426
 
    TRIAL :  cpu time  253.24: real time  253.03
    CORREC:  cpu time    0.00: real time    0.00
    CHARGE:  cpu time    0.05: real time    0.05
    --------------------------------------------
      LOOP:  cpu time  255.22: real time  255.01

 eigenvalue-minimisations  :     0
 total energy-change (2. order) :-0.3817734E+02  (-0.1504449E+02)
 number of electron     112.0001429 magnetization 
 augmentation part       37.2474803 magnetization 

 Free energy of the ion-electron system (eV)
  ---------------------------------------------------
  alpha Z        PSCENC =       339.31929130
  Ewald energy   TEWEN  =     -9064.06463612
  -1/2 Hartree   DENC   =     -8009.47482192
  -exchange  EXHF       =       336.39069288
  -V(xc)+E(xc)   XCENC  =       368.40681353
  PAW double counting   =     15870.88736765   -16340.35681190
  entropy T*S    EENTRO =         0.00062669
  eigenvalues    EBANDS =     -1882.92105054
  atomic energy  EATOM  =     18320.98302006
  ---------------------------------------------------
  free energy    TOTEN  =       -60.82977698 eV

  energy without entropy =      -60.83040368  energy(sigma->0) =      -60.82998588


--------------------------------------------------------------------------------------------------------




----------------------------------------- Iteration    1(   6)  ---------------------------------------


    POTLOK:  cpu time    0.06: real time    0.06
    SETDIJ:  cpu time    1.87: real time    1.87
 
    SUBROT:  cpu time    0.91: real time    0.91
    SUBROT:  cpu time    0.44: real time    0.44
    SUBROT:  cpu time    0.45: real time    0.45
    SUBROT:  cpu time    0.45: real time    0.45
    --------------------------------------------
    SUBRT+:  cpu time    2.25: real time    2.26

 Broyden mixing:
  rms(total) = 0.27361E-02    rms(broyden)= 0.27354E-02
  rms(prec ) = 0.45565E-02
  weight for this iteration     100.00

 eigenvalues of (default mixing * dielectric matrix)
  average eigenvalue GAMMA=   1.8210
  1.0153  2.5253  1.9223
 
    TRIAL :  cpu time  254.36: real time  254.14
    CORREC:  cpu time    0.00: real time    0.00
    CHARGE:  cpu time    0.05: real time    0.05
    --------------------------------------------
      LOOP:  cpu time  256.35: real time  256.13

 eigenvalue-minimisations  :     0
 total energy-change (2. order) :-0.5116626E+01  (-0.8146164E+01)
 number of electron     112.0001459 magnetization 
 augmentation part       38.2264060 magnetization 

 Free energy of the ion-electron system (eV)
  ---------------------------------------------------
  alpha Z        PSCENC =       339.31929130
  Ewald energy   TEWEN  =     -9064.06463612
  -1/2 Hartree   DENC   =     -8002.85865484
  -exchange  EXHF       =       337.15839255
  -V(xc)+E(xc)   XCENC  =       368.79559268
  PAW double counting   =     15772.24043499   -16241.27152791
  entropy T*S    EENTRO =         0.00064355
  eigenvalues    EBANDS =     -1896.24894204
  atomic energy  EATOM  =     18320.98302006
  ---------------------------------------------------
  free energy    TOTEN  =       -65.94640265 eV

  energy without entropy =      -65.94704619  energy(sigma->0) =      -65.94661716


--------------------------------------------------------------------------------------------------------




----------------------------------------- Iteration    1(   7)  ---------------------------------------


    POTLOK:  cpu time    0.05: real time    0.05
    SETDIJ:  cpu time    1.87: real time    1.87
 
    SUBROT:  cpu time    0.91: real time    0.91
    SUBROT:  cpu time    0.44: real time    0.44
    SUBROT:  cpu time    0.42: real time    0.42
    SUBROT:  cpu time    0.43: real time    0.43
    --------------------------------------------
    SUBRT+:  cpu time    2.19: real time    2.21

 Broyden mixing:
  rms(total) = 0.13146E-01    rms(broyden)= 0.13142E-01
  rms(prec ) = 0.23293E-01
  weight for this iteration     100.00

 eigenvalues of (default mixing * dielectric matrix)
  average eigenvalue GAMMA=   1.6263
  2.5028  0.8944  1.4818
 
    TRIAL :  cpu time  255.10: real time  254.89
    CORREC:  cpu time    0.00: real time    0.00
    CHARGE:  cpu time    0.05: real time    0.05
    --------------------------------------------
      LOOP:  cpu time  257.08: real time  256.88

 eigenvalue-minimisations  :     0
 total energy-change (2. order) :-0.1534828E+01  (-0.4121057E+01)
 number of electron     112.0001442 magnetization 
 augmentation part       37.7056983 magnetization 

 Free energy of the ion-electron system (eV)
  ---------------------------------------------------
  alpha Z        PSCENC =       339.31929130
  Ewald energy   TEWEN  =     -9064.06463612
  -1/2 Hartree   DENC   =     -8244.02770651
  -exchange  EXHF       =       341.61692126
  -V(xc)+E(xc)   XCENC  =       374.55329512
  PAW double counting   =     16206.22688469   -16709.50217297
  entropy T*S    EENTRO =         0.00041842
  eigenvalues    EBANDS =     -1632.58677135
  atomic energy  EATOM  =     18320.98302006
  ---------------------------------------------------
  free energy    TOTEN  =       -67.48123098 eV

  energy without entropy =      -67.48164940  energy(sigma->0) =      -67.48137045


--------------------------------------------------------------------------------------------------------




----------------------------------------- Iteration    1(   8)  ---------------------------------------


    POTLOK:  cpu time    0.07: real time    0.07
    SETDIJ:  cpu time    1.87: real time    1.87
 
    SUBROT:  cpu time    0.91: real time    0.91
    SUBROT:  cpu time    0.44: real time    0.44
    SUBROT:  cpu time    0.46: real time    0.46
    SUBROT:  cpu time    0.45: real time    0.45
    --------------------------------------------
    SUBRT+:  cpu time    2.26: real time    2.28

 Broyden mixing:
  rms(total) = 0.83344E-02    rms(broyden)= 0.83319E-02
  rms(prec ) = 0.13968E-01
  weight for this iteration     100.00

 eigenvalues of (default mixing * dielectric matrix)
  average eigenvalue GAMMA=   1.6766
  2.4560  0.9473  1.6264
 
    TRIAL :  cpu time  254.91: real time  254.70
    CORREC:  cpu time    0.00: real time    0.00
    CHARGE:  cpu time    0.08: real time    0.08
    --------------------------------------------
      LOOP:  cpu time  256.93: real time  256.72

 eigenvalue-minimisations  :     0
 total energy-change (2. order) :-0.1605274E+01  (-0.7689640E+00)
 number of electron     112.0001443 magnetization 
 augmentation part       37.7244658 magnetization 

 Free energy of the ion-electron system (eV)
  ---------------------------------------------------
  alpha Z        PSCENC =       339.31929130
  Ewald energy   TEWEN  =     -9064.06463612
  -1/2 Hartree   DENC   =     -8117.58158160
  -exchange  EXHF       =       339.52113900
  -V(xc)+E(xc)   XCENC  =       371.38362972
  PAW double counting   =     15915.67152944   -16397.03014779
  entropy T*S    EENTRO =         0.00070975
  eigenvalues    EBANDS =     -1777.28916740
  atomic energy  EATOM  =     18320.98302006
  ---------------------------------------------------
  free energy    TOTEN  =       -69.08650497 eV

  energy without entropy =      -69.08721472  energy(sigma->0) =      -69.08674155


--------------------------------------------------------------------------------------------------------




----------------------------------------- Iteration    1(   9)  ---------------------------------------


    POTLOK:  cpu time    0.06: real time    0.06
    SETDIJ:  cpu time    1.87: real time    1.87
 
    SUBROT:  cpu time    0.95: real time    0.96
    SUBROT:  cpu time    0.45: real time    0.45
    SUBROT:  cpu time    0.46: real time    0.46
    SUBROT:  cpu time    0.46: real time    0.46
    --------------------------------------------
    SUBRT+:  cpu time    2.32: real time    2.34

 Broyden mixing:
  rms(total) = 0.52229E-03    rms(broyden)= 0.52170E-03
  rms(prec ) = 0.82398E-03
  weight for this iteration     100.00

 eigenvalues of (default mixing * dielectric matrix)
  average eigenvalue GAMMA=   1.7035
  2.5253  1.0016  1.5834
 
    TRIAL :  cpu time  254.01: real time  253.80
    CORREC:  cpu time    0.00: real time    0.00
    CHARGE:  cpu time    0.06: real time    0.06
    --------------------------------------------
      LOOP:  cpu time  256.00: real time  255.79

 eigenvalue-minimisations  :     0
 total energy-change (2. order) :-0.3090647E+00  (-0.3850607E+00)
 number of electron     112.0001449 magnetization 
 augmentation part       37.9049062 magnetization 

 Free energy of the ion-electron system (eV)
  ---------------------------------------------------
  alpha Z        PSCENC =       339.31929130
  Ewald energy   TEWEN  =     -9064.06463612
  -1/2 Hartree   DENC   =     -8125.09992475
  -exchange  EXHF       =       339.59175174
  -V(xc)+E(xc)   XCENC  =       371.44470558
  PAW double counting   =     15911.82856865   -16393.10099195
  entropy T*S    EENTRO =         0.00083982
  eigenvalues    EBANDS =     -1770.29806396
  atomic energy  EATOM  =     18320.98302006
  ---------------------------------------------------
  free energy    TOTEN  =       -69.39556971 eV

  energy without entropy =      -69.39640953  energy(sigma->0) =      -69.39584965


--------------------------------------------------------------------------------------------------------




----------------------------------------- Iteration    1(  10)  ---------------------------------------


    POTLOK:  cpu time    0.05: real time    0.05
    SETDIJ:  cpu time    1.87: real time    1.87
 
    SUBROT:  cpu time    0.96: real time    0.96
    SUBROT:  cpu time    0.47: real time    0.47
    SUBROT:  cpu time    0.47: real time    0.47
    SUBROT:  cpu time    0.47: real time    0.47
    --------------------------------------------
    SUBRT+:  cpu time    2.37: real time    2.38

 Broyden mixing:
  rms(total) = 0.22864E-02    rms(broyden)= 0.22859E-02
  rms(prec ) = 0.38517E-02
  weight for this iteration     100.00

 eigenvalues of (default mixing * dielectric matrix)
  average eigenvalue GAMMA=   1.6883
  2.4747  0.9887  1.6015
 
    TRIAL :  cpu time  254.35: real time  254.13
    CORREC:  cpu time    0.00: real time    0.00
    CHARGE:  cpu time    0.07: real time    0.07
    --------------------------------------------
      LOOP:  cpu time  256.35: real time  256.14

 eigenvalue-minimisations  :     0
 total energy-change (2. order) :-0.1034602E+00  (-0.1518178E+00)
 number of electron     112.0001446 magnetization 
 augmentation part       37.8180021 magnetization 

 Free energy of the ion-electron system (eV)
  ---------------------------------------------------
  alpha Z        PSCENC =       339.31929130
  Ewald energy   TEWEN  =     -9064.06463612
  -1/2 Hartree   DENC   =     -8172.24544513
  -exchange  EXHF       =       340.39020445
  -V(xc)+E(xc)   XCENC  =       372.53640151
  PAW double counting   =     15993.27254548   -16481.25792120
  entropy T*S    EENTRO =         0.00067234
  eigenvalues    EBANDS =     -1718.43333009
  atomic energy  EATOM  =     18320.98302006
  ---------------------------------------------------
  free energy    TOTEN  =       -69.49902991 eV

  energy without entropy =      -69.49970225  energy(sigma->0) =      -69.49925402


--------------------------------------------------------------------------------------------------------




----------------------------------------- Iteration    1(  11)  ---------------------------------------


    POTLOK:  cpu time    0.05: real time    0.05
    SETDIJ:  cpu time    1.87: real time    1.87
 
    SUBROT:  cpu time    0.99: real time    0.99
    SUBROT:  cpu time    0.47: real time    0.47
    SUBROT:  cpu time    0.48: real time    0.48
    SUBROT:  cpu time    0.47: real time    0.47
    --------------------------------------------
    SUBRT+:  cpu time    2.41: real time    2.43

 Broyden mixing:
  rms(total) = 0.77734E-03    rms(broyden)= 0.77710E-03
  rms(prec ) = 0.15568E-02
  weight for this iteration     100.00

 eigenvalues of (default mixing * dielectric matrix)
  average eigenvalue GAMMA=   1.6750
  2.4940  0.9841  1.5468
 
    TRIAL :  cpu time  253.94: real time  253.73
    CORREC:  cpu time    0.00: real time    0.00
    CHARGE:  cpu time    0.09: real time    0.10
    --------------------------------------------
      LOOP:  cpu time  255.96: real time  255.76

 eigenvalue-minimisations  :     0
 total energy-change (2. order) :-0.6940563E-01  (-0.3687917E-01)
 number of electron     112.0001445 magnetization 
 augmentation part       37.7852994 magnetization 

 Free energy of the ion-electron system (eV)
  ---------------------------------------------------
  alpha Z        PSCENC =       339.31929130
  Ewald energy   TEWEN  =     -9064.06463612
  -1/2 Hartree   DENC   =     -8150.93001966
  -exchange  EXHF       =       340.06230102
  -V(xc)+E(xc)   XCENC  =       372.06443968
  PAW double counting   =     15941.44773517   -16426.40648502
  entropy T*S    EENTRO =         0.00057261
  eigenvalues    EBANDS =     -1742.04475430
  atomic energy  EATOM  =     18320.98302006
  ---------------------------------------------------
  free energy    TOTEN  =       -69.56843554 eV

  energy without entropy =      -69.56900815  energy(sigma->0) =      -69.56862641


--------------------------------------------------------------------------------------------------------




----------------------------------------- Iteration    1(  12)  ---------------------------------------


    POTLOK:  cpu time    0.05: real time    0.05
    SETDIJ:  cpu time    1.87: real time    1.87
 
    SUBROT:  cpu time    1.01: real time    1.01
    SUBROT:  cpu time    0.47: real time    0.47
    SUBROT:  cpu time    0.45: real time    0.45
    SUBROT:  cpu time    0.47: real time    0.47
    --------------------------------------------
    SUBRT+:  cpu time    2.41: real time    2.42

 Broyden mixing:
  rms(total) = 0.20734E-03    rms(broyden)= 0.20724E-03
  rms(prec ) = 0.45385E-03
  weight for this iteration     100.00

 eigenvalues of (default mixing * dielectric matrix)
  average eigenvalue GAMMA=   1.6541
  2.5052  0.9988  1.4582
 
    TRIAL :  cpu time  254.43: real time  254.22
    CORREC:  cpu time    0.00: real time    0.00
    CHARGE:  cpu time    0.08: real time    0.08
    --------------------------------------------
      LOOP:  cpu time  256.44: real time  256.23

 eigenvalue-minimisations  :     0
 total energy-change (2. order) :-0.1235455E-01  (-0.2276696E-01)
 number of electron     112.0001446 magnetization 
 augmentation part       37.8254815 magnetization 

 Free energy of the ion-electron system (eV)
  ---------------------------------------------------
  alpha Z        PSCENC =       339.31929130
  Ewald energy   TEWEN  =     -9064.06463612
  -1/2 Hartree   DENC   =     -8142.58006740
  -exchange  EXHF       =       339.94670060
  -V(xc)+E(xc)   XCENC  =       371.89019160
  PAW double counting   =     15919.72560213   -16403.60291064
  entropy T*S    EENTRO =         0.00052511
  eigenvalues    EBANDS =     -1751.19855423
  atomic energy  EATOM  =     18320.98302006
  ---------------------------------------------------
  free energy    TOTEN  =       -69.58079010 eV

  energy without entropy =      -69.58131520  energy(sigma->0) =      -69.58096513


--------------------------------------------------------------------------------------------------------




----------------------------------------- Iteration    1(  13)  ---------------------------------------


    POTLOK:  cpu time    0.06: real time    0.06
    SETDIJ:  cpu time    1.87: real time    1.87
 
    SUBROT:  cpu time    1.00: real time    1.00
    SUBROT:  cpu time    0.49: real time    0.49
    SUBROT:  cpu time    0.48: real time    0.48
    SUBROT:  cpu time    0.49: real time    0.49
    --------------------------------------------
    SUBRT+:  cpu time    2.46: real time    2.46

 Broyden mixing:
  rms(total) = 0.55407E-03    rms(broyden)= 0.55396E-03
  rms(prec ) = 0.94110E-03
  weight for this iteration     100.00

 eigenvalues of (default mixing * dielectric matrix)
  average eigenvalue GAMMA=   1.6961
  2.4798  0.9958  1.6128
 
    TRIAL :  cpu time  254.79: real time  254.57
    CORREC:  cpu time    0.00: real time    0.00
    CHARGE:  cpu time    0.09: real time    0.09
    --------------------------------------------
      LOOP:  cpu time  256.82: real time  256.60

 eigenvalue-minimisations  :     0
 total energy-change (2. order) :-0.9621835E-02  (-0.5110758E-02)
 number of electron     112.0001447 magnetization 
 augmentation part       37.8293639 magnetization 

 Free energy of the ion-electron system (eV)
  ---------------------------------------------------
  alpha Z        PSCENC =       339.31929130
  Ewald energy   TEWEN  =     -9064.06463612
  -1/2 Hartree   DENC   =     -8152.44594924
  -exchange  EXHF       =       340.11878497
  -V(xc)+E(xc)   XCENC  =       372.12353593
  PAW double counting   =     15935.91143313   -16421.27549048
  entropy T*S    EENTRO =         0.00051270
  eigenvalues    EBANDS =     -1740.26092660
  atomic energy  EATOM  =     18320.98302006
  ---------------------------------------------------
  free energy    TOTEN  =       -69.59041193 eV

  energy without entropy =      -69.59092464  energy(sigma->0) =      -69.59058283


--------------------------------------------------------------------------------------------------------




----------------------------------------- Iteration    1(  14)  ---------------------------------------


    POTLOK:  cpu time    0.05: real time    0.05
    SETDIJ:  cpu time    1.87: real time    1.87
 
    SUBROT:  cpu time    1.00: real time    1.00
    SUBROT:  cpu time    0.47: real time    0.47
    SUBROT:  cpu time    0.48: real time    0.48
    SUBROT:  cpu time    0.48: real time    0.48
    --------------------------------------------
    SUBRT+:  cpu time    2.44: real time    2.44

 Broyden mixing:
  rms(total) = 0.68260E-04    rms(broyden)= 0.68245E-04
  rms(prec ) = 0.13984E-03
  weight for this iteration     100.00

 eigenvalues of (default mixing * dielectric matrix)
  average eigenvalue GAMMA=   1.6751
  2.5156  0.9900  1.5196
 
    TRIAL :  cpu time  254.91: real time  254.72
    CORREC:  cpu time    0.00: real time    0.00
    CHARGE:  cpu time    0.09: real time    0.09
    --------------------------------------------
      LOOP:  cpu time  256.93: real time  256.73

 eigenvalue-minimisations  :     0
 total energy-change (2. order) :-0.2448626E-02  (-0.3765339E-02)
 number of electron     112.0001446 magnetization 
 augmentation part       37.8118759 magnetization 

 Free energy of the ion-electron system (eV)
  ---------------------------------------------------
  alpha Z        PSCENC =       339.31929130
  Ewald energy   TEWEN  =     -9064.06463612
  -1/2 Hartree   DENC   =     -8152.98020456
  -exchange  EXHF       =       340.11703542
  -V(xc)+E(xc)   XCENC  =       372.13295839
  PAW double counting   =     15933.87600996   -16419.40158740
  entropy T*S    EENTRO =         0.00052768
  eigenvalues    EBANDS =     -1739.57526031
  atomic energy  EATOM  =     18320.98302006
  ---------------------------------------------------
  free energy    TOTEN  =       -69.59286056 eV

  energy without entropy =      -69.59338824  energy(sigma->0) =      -69.59303645


--------------------------------------------------------------------------------------------------------




----------------------------------------- Iteration    1(  15)  ---------------------------------------


    POTLOK:  cpu time    0.06: real time    0.06
    SETDIJ:  cpu time    1.87: real time    1.87
 
    SUBROT:  cpu time    1.01: real time    1.01
    SUBROT:  cpu time    0.46: real time    0.47
    SUBROT:  cpu time    0.48: real time    0.48
    SUBROT:  cpu time    0.48: real time    0.48
    --------------------------------------------
    SUBRT+:  cpu time    2.43: real time    2.46

 Broyden mixing:
  rms(total) = 0.19393E-03    rms(broyden)= 0.19387E-03
  rms(prec ) = 0.33115E-03
  weight for this iteration     100.00

 eigenvalues of (default mixing * dielectric matrix)
  average eigenvalue GAMMA=   1.6888
  2.4715  0.9889  1.6058
 
    TRIAL :  cpu time  254.72: real time  254.52
    CORREC:  cpu time    0.00: real time    0.00
    CHARGE:  cpu time    0.09: real time    0.09
    --------------------------------------------
      LOOP:  cpu time  256.74: real time  256.56

 eigenvalue-minimisations  :     0
 total energy-change (2. order) :-0.1498602E-02  (-0.1033740E-02)
 number of electron     112.0001446 magnetization 
 augmentation part       37.8162030 magnetization 

 Free energy of the ion-electron system (eV)
  ---------------------------------------------------
  alpha Z        PSCENC =       339.31929130
  Ewald energy   TEWEN  =     -9064.06463612
  -1/2 Hartree   DENC   =     -8148.28752775
  -exchange  EXHF       =       340.02826909
  -V(xc)+E(xc)   XCENC  =       372.02209522
  PAW double counting   =     15921.86600070   -16406.78155108
  entropy T*S    EENTRO =         0.00053934
  eigenvalues    EBANDS =     -1744.67984826
  atomic energy  EATOM  =     18320.98302006
  ---------------------------------------------------
  free energy    TOTEN  =       -69.59435916 eV

  energy without entropy =      -69.59489850  energy(sigma->0) =      -69.59453894


--------------------------------------------------------------------------------------------------------




----------------------------------------- Iteration    1(  16)  ---------------------------------------


    POTLOK:  cpu time    0.05: real time    0.05
    SETDIJ:  cpu time    1.87: real time    1.87
 
    SUBROT:  cpu time    0.98: real time    0.98
    SUBROT:  cpu time    0.47: real time    0.47
    SUBROT:  cpu time    0.47: real time    0.47
    SUBROT:  cpu time    0.46: real time    0.46
    --------------------------------------------
    SUBRT+:  cpu time    2.39: real time    2.40

 Broyden mixing:
  rms(total) = 0.83533E-04    rms(broyden)= 0.83515E-04
  rms(prec ) = 0.13966E-03
  weight for this iteration     100.00

 eigenvalues of (default mixing * dielectric matrix)
  average eigenvalue GAMMA=   1.6876
  2.4860  0.9892  1.5876
 
    TRIAL :  cpu time  252.73: real time  252.51
    CORREC:  cpu time    0.00: real time    0.00
    CHARGE:  cpu time    0.09: real time    0.09
    --------------------------------------------
      LOOP:  cpu time  254.74: real time  254.53

 eigenvalue-minimisations  :     0
 total energy-change (2. order) :-0.5678847E-03  (-0.4075509E-03)
 number of electron     112.0001446 magnetization 
 augmentation part       37.8209980 magnetization 

 Free energy of the ion-electron system (eV)
  ---------------------------------------------------
  alpha Z        PSCENC =       339.31929130
  Ewald energy   TEWEN  =     -9064.06463612
  -1/2 Hartree   DENC   =     -8149.40860662
  -exchange  EXHF       =       340.04688773
  -V(xc)+E(xc)   XCENC  =       372.04929823
  PAW double counting   =     15922.73730597   -16407.84093785
  entropy T*S    EENTRO =         0.00054065
  eigenvalues    EBANDS =     -1743.41708908
  atomic energy  EATOM  =     18320.98302006
  ---------------------------------------------------
  free energy    TOTEN  =       -69.59492704 eV

[...]
     22      -2.2874      2.00000
     23      -1.9514      2.00000
     24      -1.6164      2.00000
     25      -1.2162      2.00000
     26      -1.0049      2.00000
     27      -0.9752      2.00000
     28      -0.7147      2.00000
     29      -0.5511      2.00000
     30      -0.3900      2.00000
     31      -0.2899      2.00000
     32      -0.2003      2.00000
     33      -0.1816      2.00000
     34      -0.1408      2.00000
     35      -0.0196      2.00000
     36       0.0177      2.00000
     37       1.2949      2.00000
     38       1.3076      2.00000
     39       1.3680      2.00000
     40       1.4102      2.00000
     41       1.4519      2.00000
     42       1.4661      2.00000
     43       1.5050      2.00000
     44       1.5483      2.00000
     45       1.7637      2.00000
     46       1.8938      2.00000
     47       1.9826      2.00000
     48       2.1532      2.00000
     49       2.3731      2.00000
     50       2.5736      2.00000
     51       2.7046      2.00000
     52       2.9115      2.00000
     53       3.0121      2.00000
     54       3.2209      2.00000
     55       3.4012      2.00000
     56       3.6556      2.00000
     57       6.3770     -0.00000
     58       6.5152     -0.00000
     59       7.7180      0.00000
     60       7.8967      0.00000
     61       8.2967      0.00000
     62       8.5698      0.00000
     63       9.3250      0.00000
     64       9.8465      0.00000
     65      10.0190      0.00000
     66      10.3534      0.00000
     67      10.5902      0.00000
     68      10.7850      0.00000
     69      10.9737      0.00000
     70      11.2560      0.00000
     71      11.3066      0.00000
     72      11.7024      0.00000
     73      12.2512      0.00000
     74      12.4671      0.00000
     75      13.1031      0.00000
     76      13.4801      0.00000
     77      13.8216      0.00000
     78      14.6874      0.00000
     79      15.0005      0.00000
     80      15.7168      0.00000

 k-point  40 :       0.2500   -0.2500    0.4000
  band No.  band energies     occupation 
      1     -68.6456      2.00000
      2     -68.6411      2.00000
      3     -68.6409      2.00000
      4     -68.6328      2.00000
      5     -68.6138      2.00000
      6     -68.6093      2.00000
      7     -68.5964      2.00000
      8     -68.5922      2.00000
      9     -68.5855      2.00000
     10     -68.5765      2.00000
     11     -68.5697      2.00000
     12     -68.5599      2.00000
     13     -12.2180      2.00000
     14     -11.8171      2.00000
     15     -10.8208      2.00000
     16     -10.6677      2.00000
     17     -10.3498      2.00000
     18     -10.2761      2.00000
     19      -5.4466      2.00000
     20      -5.1165      2.00000
     21      -2.4290      2.00000
     22      -2.1538      2.00000
     23      -2.0161      2.00000
     24      -1.5230      2.00000
     25      -1.3559      2.00000
     26      -1.1647      2.00000
     27      -0.9362      2.00000
     28      -0.8158      2.00000
     29      -0.5837      2.00000
     30      -0.5377      2.00000
     31      -0.2805      2.00000
     32      -0.2382      2.00000
     33      -0.1357      2.00000
     34      -0.0903      2.00000
     35      -0.0243      2.00000
     36       0.0301      2.00000
     37       1.3127      2.00000
     38       1.3455      2.00000
     39       1.3625      2.00000
     40       1.3978      2.00000
     41       1.4499      2.00000
     42       1.4807      2.00000
     43       1.4974      2.00000
     44       1.5643      2.00000
     45       1.8022      2.00000
     46       1.8468      2.00000
     47       1.9619      2.00000
     48       2.1088      2.00000
     49       2.2951      2.00000
     50       2.5302      2.00000
     51       2.6396      2.00000
     52       2.7689      2.00000
     53       2.9282      2.00000
     54       3.1630      2.00000
     55       3.3041      2.00000
     56       3.5747      2.00000
     57       6.5595     -0.00000
     58       6.7159     -0.00000
     59       7.9592      0.00000
     60       7.9984      0.00000
     61       8.7293      0.00000
     62       9.0902      0.00000
     63       9.4569      0.00000
     64       9.8284      0.00000
     65      10.2982      0.00000
     66      10.3653      0.00000
     67      10.7784      0.00000
     68      10.8494      0.00000
     69      11.1136      0.00000
     70      11.2737      0.00000
     71      11.3679      0.00000
     72      11.6211      0.00000
     73      12.0492      0.00000
     74      12.2951      0.00000
     75      12.6515      0.00000
     76      13.1267      0.00000
     77      13.2860      0.00000
     78      14.2453      0.00000
     79      15.6347      0.00000
     80      15.8277      0.00000

 k-point  41 :       0.5000   -0.2500    0.4000
  band No.  band energies     occupation 
      1     -68.6455      2.00000
      2     -68.6410      2.00000
      3     -68.6407      2.00000
      4     -68.6326      2.00000
      5     -68.6137      2.00000
      6     -68.6093      2.00000
      7     -68.5962      2.00000
      8     -68.5921      2.00000
      9     -68.5855      2.00000
     10     -68.5765      2.00000
     11     -68.5697      2.00000
     12     -68.5598      2.00000
     13     -12.0771      2.00000
     14     -11.7745      2.00000
     15     -10.8469      2.00000
     16     -10.7546      2.00000
     17     -10.5322      2.00000
     18     -10.3157      2.00000
     19      -5.4190      2.00000
     20      -4.9404      2.00000
     21      -2.3992      2.00000
     22      -2.1287      2.00000
     23      -1.8627      2.00000
     24      -1.7238      2.00000
     25      -1.4478      2.00000
     26      -1.1209      2.00000
     27      -0.8834      2.00000
     28      -0.6476      2.00000
     29      -0.6001      2.00000
     30      -0.4530      2.00000
     31      -0.2610      2.00000
     32      -0.1836      2.00000
     33      -0.1210      2.00000
     34      -0.0542      2.00000
     35      -0.0226      2.00000
     36       0.0203      2.00000
     37       1.2611      2.00000
     38       1.3158      2.00000
     39       1.4101      2.00000
     40       1.4374      2.00000
     41       1.4833      2.00000
     42       1.4908      2.00000
     43       1.5129      2.00000
     44       1.5731      2.00000
     45       1.7611      2.00000
     46       1.8419      2.00000
     47       2.1167      2.00000
     48       2.1873      2.00000
     49       2.3652      2.00000
     50       2.4596      2.00000
     51       2.4918      2.00000
     52       2.6947      2.00000
     53       2.8240      2.00000
     54       3.0884      2.00000
     55       3.2935      2.00000
     56       3.5245      2.00000
     57       6.4927     -0.00000
     58       6.5851     -0.00000
     59       7.4500      0.00000
     60       7.7155      0.00000
     61       8.5848      0.00000
     62       8.7439      0.00000
     63       9.3027      0.00000
     64       9.5290      0.00000
     65       9.9539      0.00000
     66      10.1851      0.00000
     67      10.6762      0.00000
     68      11.1139      0.00000
     69      11.2511      0.00000
     70      11.5706      0.00000
     71      11.7107      0.00000
     72      11.8946      0.00000
     73      12.2999      0.00000
     74      12.6573      0.00000
     75      13.0094      0.00000
     76      13.2339      0.00000
     77      13.6644      0.00000
     78      14.0719      0.00000
     79      14.3944      0.00000
     80      16.5136      0.00000

 k-point  42 :      -0.2500   -0.2500    0.4000
  band No.  band energies     occupation 
      1     -68.6457      2.00000
      2     -68.6412      2.00000
      3     -68.6407      2.00000
      4     -68.6326      2.00000
      5     -68.6137      2.00000
      6     -68.6094      2.00000
      7     -68.5963      2.00000
      8     -68.5921      2.00000
      9     -68.5856      2.00000
     10     -68.5765      2.00000
     11     -68.5698      2.00000
     12     -68.5600      2.00000
     13     -12.1768      2.00000
     14     -11.7040      2.00000
     15     -10.7142      2.00000
     16     -10.6925      2.00000
     17     -10.5853      2.00000
     18     -10.3918      2.00000
     19      -5.4463      2.00000
     20      -5.0726      2.00000
     21      -2.5056      2.00000
     22      -2.3796      2.00000
     23      -1.9644      2.00000
     24      -1.3640      2.00000
     25      -1.3318      2.00000
     26      -1.0533      2.00000
     27      -0.8308      2.00000
     28      -0.7670      2.00000
     29      -0.4240      2.00000
     30      -0.3386      2.00000
     31      -0.2710      2.00000
     32      -0.2122      2.00000
     33      -0.1451      2.00000
     34      -0.1393      2.00000
     35      -0.0135      2.00000
     36       0.0263      2.00000
     37       1.1724      2.00000
     38       1.3702      2.00000
     39       1.3965      2.00000
     40       1.4517      2.00000
     41       1.4542      2.00000
     42       1.4967      2.00000
     43       1.5162      2.00000
     44       1.5501      2.00000
     45       1.7422      2.00000
     46       1.8202      2.00000
     47       1.9749      2.00000
     48       2.2288      2.00000
     49       2.3970      2.00000
     50       2.6120      2.00000
     51       2.6543      2.00000
     52       2.9129      2.00000
     53       3.0713      2.00000
     54       3.1188      2.00000
     55       3.2874      2.00000
     56       3.5832      2.00000
     57       6.2892     -0.00000
     58       6.3764     -0.00000
     59       7.3571      0.00000
     60       7.5188      0.00000
     61       8.3057      0.00000
     62       8.3357      0.00000
     63       9.1036      0.00000
     64       9.3599      0.00000
     65       9.7188      0.00000
     66       9.9432      0.00000
     67      10.5258      0.00000
     68      10.9879      0.00000
     69      11.4271      0.00000
     70      11.5616      0.00000
     71      12.0255      0.00000
     72      12.2799      0.00000
     73      12.4316      0.00000
     74      12.4740      0.00000
     75      13.0356      0.00000
     76      13.1561      0.00000
     77      14.1415      0.00000
     78      14.4338      0.00000
     79      15.1637      0.00000
     80      15.8612      0.00000


--------------------------------------------------------------------------------------------------------


 soft charge-density along one line, spin component           1
         0         1         2         3         4         5         6         7         8         9
 total charge-density along one line
 
 pseudopotential strength for first ion, spin component:           1
-65.424   0.002   0.006   7.363   0.000  -0.003   0.001   0.007
  0.002 -65.394  -0.005   0.000   7.353   0.001  -0.001  -0.024
  0.006  -0.005 -65.384  -0.003   0.001   7.349  -0.037  -0.001
  7.363   0.000  -0.003   6.110   0.000   0.001   0.002  -0.003
  0.000   7.353   0.001   0.000   6.113  -0.000   0.000   0.007
 -0.003   0.001   7.349   0.001  -0.000   6.114   0.009   0.000
  0.001  -0.001  -0.037   0.002   0.000   0.009  -2.980  -0.003
  0.007  -0.024  -0.001  -0.003   0.007   0.000  -0.003  -2.985
  0.022   0.042   0.009  -0.005  -0.008  -0.003  -0.003   0.008
 -0.001  -0.017   0.007   0.000   0.004  -0.003   0.004   0.007
  0.026   0.000  -0.034  -0.007  -0.000   0.007  -0.000   0.007
  0.001  -0.001  -0.036   0.002   0.000   0.008  -3.626  -0.003
  0.007  -0.023  -0.001  -0.003   0.007   0.000  -0.003  -3.631
  0.022   0.042   0.009  -0.005  -0.008  -0.002  -0.003   0.008
 -0.001  -0.017   0.007   0.000   0.004  -0.003   0.004   0.007
  0.025   0.000  -0.034  -0.007  -0.000   0.006  -0.000   0.007
  0.007  -0.005   0.004  -0.001   0.001  -0.001  -0.002   0.000
  0.015  -0.010   0.009  -0.002   0.001  -0.002  -0.003   0.001
 total augmentation occupancy for first ion, spin component:           1
  2.000  -0.000   0.000  -0.003  -0.000   0.000   0.007  -0.005   0.001  -0.001  -0.005  -0.007   0.005  -0.001   0.001   0.004
 -0.000   2.000  -0.000  -0.000  -0.003   0.000  -0.001   0.005   0.004   0.001   0.000   0.001  -0.005  -0.005  -0.001  -0.000
  0.000  -0.000   2.000   0.000   0.000  -0.003  -0.000  -0.000  -0.001  -0.005  -0.004   0.001   0.000   0.001   0.005   0.005
 -0.003  -0.000   0.000   0.095   0.006  -0.005  -0.334   0.233  -0.074   0.011   0.017   0.281  -0.197   0.058  -0.007  -0.011
 -0.000  -0.003   0.000   0.006   0.102   0.001   0.020  -0.048  -0.445   0.015   0.011  -0.013   0.037   0.377  -0.011  -0.009
  0.000   0.000  -0.003  -0.005   0.001   0.099   0.098  -0.002  -0.014   0.236   0.354  -0.077   0.001   0.011  -0.202  -0.297
  0.007  -0.001  -0.000  -0.334   0.020   0.098   4.008  -0.793   0.098   0.216   0.147  -1.737   0.743  -0.090  -0.182  -0.141
 -0.005   0.005  -0.000   0.233  -0.048  -0.002  -0.793   3.511   0.292   0.159   0.297   0.743  -1.270  -0.215  -0.114  -0.206
  0.001   0.004  -0.001  -0.074  -0.445  -0.014   0.098   0.292   4.692  -0.041  -0.116  -0.090  -0.216  -2.400   0.035   0.086
 -0.001   0.001  -0.005   0.011   0.015   0.236   0.216   0.159  -0.041   3.635   0.797  -0.182  -0.115   0.035  -1.353  -0.759
 -0.005   0.000  -0.004   0.017   0.011   0.354   0.147   0.297  -0.116   0.797   3.995  -0.141  -0.206   0.086  -0.759  -1.741
 -0.007   0.001   0.001   0.281  -0.013  -0.077  -1.737   0.743  -0.090  -0.182  -0.141   1.442  -0.696   0.082   0.154   0.136
  0.005  -0.005   0.000  -0.197   0.037   0.001   0.743  -1.270  -0.216  -0.115  -0.206  -0.696   1.006   0.154   0.079   0.132
 -0.001  -0.005   0.001   0.058   0.377   0.011  -0.090  -0.215  -2.400   0.035   0.086   0.082   0.154   2.084  -0.029  -0.062
  0.001  -0.001   0.005  -0.007  -0.011  -0.202  -0.182  -0.114   0.035  -1.353  -0.759   0.154   0.079  -0.029   1.059   0.721
  0.004  -0.000   0.005  -0.011  -0.009  -0.297  -0.141  -0.206   0.086  -0.759  -1.741   0.136   0.132  -0.062   0.721   1.461
 -0.025   0.016  -0.013  -0.020   0.011  -0.006   0.080  -0.100  -0.023  -0.006   0.025  -0.063   0.088   0.035   0.006   0.005
  0.012  -0.008   0.006   0.001  -0.000  -0.000  -0.008   0.003  -0.004   0.004  -0.019   0.004  -0.005  -0.002  -0.001   0.003


------------------------ aborting loop because EDIFF is reached ----------------------------------------


    FORLOC:  cpu time    0.00: real time    0.00
    FORHF :  cpu time  486.74: real time  486.29
    FORNL :  cpu time    0.40: real time    0.40
    FORCOR:  cpu time    1.92: real time    1.92

 VOLUME and BASIS-vectors are now :
 -----------------------------------------------------------------------------
  energy-cutoff  :      400.00
  volume of cell :      221.90
      direct lattice vectors                 reciprocal lattice vectors
     3.224796000 -5.643830000  0.031572000     0.154525165 -0.088592321  0.053460880
     3.224796000  5.643830000  0.031572000     0.154525165  0.088592321  0.053460880
    -2.101946000  0.000000000  6.075537000    -0.001606004  0.000000000  0.164038877

  length of vectors
     6.500240234  6.500240234  6.428866683     0.185969598  0.185969598  0.164046738


 FORCES acting on ions:
    Electron-Ion                     Ewald-Force                    Non-Local-Force
 -----------------------------------------------------------------------------------------------
   -.143E+02 -.975E+02 0.116E+02   0.131E+02 0.951E+02 -.998E+01   0.102E+01 0.211E+01 -.141E+01
   -.158E+02 0.965E+02 0.120E+02   0.146E+02 -.941E+02 -.104E+02   0.103E+01 -.210E+01 -.142E+01
   0.250E+02 -.160E+02 0.435E+01   -.217E+02 0.158E+02 -.304E+01   -.283E+01 0.149E+00 -.114E+01
   0.266E+02 0.147E+02 0.339E+01   -.233E+02 -.145E+02 -.214E+01   -.290E+01 -.733E-01 -.108E+01
   -.107E+02 -.313E+02 -.110E+02   0.996E+01 0.300E+02 0.989E+01   0.628E+00 0.134E+01 0.111E+01
   -.110E+02 0.315E+02 -.112E+02   0.103E+02 -.301E+02 0.100E+02   0.683E+00 -.134E+01 0.113E+01
   -.135E+03 -.744E+01 -.488E+02   0.132E+03 0.747E+01 0.479E+02   0.286E+01 -.966E-01 0.739E+00
   0.703E+02 -.126E+03 0.963E+02   -.686E+02 0.123E+03 -.942E+02   -.157E+01 0.229E+01 -.188E+01
   0.667E+02 -.133E+03 -.497E+02   -.652E+02 0.130E+03 0.488E+02   -.137E+01 0.219E+01 0.870E+00
   0.704E+02 0.126E+03 0.962E+02   -.687E+02 -.123E+03 -.941E+02   -.156E+01 -.228E+01 -.187E+01
   -.135E+03 0.983E+01 -.492E+02   0.132E+03 -.987E+01 0.484E+02   0.279E+01 0.369E-01 0.736E+00
   0.666E+02 0.133E+03 -.498E+02   -.651E+02 -.130E+03 0.488E+02   -.135E+01 -.217E+01 0.878E+00
 -----------------------------------------------------------------------------------------------
   0.283E+01 -.463E-01 0.377E+01   0.284E-13 -.284E-13 -.711E-13   -.257E+01 0.589E-01 -.333E+01
 
 
 POSITION                                       TOTAL-FORCE (eV/Angst)
 -----------------------------------------------------------------------------------
      2.13385     -2.80652      0.74958        -0.001759     -0.001557      0.000575
      1.08288      2.80652      3.78735         0.005765      0.016580     -0.007047
      5.40423     -0.97432      0.77721         0.001249     -0.002228      0.004583
      4.35326      0.97432      3.81498        -0.008385      0.025652      0.009842
      1.02081     -0.97328      3.66185        -0.053572      0.014916     -0.012623
      2.07178      0.97328      0.62409        -0.001332     -0.006928      0.001431
      2.14594      4.70535      3.05299         0.077080     -0.073129      0.005105
      1.11215     -0.89759      5.98620        -0.001799     -0.007410     -0.002361
      2.14287     -2.74882      3.03886        -0.014285      0.010468     -0.001808
      2.16313      0.89759      2.94844        -0.003307      0.017745      0.000426
      1.09993     -4.69667      6.09081         0.002208      0.003565      0.001892
      1.09189      2.74882      6.07662        -0.001862      0.002324     -0.000014
 -----------------------------------------------------------------------------------
    total drift:                               -0.058876     -0.001181     -0.054119


--------------------------------------------------------------------------------------------------------



  FREE ENERGIE OF THE ION-ELECTRON SYSTEM (eV)
  ---------------------------------------------------
  free  energy   TOTEN  =       -69.59527101 eV

  energy  without entropy=      -69.59580597  energy(sigma->0) =      -69.59544933
 


--------------------------------------------------------------------------------------------------------


    POTLOK:  cpu time    2.07: real time    2.07


--------------------------------------------------------------------------------------------------------


 writing wavefunctions
     LOOP+:  cpu time 5852.80: real time 5849.87
    4ORBIT:  cpu time    0.00: real time    0.00

 total amount of memory used by VASP on root node   155705. kBytes
========================================================================

   base      :      30000. kBytes
   nonl-proj :      74517. kBytes
   fftplans  :        702. kBytes
   grid      :       2400. kBytes
   one-center:        186. kBytes
   HF        :        194. kBytes
   nonlr-proj:       5130. kBytes
   wavefun   :      42576. kBytes
 
  
  
 General timing and accounting informations for this job:
 ========================================================
  
                  Total CPU time used (sec):     5888.331
                            User time (sec):     5884.112
                          System time (sec):        4.218
                         Elapsed time (sec):     5886.149
  
                   Maximum memory used (kb):      298704.
                   Average memory used (kb):           0.
  
                          Minor page faults:        78910
                          Major page faults:            1
                 Voluntary context switches:         3880
