<?xml version="1.0" encoding="ISO-8859-1"?>
<modeling>
 <generator>
  <i name="program" type="string">vasp </i>
  <i name="version" type="string">5.3.3  </i>
  <i name="subversion" type="string">18Dez12 (build Nov 13 2015 09:58:40) complex                          parallel </i>
  <i name="platform" type="string">LinuxIFC </i>
  <i name="date" type="string">2017 10 18 </i>
  <i name="time" type="string">13:07:58 </i>
 </generator>
 <incar>
  <i type="string" name="SYSTEM"> CGS</i>
  <i type="string" name="PREC">normal</i>
  <i type="string" name="ALGO"> D</i>
  <i type="logical" name="LDIAG"> T  </i>
  <i name="EDIFF">      0.00001000</i>
  <i name="ENCUT">    400.00000000</i>
  <i name="TIME">      0.40000000</i>
  <i type="int" name="ISMEAR">     1</i>
  <i name="SIGMA">      0.10000000</i>
  <i type="logical" name="LHFCALC"> T  </i>
  <i type="string" name="GGA"> PE</i>
  <i name="HFSCREEN">      0.20000000</i>
  <i name="AEXX">      0.25000000</i>
  <i type="string" name="PRECFOCK">fast</i>
 </incar>
 <kpoints>
  <generation param="Gamma">
   <v type="int" name="divisions">       4        4        5 </v>
   <v name="usershift">      0.00000000       0.00000000       0.00000000 </v>
   <v name="genvec1">      0.25000000       0.00000000       0.00000000 </v>
   <v name="genvec2">      0.00000000       0.25000000       0.00000000 </v>
   <v name="genvec3">      0.00000000       0.00000000       0.20000000 </v>
   <v name="shift">      0.00000000       0.00000000       0.00000000 </v>
  </generation>
  <varray name="kpointlist" >
   <v>       0.00000000       0.00000000       0.00000000 </v>
   <v>       0.25000000       0.00000000       0.00000000 </v>
   <v>       0.50000000       0.00000000       0.00000000 </v>
   <v>       0.00000000       0.25000000       0.00000000 </v>
   <v>       0.25000000       0.25000000       0.00000000 </v>
   <v>       0.50000000       0.25000000      -0.00000000 </v>
   <v>      -0.25000000       0.25000000       0.00000000 </v>
   <v>       0.00000000       0.50000000       0.00000000 </v>
   <v>       0.25000000       0.50000000      -0.00000000 </v>
   <v>       0.50000000       0.50000000       0.00000000 </v>
   <v>      -0.00000000      -0.00000000       0.20000000 </v>
   <v>       0.25000000       0.00000000       0.20000000 </v>
   <v>       0.50000000       0.00000000       0.20000000 </v>
   <v>      -0.25000000      -0.00000000       0.20000000 </v>
   <v>       0.00000000       0.25000000       0.20000000 </v>
   <v>       0.25000000       0.25000000       0.20000000 </v>
   <v>       0.50000000       0.25000000       0.20000000 </v>
   <v>      -0.25000000       0.25000000       0.20000000 </v>
   <v>       0.00000000       0.50000000       0.20000000 </v>
   <v>       0.25000000       0.50000000       0.20000000 </v>
   <v>       0.50000000       0.50000000       0.20000000 </v>
   <v>      -0.25000000       0.50000000       0.20000000 </v>
   <v>      -0.00000000      -0.25000000       0.20000000 </v>
   <v>       0.25000000      -0.25000000       0.20000000 </v>
   <v>       0.50000000      -0.25000000       0.20000000 </v>
   <v>      -0.25000000      -0.25000000       0.20000000 </v>
   <v>      -0.00000000      -0.00000000       0.40000000 </v>
   <v>       0.25000000       0.00000000       0.40000000 </v>
   <v>       0.50000000       0.00000000       0.40000000 </v>
   <v>      -0.25000000       0.00000000       0.40000000 </v>
   <v>       0.00000000       0.25000000       0.40000000 </v>
   <v>       0.25000000       0.25000000       0.40000000 </v>
   <v>       0.50000000       0.25000000       0.40000000 </v>
   <v>      -0.25000000       0.25000000       0.40000000 </v>
   <v>       0.00000000       0.50000000       0.40000000 </v>
   <v>       0.25000000       0.50000000       0.40000000 </v>
   <v>       0.50000000       0.50000000       0.40000000 </v>
   <v>      -0.25000000       0.50000000       0.40000000 </v>
   <v>       0.00000000      -0.25000000       0.40000000 </v>
   <v>       0.25000000      -0.25000000       0.40000000 </v>
   <v>       0.50000000      -0.25000000       0.40000000 </v>
   <v>      -0.25000000      -0.25000000       0.40000000 </v>
  </varray>
  <varray name="weights" >
   <v>       0.01250000 </v>
   <v>       0.02500000 </v>
   <v>       0.01250000 </v>
   <v>       0.02500000 </v>
   <v>       0.02500000 </v>
   <v>       0.02500000 </v>
   <v>       0.02500000 </v>
   <v>       0.01250000 </v>
   <v>       0.02500000 </v>
   <v>       0.01250000 </v>
   <v>       0.02500000 </v>
   <v>       0.02500000 </v>
   <v>       0.02500000 </v>
   <v>       0.02500000 </v>
   <v>       0.02500000 </v>
   <v>       0.02500000 </v>
   <v>       0.02500000 </v>
   <v>       0.02500000 </v>
   <v>       0.02500000 </v>
   <v>       0.02500000 </v>
   <v>       0.02500000 </v>
   <v>       0.02500000 </v>
   <v>       0.02500000 </v>
   <v>       0.02500000 </v>
   <v>       0.02500000 </v>
   <v>       0.02500000 </v>
   <v>       0.02500000 </v>
   <v>       0.02500000 </v>
   <v>       0.02500000 </v>
   <v>       0.02500000 </v>
   <v>       0.02500000 </v>
   <v>       0.02500000 </v>
   <v>       0.02500000 </v>
   <v>       0.02500000 </v>
   <v>       0.02500000 </v>
   <v>       0.02500000 </v>
   <v>       0.02500000 </v>
   <v>       0.02500000 </v>
   <v>       0.02500000 </v>
   <v>       0.02500000 </v>
   <v>       0.02500000 </v>
   <v>       0.02500000 </v>
  </varray>
 </kpoints>
 <parameters>
  <separator name="general" >
   <i type="string" name="SYSTEM">CGS</i>
   <i type="logical" name="LCOMPAT"> F  </i>
  </separator>
  <separator name="electronic" >
   <i type="string" name="PREC">normal</i>
   <i name="ENMAX">    400.00000000</i>
   <i name="ENAUG">    758.23300000</i>
   <i name="EDIFF">      0.00001000</i>
   <i type="int" name="IALGO">    53</i>
   <i type="int" name="IWAVPR">    10</i>
   <i type="int" name="NBANDS">    80</i>
   <i name="NELECT">    112.00000000</i>
   <i type="int" name="TURBO">     0</i>
   <i type="int" name="IRESTART">     0</i>
   <i type="int" name="NREBOOT">     0</i>
   <i type="int" name="NMIN">     0</i>
   <i name="EREF">      0.00000000</i>
   <separator name="electronic smearing" >
    <i type="int" name="ISMEAR">     1</i>
    <i name="SIGMA">      0.10000000</i>
    <i name="KSPACING">      0.50000000</i>
    <i type="logical" name="KGAMMA"> T  </i>
   </separator>
   <separator name="electronic projectors" >
    <i type="logical" name="LREAL"> F  </i>
    <v name="ROPT">      0.00000000      0.00000000      0.00000000</v>
    <i type="int" name="LMAXPAW">  -100</i>
    <i type="int" name="LMAXMIX">     2</i>
    <i type="logical" name="NLSPLINE"> F  </i>
   </separator>
   <separator name="electronic startup" >
    <i type="int" name="ISTART">     1</i>
    <i type="int" name="ICHARG">     0</i>
    <i type="int" name="INIWAV">     1</i>
   </separator>
   <separator name="electronic spin" >
    <i type="int" name="ISPIN">     1</i>
    <i type="logical" name="LNONCOLLINEAR"> F  </i>
    <v name="MAGMOM">      1.00000000      1.00000000      1.00000000      1.00000000      1.00000000      1.00000000      1.00000000      1.00000000      1.00000000      1.00000000      1.00000000      1.00000000</v>
    <i name="NUPDOWN">     -1.00000000</i>
    <i type="logical" name="LSORBIT"> F  </i>
    <v name="SAXIS">      0.00000000      0.00000000      1.00000000</v>
    <i type="logical" name="LSPIRAL"> F  </i>
    <v name="QSPIRAL">      0.00000000      0.00000000      0.00000000</v>
    <i type="logical" name="LZEROZ"> F  </i>
   </separator>
   <separator name="electronic exchange-correlation" >
    <i type="logical" name="LASPH"> F  </i>
    <i type="logical" name="LMETAGGA"> F  </i>
   </separator>
   <separator name="electronic convergence" >
    <i type="int" name="NELM">    60</i>
    <i type="int" name="NELMDL">     0</i>
    <i type="int" name="NELMIN">     2</i>
    <i name="ENINI">    400.00000000</i>
    <separator name="electronic convergence detail" >
     <i type="logical" name="LDIAG"> T  </i>
     <i type="logical" name="LSUBROT"> T  </i>
     <i name="WEIMIN">      0.00000000</i>
     <i name="EBREAK">      0.00000003</i>
     <i name="DEPER">      0.30000000</i>
     <i type="int" name="NRMM">     4</i>
     <i name="TIME">      0.40000000</i>
    </separator>
   </separator>
   <separator name="electronic mixer" >
    <i name="AMIX">      0.40000000</i>
    <i name="BMIX">      1.00000000</i>
    <i name="AMIN">      0.10000000</i>
    <i name="AMIX_MAG">      1.60000000</i>
    <i name="BMIX_MAG">      1.00000000</i>
    <separator name="electronic mixer details" >
     <i type="int" name="IMIX">     4</i>
     <i type="int" name="MAXMIX">   -45</i>
     <i name="WC">    100.00000000</i>
     <i type="int" name="INIMIX">     1</i>
     <i type="int" name="MIXPRE">     1</i>
     <i type="int" name="MREMOVE">     5</i>
    </separator>
   </separator>
   <separator name="electronic dipolcorrection" >
    <i type="logical" name="LDIPOL"> F  </i>
    <i type="logical" name="LMONO"> F  </i>
    <i type="int" name="IDIPOL">     0</i>
    <i name="EPSILON">      1.00000000</i>
    <v name="DIPOL">   -100.00000000   -100.00000000   -100.00000000</v>
    <i name="EFIELD">      0.00000000</i>
   </separator>
  </separator>
  <separator name="grids" >
   <i type="int" name="NGX">    32</i>
   <i type="int" name="NGY">    32</i>
   <i type="int" name="NGZ">    32</i>
   <i type="int" name="NGXF">    64</i>
   <i type="int" name="NGYF">    64</i>
   <i type="int" name="NGZF">    64</i>
   <i type="logical" name="ADDGRID"> F  </i>
  </separator>
  <separator name="ionic" >
   <i type="int" name="NSW">     0</i>
   <i type="int" name="IBRION">    -1</i>
   <i type="int" name="ISIF">     0</i>
   <i name="PSTRESS">      0.00000000</i>
   <i name="EDIFFG">      0.00010000</i>
   <i type="int" name="NFREE">     0</i>
   <i name="POTIM">      0.50000000</i>
   <i name="SMASS">     -3.00000000</i>
   <i name="SCALEE">      1.00000000</i>
  </separator>
  <separator name="ionic md" >
   <i name="TEBEG">      0.00010000</i>
   <i name="TEEND">      0.00010000</i>
   <i type="int" name="NBLOCK">     1</i>
   <i type="int" name="KBLOCK">     1</i>
   <i type="int" name="NPACO">   256</i>
   <i name="APACO">     16.00000000</i>
  </separator>
  <separator name="symmetry" >
   <i type="int" name="ISYM">     3</i>
   <i name="SYMPREC">      0.00001000</i>
  </separator>
  <separator name="dos" >
   <i type="logical" name="LORBIT"> F  </i>
   <v name="RWIGS">     -1.00000000     -1.00000000     -1.00000000</v>
   <i type="int" name="NEDOS">   301</i>
   <i name="EMIN">     10.00000000</i>
   <i name="EMAX">    -10.00000000</i>
   <i name="EFERMI">      0.00000000</i>
  </separator>
  <separator name="writing" >
   <i type="int" name="NWRITE">     2</i>
   <i type="logical" name="LWAVE"> T  </i>
   <i type="logical" name="LCHARG"> T  </i>
   <i type="logical" name="LPARD"> F  </i>
   <i type="logical" name="LVTOT"> F  </i>
   <i type="logical" name="LVHAR"> F  </i>
   <i type="logical" name="LELF"> F  </i>
   <i type="logical" name="LOPTICS"> F  </i>
   <v name="STM">      0.00000000      0.00000000      0.00000000      0.00000000      0.00000000      0.00000000      0.00000000</v>
  </separator>
  <separator name="performance" >
   <i type="int" name="NPAR">    16</i>
   <i type="int" name="NSIM">     4</i>
   <i type="int" name="NBLK">    -1</i>
   <i type="logical" name="LPLANE"> T  </i>
   <i type="logical" name="LSCALAPACK"> T  </i>
   <i type="logical" name="LSCAAWARE"> F  </i>
   <i type="logical" name="LSCALU"> F  </i>
   <i type="logical" name="LASYNC"> F  </i>
   <i type="logical" name="LORBITALREAL"> F  </i>
  </separator>
  <separator name="miscellaneous" >
   <i type="int" name="IDIOT">     3</i>
   <i type="logical" name="LMUSIC"> F  </i>
   <v name="POMASS">     63.54600000     72.61000000     32.06600000</v>
   <v name="DARWINR">      0.00000000      0.00000000      0.00000000</v>
   <v name="DARWINV">      1.00000000      1.00000000      1.00000000</v>
   <i type="logical" name="LCORR"> T  </i>
  </separator>
  <i type="logical" name="GGA_COMPAT"> T  </i>
  <i type="logical" name="LBERRY"> F  </i>
  <i type="int" name="ICORELEVEL">     0</i>
  <i type="logical" name="LDAU"> F  </i>
  <i type="int" name="I_CONSTRAINED_M">     0</i>
  <separator name="electronic exchange-correlation" >
   <i type="string" name="GGA">PE</i>
   <i type="int" name="VOSKOWN">     0</i>
   <i type="logical" name="LHFCALC"> T  </i>
   <i type="string" name="PRECFOCK">fast</i>
   <i type="logical" name="LSYMGRAD"> F  </i>
   <i type="logical" name="LHFONE"> F  </i>
   <i type="logical" name="LRHFCALC"> F  </i>
   <i type="logical" name="LTHOMAS"> F  </i>
   <i type="logical" name="LMODELHF"> F  </i>
   <i name="ENCUT4O">     -1.00000000</i>
   <i type="int" name="EXXOEP">     0</i>
   <i type="int" name="FOURORBIT">     0</i>
   <i name="AEXX">      0.25000000</i>
   <i name="HFALPHA">     -1.00000000</i>
   <i name="MCALPHA">      0.00000000</i>
   <i name="ALDAX">      0.75000000</i>
   <i name="AGGAX">      0.75000000</i>
   <i name="ALDAC">      1.00000000</i>
   <i name="AGGAC">      1.00000000</i>
   <i type="int" name="NKREDX">     1</i>
   <i type="int" name="NKREDY">     1</i>
   <i type="int" name="NKREDZ">     1</i>
   <i type="logical" name="SHIFTRED"> F  </i>
   <i type="logical" name="ODDONLY"> F  </i>
   <i type="logical" name="EVENONLY"> F  </i>
   <i type="int" name="LMAXFOCK">     4</i>
   <i type="int" name="NMAXFOCKAE">     1</i>
   <i type="logical" name="LFOCKAEDFT"> F  </i>
   <i name="HFSCREEN">      0.20000000</i>
   <i name="HFSCREENC">      0.20000000</i>
   <i type="int" name="NBANDSGWLOW">     1</i>
  </separator>
  <separator name="vdW DFT" >
   <i type="logical" name="LUSE_VDW"> F  </i>
   <i name="Zab_VDW">     -0.84910000</i>
   <i name="PARAM1">      0.12340000</i>
   <i name="PARAM2">      1.00000000</i>
   <i name="PARAM3">      0.00000000</i>
  </separator>
  <separator name="model GW" >
   <i type="int" name="MODEL_GW">     0</i>
   <i name="MODEL_EPS0">     11.09505304</i>
   <i name="MODEL_ALPHA">      1.00000000</i>
  </separator>
  <separator name="linear response parameters" >
   <i type="logical" name="LEPSILON"> F  </i>
   <i type="logical" name="LRPA"> F  </i>
   <i type="logical" name="LNABLA"> F  </i>
   <i type="logical" name="LVEL"> F  </i>
   <i type="int" name="KINTER">     0</i>
   <i name="CSHIFT">      0.10000000</i>
   <i name="OMEGAMAX">     -1.00000000</i>
   <i name="DEG_THRESHOLD">      0.00200000</i>
  </separator>
  <separator name="orbital magnetization" >
   <i type="logical" name="NUCIND"> F  </i>
   <v name="MAGPOS">      0.00000000      0.00000000      0.00000000</v>
   <i type="logical" name="LNICSALL"> T  </i>
   <i type="logical" name="ORBITALMAG"> F  </i>
   <i type="logical" name="LMAGBLOCH"> F  </i>
   <i type="logical" name="LCHIMAG"> F  </i>
   <i type="logical" name="LGAUGE"> T  </i>
   <i type="int" name="MAGATOM">     0</i>
   <v name="MAGDIPOL">      0.00000000      0.00000000      0.00000000</v>
   <v name="AVECCONST">      0.00000000      0.00000000      0.00000000</v>
  </separator>
  <separator name="response functions" >
   <i type="logical" name="LADDER"> F  </i>
   <i type="logical" name="LFXC"> F  </i>
   <i type="logical" name="LHARTREE"> T  </i>
   <i type="int" name="IBSE">     0</i>
   <i type="logical" name="LTCTE"> F  </i>
   <i type="logical" name="LTETE"> F  </i>
   <i type="logical" name="LTRIPLET"> F  </i>
   <i type="logical" name="LFXCEPS"> F  </i>
   <i type="logical" name="L2ORDER"> F  </i>
   <i type="logical" name="LUSEW"> F  </i>
   <i name="ENCUTGW">     -2.00000000</i>
   <i name="ENCUTGWSOFT">     -2.00000000</i>
   <i name="ENCUTLF">     -1.00000000</i>
   <i type="int" name="LMAXMP2">    -1</i>
   <i name="SCISSOR">      0.00000000</i>
   <i type="int" name="NOMEGA">     0</i>
   <i type="int" name="NOMEGAR">     0</i>
   <i type="int" name="NBANDSGW">    -1</i>
   <i type="int" name="NBANDSO">    -1</i>
   <i type="int" name="NBANDSV">    -1</i>
   <i type="int" name="NELM">     1</i>
   <i type="int" name="DIM">     3</i>
   <i type="int" name="ANTIRES">     0</i>
   <i name="OMEGAMAX">    -30.00000000</i>
   <i name="OMEGATL">   -200.00000000</i>
   <i type="int" name="OMEGAGRID">     0</i>
   <i name="CSHIFT">     -0.10000000</i>
   <i type="logical" name="SELFENERGY"> F  </i>
   <i type="logical" name="LSPECTRAL"> F  </i>
   <i type="logical" name="ODDONLYGW"> F  </i>
   <i type="logical" name="EVENONLYGW"> F  </i>
   <i type="int" name="NKREDLFX">     1</i>
   <i type="int" name="NKREDLFY">     1</i>
   <i type="int" name="NKREDLFZ">     1</i>
   <i type="int" name="MAXMEM">  1800</i>
   <i type="int" name="TELESCOPE">     0</i>
  </separator>
 </parameters>
 <atominfo>
  <atoms>      12 </atoms>
  <types>       3 </types>
  <array name="atoms" >
   <dimension dim="1">ion</dimension>
   <field type="string">element</field>
   <field type="int">atomtype</field>
   <set>
    <rc><c>Cu</c><c>   1</c></rc>
    <rc><c>Cu</c><c>   1</c></rc>
    <rc><c>Cu</c><c>   1</c></rc>
    <rc><c>Cu</c><c>   1</c></rc>
    <rc><c>Ge</c><c>   2</c></rc>
    <rc><c>Ge</c><c>   2</c></rc>
    <rc><c>S </c><c>   3</c></rc>
    <rc><c>S </c><c>   3</c></rc>
    <rc><c>S </c><c>   3</c></rc>
    <rc><c>S </c><c>   3</c></rc>
    <rc><c>S </c><c>   3</c></rc>
    <rc><c>S </c><c>   3</c></rc>
   </set>
  </array>
  <array name="atomtypes" >
   <dimension dim="1">type</dimension>
   <field type="int">atomspertype</field>
   <field type="string">element</field>
   <field>mass</field>
   <field>valence</field>
   <field type="string">pseudopotential</field>
   <set>
    <rc><c>   4</c><c>Cu</c><c>     63.54600000</c><c>     17.00000000</c><c>  PAW_PBE Cu_pv 06Sep2000               </c></rc>
    <rc><c>   2</c><c>Ge</c><c>     72.61000000</c><c>      4.00000000</c><c>  PAW_PBE Ge 05Jan2001                  </c></rc>
    <rc><c>   6</c><c>S </c><c>     32.06600000</c><c>      6.00000000</c><c>  PAW_PBE S 17Jan2003                   </c></rc>
   </set>
  </array>
 </atominfo>
 <structure name="initialpos" >
  <crystal>
   <varray name="basis" >
    <v>       3.22479600      -5.64383000       0.03157200 </v>
    <v>       3.22479600       5.64383000       0.03157200 </v>
    <v>      -2.10194600       0.00000000       6.07553700 </v>
   </varray>
   <i name="volume">    221.90106089 </i>
   <varray name="rec_basis" >
    <v>       0.15452516      -0.08859232       0.05346088 </v>
    <v>       0.15452516       0.08859232       0.05346088 </v>
    <v>      -0.00160600       0.00000000       0.16403888 </v>
   </varray>
  </crystal>
  <varray name="positions" >
   <v>       0.61844300       0.12117100       0.11953300 </v>
   <v>       0.12117100       0.61844300       0.61953300 </v>
   <v>       0.96295700       0.79032200       0.11881300 </v>
   <v>       0.79032200       0.96295700       0.61881300 </v>
   <v>       0.43973200       0.26728100       0.59904700 </v>
   <v>       0.26728100       0.43973200       0.09904700 </v>
   <v>       0.07795960       0.91167500       0.49736300 </v>
   <v>       0.57140300       0.41236400       0.98018400 </v>
   <v>       0.73711100       0.25006200       0.49504900 </v>
   <v>       0.41236400       0.57140300       0.48018400 </v>
   <v>       0.91167500       0.07949800       0.99736300 </v>
   <v>       0.25006200       0.73711100       0.99504900 </v>
  </varray>
 </structure>
 <calculation>
  <scstep>
   <time name="total">  248.35  248.14</time>
   <energy>
    <i name="alphaZ">    339.31929130 </i>
    <i name="ewald">  -9064.06463612 </i>
    <i name="hartreedc">  -8067.44731597 </i>
    <i name="XCdc">    369.90396503 </i>
    <i name="pawpsdc">  16899.28072424 </i>
    <i name="pawaedc"> -17392.09339670 </i>
    <i name="eentropy">     -0.00146641 </i>
    <i name="bandstr">  -1657.79093390 </i>
    <i name="atom">  18320.98302006 </i>
    <i name="e_fr_energy">     75.54044376 </i>
    <i name="e_wo_entrp">     75.54191017 </i>
    <i name="e_0_energy">     75.54093257 </i>
   </energy>
  </scstep>
  <scstep>
   <time name="total">  252.50  252.30</time>
   <energy>
    <i name="e_fr_energy">     -8.37404258 </i>
    <i name="e_wo_entrp">     -8.37335973 </i>
    <i name="e_0_energy">     -8.37381497 </i>
   </energy>
  </scstep>
  <scstep>
   <time name="total">  251.82  251.60</time>
   <energy>
    <i name="e_fr_energy">    -15.16749220 </i>
    <i name="e_wo_entrp">    -15.16773102 </i>
    <i name="e_0_energy">    -15.16757181 </i>
   </energy>
  </scstep>
  <scstep>
   <time name="total">  256.32  256.33</time>
   <energy>
    <i name="e_fr_energy">    -22.65243918 </i>
    <i name="e_wo_entrp">    -22.65279724 </i>
    <i name="e_0_energy">    -22.65255853 </i>
   </energy>
  </scstep>
  <scstep>
   <time name="total">  255.22  255.01</time>
   <energy>
    <i name="e_fr_energy">    -60.82977698 </i>
    <i name="e_wo_entrp">    -60.83040368 </i>
    <i name="e_0_energy">    -60.82998588 </i>
   </energy>
  </scstep>
  <scstep>
   <time name="total">  256.35  256.13</time>
   <energy>
    <i name="e_fr_energy">    -65.94640265 </i>
    <i name="e_wo_entrp">    -65.94704619 </i>
    <i name="e_0_energy">    -65.94661716 </i>
   </energy>
  </scstep>
  <scstep>
   <time name="total">  257.08  256.88</time>
   <energy>
    <i name="e_fr_energy">    -67.48123098 </i>
    <i name="e_wo_entrp">    -67.48164940 </i>
    <i name="e_0_energy">    -67.48137045 </i>
   </energy>
  </scstep>
  <scstep>
   <time name="total">  256.93  256.72</time>
   <energy>
    <i name="e_fr_energy">    -69.08650497 </i>
    <i name="e_wo_entrp">    -69.08721472 </i>
    <i name="e_0_energy">    -69.08674155 </i>
   </energy>
  </scstep>
  <scstep>
   <time name="total">  256.00  255.79</time>
   <energy>
    <i name="e_fr_energy">    -69.39556971 </i>
    <i name="e_wo_entrp">    -69.39640953 </i>
    <i name="e_0_energy">    -69.39584965 </i>
   </energy>
  </scstep>
  <scstep>
   <time name="total">  256.35  256.14</time>
   <energy>
    <i name="e_fr_energy">    -69.49902991 </i>
    <i name="e_wo_entrp">    -69.49970225 </i>
    <i name="e_0_energy">    -69.49925402 </i>
   </energy>
  </scstep>
  <scstep>
   <time name="total">  255.96  255.76</time>
   <energy>
    <i name="e_fr_energy">    -69.56843554 </i>
    <i name="e_wo_entrp">    -69.56900815 </i>
    <i name="e_0_energy">    -69.56862641 </i>
   </energy>
  </scstep>
  <scstep>
   <time name="total">  256.44  256.23</time>
   <energy>
    <i name="e_fr_energy">    -69.58079010 </i>
    <i name="e_wo_entrp">    -69.58131520 </i>
    <i name="e_0_energy">    -69.58096513 </i>
   </energy>
  </scstep>
  <scstep>
   <time name="total">  256.82  256.60</time>
   <energy>
    <i name="e_fr_energy">    -69.59041193 </i>
    <i name="e_wo_entrp">    -69.59092464 </i>
    <i name="e_0_energy">    -69.59058283 </i>
   </energy>
  </scstep>
  <scstep>
   <time name="total">  256.93  256.73</time>
   <energy>
    <i name="e_fr_energy">    -69.59286056 </i>
    <i name="e_wo_entrp">    -69.59338824 </i>
    <i name="e_0_energy">    -69.59303645 </i>
   </energy>
  </scstep>
  <scstep>
   <time name="total">  256.74  256.56</time>
   <energy>
    <i name="e_fr_energy">    -69.59435916 </i>
    <i name="e_wo_entrp">    -69.59489850 </i>
    <i name="e_0_energy">    -69.59453894 </i>
   </energy>
  </scstep>
  <scstep>
   <time name="total">  254.74  254.53</time>
   <energy>
    <i name="e_fr_energy">    -69.59492704 </i>
    <i name="e_wo_entrp">    -69.59546769 </i>
    <i name="e_0_energy">    -69.59510726 </i>
   </energy>
  </scstep>
  <scstep>
   <time name="total">  255.45  255.25</time>
   <energy>
    <i name="e_fr_energy">    -69.59509909 </i>
    <i name="e_wo_entrp">    -69.59563739 </i>
    <i name="e_0_energy">    -69.59527853 </i>
   </energy>
  </scstep>
  <scstep>
   <time name="total">  255.62  255.40</time>
   <energy>
    <i name="e_fr_energy">    -69.59521547 </i>
    <i name="e_wo_entrp">    -69.59575105 </i>
    <i name="e_0_energy">    -69.59539399 </i>
   </energy>
  </scstep>
  <scstep>
   <time name="total">  255.91  255.70</time>
   <energy>
    <i name="e_fr_energy">    -69.59524410 </i>
    <i name="e_wo_entrp">    -69.59577827 </i>
    <i name="e_0_energy">    -69.59542216 </i>
   </energy>
  </scstep>
  <scstep>
   <time name="total">  254.72  254.51</time>
   <energy>
    <i name="e_fr_energy">    -69.59526369 </i>
    <i name="e_wo_entrp">    -69.59579812 </i>
    <i name="e_0_energy">    -69.59544184 </i>
   </energy>
  </scstep>
  <scstep>
   <time name="total">  254.47  254.26</time>
   <energy>
    <i name="alphaZ">    339.31929130 </i>
    <i name="ewald">  -9064.06463612 </i>
    <i name="hartreedc">  -8149.99804308 </i>
    <i name="XCdc">    372.06478281 </i>
    <i name="pawpsdc">  15921.32639010 </i>
    <i name="pawaedc"> -16406.53027189 </i>
    <i name="eentropy">      0.00053496 </i>
    <i name="bandstr">  -1742.75478484 </i>
    <i name="atom">  18320.98302006 </i>
    <i name="e_fr_energy">    -69.59527101 </i>
    <i name="e_wo_entrp">    -69.59580597 </i>
    <i name="e_0_energy">    -69.59544933 </i>
   </energy>
  </scstep>
  <structure>
   <crystal>
    <varray name="basis" >
     <v>       3.22479600      -5.64383000       0.03157200 </v>
     <v>       3.22479600       5.64383000       0.03157200 </v>
     <v>      -2.10194600       0.00000000       6.07553700 </v>
    </varray>
    <i name="volume">    221.90106089 </i>
    <varray name="rec_basis" >
     <v>       0.15452516      -0.08859232       0.05346088 </v>
     <v>       0.15452516       0.08859232       0.05346088 </v>
     <v>      -0.00160600       0.00000000       0.16403888 </v>
    </varray>
   </crystal>
   <varray name="positions" >
    <v>       0.61844300       0.12117100       0.11953300 </v>
    <v>       0.12117100       0.61844300       0.61953300 </v>
    <v>       0.96295700       0.79032200       0.11881300 </v>
    <v>       0.79032200       0.96295700       0.61881300 </v>
    <v>       0.43973200       0.26728100       0.59904700 </v>
    <v>       0.26728100       0.43973200       0.09904700 </v>
    <v>       0.07795960       0.91167500       0.49736300 </v>
    <v>       0.57140300       0.41236400       0.98018400 </v>
    <v>       0.73711100       0.25006200       0.49504900 </v>
    <v>       0.41236400       0.57140300       0.48018400 </v>
    <v>       0.91167500       0.07949800       0.99736300 </v>
    <v>       0.25006200       0.73711100       0.99504900 </v>
   </varray>
  </structure>
  <varray name="forces" >
   <v>      -0.00175853      -0.00155656       0.00057465 </v>
   <v>       0.00576497       0.01657992      -0.00704715 </v>
   <v>       0.00124881      -0.00222828       0.00458280 </v>
   <v>      -0.00838509       0.02565241       0.00984212 </v>
   <v>      -0.05357192       0.01491568      -0.01262337 </v>
   <v>      -0.00133205      -0.00692792       0.00143131 </v>
   <v>       0.07707953      -0.07312851       0.00510497 </v>
   <v>      -0.00179918      -0.00740985      -0.00236149 </v>
   <v>      -0.01428535       0.01046828      -0.00180768 </v>
   <v>      -0.00330693       0.01774515       0.00042596 </v>
   <v>       0.00220773       0.00356531       0.00189158 </v>
   <v>      -0.00186200       0.00232437      -0.00001371 </v>
  </varray>
  <energy>
   <i name="e_fr_energy">    -69.59527101 </i>
   <i name="e_wo_entrp">    -69.59544933 </i>
   <i name="e_0_energy">      0.00053496 </i>
  </energy>
  <time name="totalsc"> 5852.80 5849.87</time>
  <eigenvalues>
   <array>
    <dimension dim="1">band</dimension>
    <dimension dim="2">kpoint</dimension>
    <dimension dim="3">spin</dimension>
    <field>eigene</field>
    <field>occ</field>
    <set>
     <set comment="spin 1">
      <set comment="kpoint 1">
       <r>  -68.6458    1.0000 </r>
       <r>  -68.6415    1.0000 </r>
       <r>  -68.6407    1.0000 </r>
       <r>  -68.6329    1.0000 </r>
       <r>  -68.6139    1.0000 </r>
       <r>  -68.6095    1.0000 </r>
       <r>  -68.5965    1.0000 </r>
       <r>  -68.5923    1.0000 </r>
       <r>  -68.5857    1.0000 </r>
       <r>  -68.5767    1.0000 </r>
       <r>  -68.5699    1.0000 </r>
       <r>  -68.5601    1.0000 </r>
       <r>  -12.7193    1.0000 </r>
       <r>  -11.1270    1.0000 </r>
       <r>  -10.9157    1.0000 </r>
       <r>  -10.6017    1.0000 </r>
       <r>  -10.2517    1.0000 </r>
       <r>  -10.2329    1.0000 </r>
       <r>   -5.9859    1.0000 </r>
       <r>   -4.9825    1.0000 </r>
       <r>   -2.7602    1.0000 </r>
       <r>   -2.2080    1.0000 </r>
       <r>   -2.0709    1.0000 </r>
       <r>   -1.9186    1.0000 </r>
       <r>   -1.5778    1.0000 </r>
       <r>   -0.9836    1.0000 </r>
       <r>   -0.9565    1.0000 </r>
       <r>   -0.6815    1.0000 </r>
       <r>   -0.3986    1.0000 </r>
       <r>   -0.2774    1.0000 </r>
       <r>   -0.2618    1.0000 </r>
       <r>   -0.2389    1.0000 </r>
       <r>   -0.1909    1.0000 </r>
       <r>   -0.1564    1.0000 </r>
       <r>   -0.0411    1.0000 </r>
       <r>    0.0330    1.0000 </r>
       <r>    1.3493    1.0000 </r>
       <r>    1.3622    1.0000 </r>
       <r>    1.4128    1.0000 </r>
       <r>    1.4552    1.0000 </r>
       <r>    1.4707    1.0000 </r>
       <r>    1.4720    1.0000 </r>
       <r>    1.5199    1.0000 </r>
       <r>    1.5318    1.0000 </r>
       <r>    1.5744    1.0000 </r>
       <r>    1.7097    1.0000 </r>
       <r>    1.8938    1.0000 </r>
       <r>    1.9290    1.0000 </r>
       <r>    2.0579    1.0000 </r>
       <r>    2.6485    1.0000 </r>
       <r>    2.7312    1.0000 </r>
       <r>    3.0913    1.0000 </r>
       <r>    3.2178    1.0000 </r>
       <r>    4.0078    1.0044 </r>
       <r>    4.0378    1.0118 </r>
       <r>    4.1748    0.8709 </r>
       <r>    5.5348   -0.0000 </r>
       <r>    6.3537   -0.0000 </r>
       <r>    7.6310    0.0000 </r>
       <r>    7.9855    0.0000 </r>
       <r>    8.6158    0.0000 </r>
       <r>    8.7904    0.0000 </r>
       <r>    9.5712    0.0000 </r>
       <r>    9.7369    0.0000 </r>
       <r>    9.8128    0.0000 </r>
       <r>   10.4189    0.0000 </r>
       <r>   10.5861    0.0000 </r>
       <r>   10.6930    0.0000 </r>
       <r>   10.7122    0.0000 </r>
       <r>   11.2838    0.0000 </r>
       <r>   11.7083    0.0000 </r>
       <r>   12.3933    0.0000 </r>
       <r>   12.4560    0.0000 </r>
       <r>   12.7272    0.0000 </r>
       <r>   13.3279    0.0000 </r>
       <r>   13.3815    0.0000 </r>
       <r>   13.8352    0.0000 </r>
       <r>   13.8843    0.0000 </r>
       <r>   14.1412    0.0000 </r>
       <r>   14.1779    0.0000 </r>
      </set>
      <set comment="kpoint 2">
       <r>  -68.6458    1.0000 </r>
       <r>  -68.6415    1.0000 </r>
       <r>  -68.6407    1.0000 </r>
       <r>  -68.6328    1.0000 </r>
       <r>  -68.6138    1.0000 </r>
       <r>  -68.6094    1.0000 </r>
       <r>  -68.5965    1.0000 </r>
       <r>  -68.5923    1.0000 </r>
       <r>  -68.5856    1.0000 </r>
       <r>  -68.5766    1.0000 </r>
       <r>  -68.5698    1.0000 </r>
       <r>  -68.5600    1.0000 </r>
       <r>  -12.5941    1.0000 </r>
       <r>  -11.1251    1.0000 </r>
       <r>  -10.9823    1.0000 </r>
       <r>  -10.6727    1.0000 </r>
       <r>  -10.3665    1.0000 </r>
       <r>  -10.2771    1.0000 </r>
       <r>   -5.9342    1.0000 </r>
       <r>   -4.7719    1.0000 </r>
       <r>   -2.6454    1.0000 </r>
       <r>   -2.2501    1.0000 </r>
       <r>   -2.0872    1.0000 </r>
       <r>   -1.6879    1.0000 </r>
       <r>   -1.3446    1.0000 </r>
       <r>   -0.9990    1.0000 </r>
       <r>   -0.7696    1.0000 </r>
       <r>   -0.6197    1.0000 </r>
       <r>   -0.5540    1.0000 </r>
       <r>   -0.4403    1.0000 </r>
       <r>   -0.3624    1.0000 </r>
       <r>   -0.2428    1.0000 </r>
       <r>   -0.1919    1.0000 </r>
       <r>   -0.1709    1.0000 </r>
       <r>   -0.0490    1.0000 </r>
       <r>    0.0396    1.0000 </r>
       <r>    1.2782    1.0000 </r>
       <r>    1.3327    1.0000 </r>
       <r>    1.3532    1.0000 </r>
       <r>    1.3926    1.0000 </r>
       <r>    1.4265    1.0000 </r>
       <r>    1.4715    1.0000 </r>
       <r>    1.4964    1.0000 </r>
       <r>    1.5303    1.0000 </r>
       <r>    1.7229    1.0000 </r>
       <r>    1.8601    1.0000 </r>
       <r>    2.0563    1.0000 </r>
       <r>    2.0933    1.0000 </r>
       <r>    2.2309    1.0000 </r>
       <r>    2.4137    1.0000 </r>
       <r>    2.5563    1.0000 </r>
       <r>    2.8253    1.0000 </r>
       <r>    2.9477    1.0000 </r>
       <r>    3.2430    1.0000 </r>
       <r>    3.6637    1.0000 </r>
       <r>    4.0423    1.0134 </r>
       <r>    6.1696   -0.0000 </r>
       <r>    6.9027   -0.0000 </r>
       <r>    8.1384    0.0000 </r>
       <r>    8.2685    0.0000 </r>
       <r>    8.5893    0.0000 </r>
       <r>    9.0058    0.0000 </r>
       <r>    9.2416    0.0000 </r>
       <r>    9.5329    0.0000 </r>
       <r>    9.8638    0.0000 </r>
       <r>   10.3733    0.0000 </r>
       <r>   10.6348    0.0000 </r>
       <r>   10.8169    0.0000 </r>
       <r>   10.9422    0.0000 </r>
       <r>   11.1888    0.0000 </r>
       <r>   11.6576    0.0000 </r>
       <r>   11.7686    0.0000 </r>
       <r>   12.1196    0.0000 </r>
       <r>   12.4448    0.0000 </r>
       <r>   12.6187    0.0000 </r>
       <r>   13.0064    0.0000 </r>
       <r>   13.5073    0.0000 </r>
       <r>   13.8742    0.0000 </r>
       <r>   14.2168    0.0000 </r>
       <r>   14.7091    0.0000 </r>
      </set>
      <set comment="kpoint 3">
       <r>  -68.6456    1.0000 </r>
       <r>  -68.6414    1.0000 </r>
       <r>  -68.6405    1.0000 </r>
       <r>  -68.6328    1.0000 </r>
       <r>  -68.6138    1.0000 </r>
       <r>  -68.6093    1.0000 </r>
       <r>  -68.5964    1.0000 </r>
       <r>  -68.5922    1.0000 </r>
       <r>  -68.5856    1.0000 </r>
       <r>  -68.5765    1.0000 </r>
       <r>  -68.5697    1.0000 </r>
       <r>  -68.5599    1.0000 </r>
       <r>  -12.4343    1.0000 </r>
       <r>  -11.2494    1.0000 </r>
       <r>  -10.9556    1.0000 </r>
       <r>  -10.7581    1.0000 </r>
       <r>  -10.4283    1.0000 </r>
       <r>  -10.3582    1.0000 </r>
       <r>   -5.8717    1.0000 </r>
       <r>   -4.5467    1.0000 </r>
       <r>   -2.4927    1.0000 </r>
       <r>   -2.2455    1.0000 </r>
       <r>   -1.9461    1.0000 </r>
       <r>   -1.4626    1.0000 </r>
       <r>   -1.2253    1.0000 </r>
       <r>   -1.0988    1.0000 </r>
       <r>   -0.9017    1.0000 </r>
       <r>   -0.8646    1.0000 </r>
       <r>   -0.5988    1.0000 </r>
       <r>   -0.5335    1.0000 </r>
       <r>   -0.2726    1.0000 </r>
       <r>   -0.2142    1.0000 </r>
       <r>   -0.2033    1.0000 </r>
       <r>   -0.1441    1.0000 </r>
       <r>   -0.0324    1.0000 </r>
       <r>    0.0813    1.0000 </r>
       <r>    1.2520    1.0000 </r>
       <r>    1.3253    1.0000 </r>
       <r>    1.3479    1.0000 </r>
       <r>    1.3960    1.0000 </r>
       <r>    1.4718    1.0000 </r>
       <r>    1.4755    1.0000 </r>
       <r>    1.4990    1.0000 </r>
       <r>    1.5538    1.0000 </r>
       <r>    1.7510    1.0000 </r>
       <r>    1.7913    1.0000 </r>
       <r>    1.9650    1.0000 </r>
       <r>    2.1469    1.0000 </r>
       <r>    2.3189    1.0000 </r>
       <r>    2.3615    1.0000 </r>
       <r>    2.5541    1.0000 </r>
       <r>    2.6708    1.0000 </r>
       <r>    2.9382    1.0000 </r>
       <r>    3.0778    1.0000 </r>
       <r>    3.2551    1.0000 </r>
       <r>    3.8642    1.0000 </r>
       <r>    6.3843   -0.0000 </r>
       <r>    7.0939    0.0000 </r>
       <r>    7.9716    0.0000 </r>
       <r>    8.2056    0.0000 </r>
       <r>    8.5196    0.0000 </r>
       <r>    8.8195    0.0000 </r>
       <r>    9.3271    0.0000 </r>
       <r>    9.8922    0.0000 </r>
       <r>   10.0073    0.0000 </r>
       <r>   10.5174    0.0000 </r>
       <r>   10.6922    0.0000 </r>
       <r>   10.7916    0.0000 </r>
       <r>   11.1421    0.0000 </r>
       <r>   11.4102    0.0000 </r>
       <r>   11.6063    0.0000 </r>
       <r>   11.7780    0.0000 </r>
       <r>   11.9470    0.0000 </r>
       <r>   12.5068    0.0000 </r>
       <r>   12.7803    0.0000 </r>
       <r>   13.0045    0.0000 </r>
       <r>   13.3905    0.0000 </r>
       <r>   13.5422    0.0000 </r>
       <r>   13.9348    0.0000 </r>
       <r>   14.2697    0.0000 </r>
      </set>
      <set comment="kpoint 4">
       <r>  -68.6457    1.0000 </r>
       <r>  -68.6415    1.0000 </r>
       <r>  -68.6407    1.0000 </r>
       <r>  -68.6328    1.0000 </r>
       <r>  -68.6138    1.0000 </r>
       <r>  -68.6094    1.0000 </r>
       <r>  -68.5965    1.0000 </r>
       <r>  -68.5923    1.0000 </r>
       <r>  -68.5856    1.0000 </r>
       <r>  -68.5766    1.0000 </r>
       <r>  -68.5699    1.0000 </r>
       <r>  -68.5600    1.0000 </r>
       <r>  -12.5945    1.0000 </r>
       <r>  -11.1224    1.0000 </r>
       <r>  -10.9824    1.0000 </r>
       <r>  -10.6760    1.0000 </r>
       <r>  -10.3666    1.0000 </r>
       <r>  -10.2755    1.0000 </r>
       <r>   -5.9341    1.0000 </r>
       <r>   -4.7736    1.0000 </r>
       <r>   -2.6451    1.0000 </r>
       <r>   -2.2506    1.0000 </r>
       <r>   -2.0869    1.0000 </r>
       <r>   -1.6882    1.0000 </r>
       <r>   -1.3441    1.0000 </r>
       <r>   -0.9978    1.0000 </r>
       <r>   -0.7687    1.0000 </r>
       <r>   -0.6225    1.0000 </r>
       <r>   -0.5514    1.0000 </r>
       <r>   -0.4387    1.0000 </r>
       <r>   -0.3620    1.0000 </r>
       <r>   -0.2421    1.0000 </r>
       <r>   -0.1935    1.0000 </r>
       <r>   -0.1743    1.0000 </r>
       <r>   -0.0470    1.0000 </r>
       <r>    0.0396    1.0000 </r>
       <r>    1.2788    1.0000 </r>
       <r>    1.3348    1.0000 </r>
       <r>    1.3533    1.0000 </r>
       <r>    1.3905    1.0000 </r>
       <r>    1.4274    1.0000 </r>
       <r>    1.4713    1.0000 </r>
       <r>    1.4980    1.0000 </r>
       <r>    1.5281    1.0000 </r>
       <r>    1.7238    1.0000 </r>
       <r>    1.8579    1.0000 </r>
       <r>    2.0557    1.0000 </r>
       <r>    2.0964    1.0000 </r>
       <r>    2.2313    1.0000 </r>
       <r>    2.4137    1.0000 </r>
       <r>    2.5557    1.0000 </r>
       <r>    2.8242    1.0000 </r>
       <r>    2.9470    1.0000 </r>
       <r>    3.2433    1.0000 </r>
       <r>    3.6644    1.0000 </r>
       <r>    4.0422    1.0134 </r>
       <r>    6.1678   -0.0000 </r>
       <r>    6.9016   -0.0000 </r>
       <r>    8.1343    0.0000 </r>
       <r>    8.2670    0.0000 </r>
       <r>    8.5944    0.0000 </r>
       <r>    9.0140    0.0000 </r>
       <r>    9.2427    0.0000 </r>
       <r>    9.5232    0.0000 </r>
       <r>    9.8670    0.0000 </r>
       <r>   10.3740    0.0000 </r>
       <r>   10.6330    0.0000 </r>
       <r>   10.8139    0.0000 </r>
       <r>   10.9402    0.0000 </r>
       <r>   11.1912    0.0000 </r>
       <r>   11.6559    0.0000 </r>
       <r>   11.7716    0.0000 </r>
       <r>   12.1183    0.0000 </r>
       <r>   12.4431    0.0000 </r>
       <r>   12.6175    0.0000 </r>
       <r>   13.0082    0.0000 </r>
       <r>   13.5175    0.0000 </r>
       <r>   13.9043    0.0000 </r>
       <r>   14.2691    0.0000 </r>
       <r>   14.8269    0.0000 </r>
      </set>
      <set comment="kpoint 5">
       <r>  -68.6458    1.0000 </r>
       <r>  -68.6414    1.0000 </r>
       <r>  -68.6407    1.0000 </r>
       <r>  -68.6327    1.0000 </r>
       <r>  -68.6140    1.0000 </r>
       <r>  -68.6095    1.0000 </r>
       <r>  -68.5964    1.0000 </r>
       <r>  -68.5922    1.0000 </r>
       <r>  -68.5857    1.0000 </r>
       <r>  -68.5767    1.0000 </r>
       <r>  -68.5699    1.0000 </r>
       <r>  -68.5601    1.0000 </r>
       <r>  -12.4387    1.0000 </r>
       <r>  -11.1874    1.0000 </r>
       <r>  -10.9425    1.0000 </r>
       <r>  -10.8762    1.0000 </r>
       <r>  -10.3885    1.0000 </r>
       <r>  -10.3514    1.0000 </r>
       <r>   -5.8769    1.0000 </r>
       <r>   -4.5218    1.0000 </r>
       <r>   -2.4177    1.0000 </r>
       <r>   -2.2439    1.0000 </r>
       <r>   -1.7932    1.0000 </r>
       <r>   -1.6790    1.0000 </r>
       <r>   -1.3552    1.0000 </r>
       <r>   -1.2971    1.0000 </r>
       <r>   -1.0795    1.0000 </r>
       <r>   -0.6822    1.0000 </r>
       <r>   -0.5258    1.0000 </r>
       <r>   -0.2960    1.0000 </r>
       <r>   -0.2825    1.0000 </r>
       <r>   -0.2253    1.0000 </r>
       <r>   -0.1912    1.0000 </r>
       <r>   -0.1282    1.0000 </r>
       <r>   -0.0936    1.0000 </r>
       <r>    0.0804    1.0000 </r>
       <r>    1.2924    1.0000 </r>
       <r>    1.3101    1.0000 </r>
       <r>    1.4151    1.0000 </r>
       <r>    1.4260    1.0000 </r>
       <r>    1.4632    1.0000 </r>
       <r>    1.4814    1.0000 </r>
       <r>    1.4929    1.0000 </r>
       <r>    1.5683    1.0000 </r>
       <r>    1.6703    1.0000 </r>
       <r>    1.8804    1.0000 </r>
       <r>    1.9389    1.0000 </r>
       <r>    2.1342    1.0000 </r>
       <r>    2.2796    1.0000 </r>
       <r>    2.3197    1.0000 </r>
       <r>    2.5603    1.0000 </r>
       <r>    2.6506    1.0000 </r>
       <r>    2.9013    1.0000 </r>
       <r>    2.9459    1.0000 </r>
       <r>    3.7008    1.0000 </r>
       <r>    3.8349    1.0000 </r>
       <r>    6.1695   -0.0000 </r>
       <r>    6.9883    0.0000 </r>
       <r>    8.0036    0.0000 </r>
       <r>    8.3198    0.0000 </r>
       <r>    8.4332    0.0000 </r>
       <r>    8.5702    0.0000 </r>
       <r>    9.1460    0.0000 </r>
       <r>    9.2458    0.0000 </r>
       <r>   10.3617    0.0000 </r>
       <r>   10.4926    0.0000 </r>
       <r>   10.9182    0.0000 </r>
       <r>   11.1862    0.0000 </r>
       <r>   11.3316    0.0000 </r>
       <r>   11.5572    0.0000 </r>
       <r>   11.8184    0.0000 </r>
       <r>   11.9628    0.0000 </r>
       <r>   12.3189    0.0000 </r>
       <r>   12.5042    0.0000 </r>
       <r>   12.7140    0.0000 </r>
       <r>   12.9084    0.0000 </r>
       <r>   13.3391    0.0000 </r>
       <r>   13.4487    0.0000 </r>
       <r>   14.2567    0.0000 </r>
       <r>   14.3663    0.0000 </r>
      </set>
      <set comment="kpoint 6">
       <r>  -68.6455    1.0000 </r>
       <r>  -68.6414    1.0000 </r>
       <r>  -68.6406    1.0000 </r>
       <r>  -68.6328    1.0000 </r>
       <r>  -68.6137    1.0000 </r>
       <r>  -68.6093    1.0000 </r>
       <r>  -68.5964    1.0000 </r>
       <r>  -68.5922    1.0000 </r>
       <r>  -68.5856    1.0000 </r>
       <r>  -68.5765    1.0000 </r>
       <r>  -68.5697    1.0000 </r>
       <r>  -68.5599    1.0000 </r>
       <r>  -12.4390    1.0000 </r>
       <r>  -11.3518    1.0000 </r>
       <r>  -10.9372    1.0000 </r>
       <r>  -10.7341    1.0000 </r>
       <r>  -10.3903    1.0000 </r>
       <r>  -10.2704    1.0000 </r>
       <r>   -5.9483    1.0000 </r>
       <r>   -4.6422    1.0000 </r>
       <r>   -2.3916    1.0000 </r>
       <r>   -2.2255    1.0000 </r>
       <r>   -2.0569    1.0000 </r>
       <r>   -1.6386    1.0000 </r>
       <r>   -1.3619    1.0000 </r>
       <r>   -1.2817    1.0000 </r>
       <r>   -1.0200    1.0000 </r>
       <r>   -0.5116    1.0000 </r>
       <r>   -0.4896    1.0000 </r>
       <r>   -0.3279    1.0000 </r>
       <r>   -0.2839    1.0000 </r>
       <r>   -0.2160    1.0000 </r>
       <r>   -0.1519    1.0000 </r>
       <r>   -0.1332    1.0000 </r>
       <r>   -0.0118    1.0000 </r>
       <r>    0.1113    1.0000 </r>
       <r>    1.2455    1.0000 </r>
       <r>    1.3145    1.0000 </r>
       <r>    1.3809    1.0000 </r>
       <r>    1.4356    1.0000 </r>
       <r>    1.4608    1.0000 </r>
       <r>    1.4906    1.0000 </r>
       <r>    1.4957    1.0000 </r>
       <r>    1.5494    1.0000 </r>
       <r>    1.7494    1.0000 </r>
       <r>    1.8268    1.0000 </r>
       <r>    1.9212    1.0000 </r>
       <r>    2.1332    1.0000 </r>
       <r>    2.2206    1.0000 </r>
       <r>    2.3859    1.0000 </r>
       <r>    2.5621    1.0000 </r>
       <r>    2.7886    1.0000 </r>
       <r>    2.9803    1.0000 </r>
       <r>    3.3117    1.0000 </r>
       <r>    3.6046    1.0000 </r>
       <r>    3.7515    1.0000 </r>
       <r>    6.0856   -0.0000 </r>
       <r>    6.9359   -0.0000 </r>
       <r>    7.6108    0.0000 </r>
       <r>    8.0669    0.0000 </r>
       <r>    8.4053    0.0000 </r>
       <r>    8.6123    0.0000 </r>
       <r>    8.9836    0.0000 </r>
       <r>    9.1551    0.0000 </r>
       <r>   10.0827    0.0000 </r>
       <r>   10.3341    0.0000 </r>
       <r>   10.7372    0.0000 </r>
       <r>   11.1067    0.0000 </r>
       <r>   11.4647    0.0000 </r>
       <r>   11.5940    0.0000 </r>
       <r>   11.8002    0.0000 </r>
       <r>   12.0875    0.0000 </r>
       <r>   12.4771    0.0000 </r>
       <r>   12.9216    0.0000 </r>
       <r>   13.0336    0.0000 </r>
       <r>   13.8356    0.0000 </r>
       <r>   14.1923    0.0000 </r>
       <r>   14.6497    0.0000 </r>
       <r>   15.4422    0.0000 </r>
       <r>   15.6429    0.0000 </r>
      </set>
      <set comment="kpoint 7">
       <r>  -68.6458    1.0000 </r>
       <r>  -68.6415    1.0000 </r>
       <r>  -68.6407    1.0000 </r>
       <r>  -68.6328    1.0000 </r>
       <r>  -68.6138    1.0000 </r>
       <r>  -68.6093    1.0000 </r>
       <r>  -68.5965    1.0000 </r>
       <r>  -68.5923    1.0000 </r>
       <r>  -68.5856    1.0000 </r>
       <r>  -68.5765    1.0000 </r>
       <r>  -68.5698    1.0000 </r>
       <r>  -68.5600    1.0000 </r>
       <r>  -12.5973    1.0000 </r>
       <r>  -11.2478    1.0000 </r>
       <r>  -10.9912    1.0000 </r>
       <r>  -10.5667    1.0000 </r>
       <r>  -10.3687    1.0000 </r>
       <r>  -10.1783    1.0000 </r>
       <r>   -6.0106    1.0000 </r>
       <r>   -4.8947    1.0000 </r>
       <r>   -2.6464    1.0000 </r>
       <r>   -2.3141    1.0000 </r>
       <r>   -1.9726    1.0000 </r>
       <r>   -1.6434    1.0000 </r>
       <r>   -1.4953    1.0000 </r>
       <r>   -1.1814    1.0000 </r>
       <r>   -0.7879    1.0000 </r>
       <r>   -0.5902    1.0000 </r>
       <r>   -0.4465    1.0000 </r>
       <r>   -0.3352    1.0000 </r>
       <r>   -0.2928    1.0000 </r>
       <r>   -0.2329    1.0000 </r>
       <r>   -0.1761    1.0000 </r>
       <r>   -0.1320    1.0000 </r>
       <r>   -0.0091    1.0000 </r>
       <r>    0.0700    1.0000 </r>
       <r>    1.2586    1.0000 </r>
       <r>    1.3193    1.0000 </r>
       <r>    1.3655    1.0000 </r>
       <r>    1.4212    1.0000 </r>
       <r>    1.4283    1.0000 </r>
       <r>    1.4744    1.0000 </r>
       <r>    1.5018    1.0000 </r>
       <r>    1.5439    1.0000 </r>
       <r>    1.7254    1.0000 </r>
       <r>    1.8109    1.0000 </r>
       <r>    1.9945    1.0000 </r>
       <r>    2.0719    1.0000 </r>
       <r>    2.4186    1.0000 </r>
       <r>    2.4624    1.0000 </r>
       <r>    2.5271    1.0000 </r>
       <r>    2.8736    1.0000 </r>
       <r>    3.1429    1.0000 </r>
       <r>    3.2299    1.0000 </r>
       <r>    3.7859    1.0000 </r>
       <r>    4.0704    1.0256 </r>
       <r>    5.9759   -0.0000 </r>
       <r>    6.6851   -0.0000 </r>
       <r>    7.5328    0.0000 </r>
       <r>    8.2212    0.0000 </r>
       <r>    8.6162    0.0000 </r>
       <r>    8.9098    0.0000 </r>
       <r>    9.3103    0.0000 </r>
       <r>    9.4286    0.0000 </r>
       <r>    9.8031    0.0000 </r>
       <r>   10.2722    0.0000 </r>
       <r>   10.5398    0.0000 </r>
       <r>   10.8284    0.0000 </r>
       <r>   10.9740    0.0000 </r>
       <r>   11.3796    0.0000 </r>
       <r>   11.4758    0.0000 </r>
       <r>   11.7327    0.0000 </r>
       <r>   12.1045    0.0000 </r>
       <r>   12.6610    0.0000 </r>
       <r>   12.9426    0.0000 </r>
       <r>   13.1028    0.0000 </r>
       <r>   13.3491    0.0000 </r>
       <r>   13.5221    0.0000 </r>
       <r>   14.4825    0.0000 </r>
       <r>   14.7543    0.0000 </r>
      </set>
      <set comment="kpoint 8">
       <r>  -68.6456    1.0000 </r>
       <r>  -68.6414    1.0000 </r>
       <r>  -68.6405    1.0000 </r>
       <r>  -68.6327    1.0000 </r>
       <r>  -68.6138    1.0000 </r>
       <r>  -68.6094    1.0000 </r>
       <r>  -68.5964    1.0000 </r>
       <r>  -68.5922    1.0000 </r>
       <r>  -68.5855    1.0000 </r>
       <r>  -68.5766    1.0000 </r>
       <r>  -68.5698    1.0000 </r>
       <r>  -68.5599    1.0000 </r>
       <r>  -12.4355    1.0000 </r>
       <r>  -11.2436    1.0000 </r>
       <r>  -10.9562    1.0000 </r>
       <r>  -10.7645    1.0000 </r>
       <r>  -10.4283    1.0000 </r>
       <r>  -10.3553    1.0000 </r>
       <r>   -5.8718    1.0000 </r>
       <r>   -4.5505    1.0000 </r>
       <r>   -2.4936    1.0000 </r>
       <r>   -2.2440    1.0000 </r>
       <r>   -1.9413    1.0000 </r>
       <r>   -1.4607    1.0000 </r>
       <r>   -1.2260    1.0000 </r>
       <r>   -1.1040    1.0000 </r>
       <r>   -0.8996    1.0000 </r>
       <r>   -0.8651    1.0000 </r>
       <r>   -0.5969    1.0000 </r>
       <r>   -0.5372    1.0000 </r>
       <r>   -0.2756    1.0000 </r>
       <r>   -0.2088    1.0000 </r>
       <r>   -0.2049    1.0000 </r>
       <r>   -0.1444    1.0000 </r>
       <r>   -0.0291    1.0000 </r>
       <r>    0.0804    1.0000 </r>
       <r>    1.2535    1.0000 </r>
       <r>    1.3272    1.0000 </r>
       <r>    1.3454    1.0000 </r>
       <r>    1.3973    1.0000 </r>
       <r>    1.4692    1.0000 </r>
       <r>    1.4782    1.0000 </r>
       <r>    1.5013    1.0000 </r>
       <r>    1.5517    1.0000 </r>
       <r>    1.7515    1.0000 </r>
       <r>    1.7889    1.0000 </r>
       <r>    1.9695    1.0000 </r>
       <r>    2.1460    1.0000 </r>
       <r>    2.3214    1.0000 </r>
       <r>    2.3614    1.0000 </r>
       <r>    2.5560    1.0000 </r>
       <r>    2.6703    1.0000 </r>
       <r>    2.9328    1.0000 </r>
       <r>    3.0780    1.0000 </r>
       <r>    3.2527    1.0000 </r>
       <r>    3.8642    1.0000 </r>
       <r>    6.3825   -0.0000 </r>
       <r>    7.0956    0.0000 </r>
       <r>    7.9816    0.0000 </r>
       <r>    8.2029    0.0000 </r>
       <r>    8.5146    0.0000 </r>
       <r>    8.8184    0.0000 </r>
       <r>    9.3209    0.0000 </r>
       <r>    9.8881    0.0000 </r>
       <r>   10.0132    0.0000 </r>
       <r>   10.5161    0.0000 </r>
       <r>   10.6855    0.0000 </r>
       <r>   10.7916    0.0000 </r>
       <r>   11.1372    0.0000 </r>
       <r>   11.4113    0.0000 </r>
       <r>   11.6099    0.0000 </r>
       <r>   11.7844    0.0000 </r>
       <r>   11.9479    0.0000 </r>
       <r>   12.5039    0.0000 </r>
       <r>   12.8233    0.0000 </r>
       <r>   13.0344    0.0000 </r>
       <r>   13.5496    0.0000 </r>
       <r>   13.6840    0.0000 </r>
       <r>   14.5530    0.0000 </r>
       <r>   15.2469    0.0000 </r>
      </set>
      <set comment="kpoint 9">
       <r>  -68.6455    1.0000 </r>
       <r>  -68.6413    1.0000 </r>
       <r>  -68.6406    1.0000 </r>
       <r>  -68.6328    1.0000 </r>
       <r>  -68.6137    1.0000 </r>
       <r>  -68.6093    1.0000 </r>
       <r>  -68.5964    1.0000 </r>
       <r>  -68.5922    1.0000 </r>
       <r>  -68.5855    1.0000 </r>
       <r>  -68.5765    1.0000 </r>
       <r>  -68.5698    1.0000 </r>
       <r>  -68.5599    1.0000 </r>
       <r>  -12.4396    1.0000 </r>
       <r>  -11.3494    1.0000 </r>
       <r>  -10.9375    1.0000 </r>
       <r>  -10.7366    1.0000 </r>
       <r>  -10.3902    1.0000 </r>
       <r>  -10.2692    1.0000 </r>
       <r>   -5.9484    1.0000 </r>
       <r>   -4.6436    1.0000 </r>
       <r>   -2.3915    1.0000 </r>
       <r>   -2.2258    1.0000 </r>
       <r>   -2.0567    1.0000 </r>
       <r>   -1.6401    1.0000 </r>
       <r>   -1.3622    1.0000 </r>
       <r>   -1.2806    1.0000 </r>
       <r>   -1.0188    1.0000 </r>
       <r>   -0.5117    1.0000 </r>
       <r>   -0.4820    1.0000 </r>
       <r>   -0.3330    1.0000 </r>
       <r>   -0.2827    1.0000 </r>
       <r>   -0.2166    1.0000 </r>
       <r>   -0.1553    1.0000 </r>
       <r>   -0.1344    1.0000 </r>
       <r>   -0.0096    1.0000 </r>
       <r>    0.1120    1.0000 </r>
       <r>    1.2458    1.0000 </r>
       <r>    1.3153    1.0000 </r>
       <r>    1.3821    1.0000 </r>
       <r>    1.4364    1.0000 </r>
       <r>    1.4624    1.0000 </r>
       <r>    1.4899    1.0000 </r>
       <r>    1.4959    1.0000 </r>
       <r>    1.5470    1.0000 </r>
       <r>    1.7477    1.0000 </r>
       <r>    1.8273    1.0000 </r>
       <r>    1.9226    1.0000 </r>
       <r>    2.1335    1.0000 </r>
       <r>    2.2215    1.0000 </r>
       <r>    2.3849    1.0000 </r>
       <r>    2.5608    1.0000 </r>
       <r>    2.7912    1.0000 </r>
       <r>    2.9770    1.0000 </r>
       <r>    3.3127    1.0000 </r>
       <r>    3.6042    1.0000 </r>
       <r>    3.7511    1.0000 </r>
       <r>    6.0844   -0.0000 </r>
       <r>    6.9344   -0.0000 </r>
       <r>    7.6093    0.0000 </r>
       <r>    8.0657    0.0000 </r>
       <r>    8.4087    0.0000 </r>
       <r>    8.6176    0.0000 </r>
       <r>    8.9806    0.0000 </r>
       <r>    9.1524    0.0000 </r>
       <r>   10.0876    0.0000 </r>
       <r>   10.3352    0.0000 </r>
       <r>   10.7321    0.0000 </r>
       <r>   11.1086    0.0000 </r>
       <r>   11.4600    0.0000 </r>
       <r>   11.5770    0.0000 </r>
       <r>   11.7836    0.0000 </r>
       <r>   12.0287    0.0000 </r>
       <r>   12.5188    0.0000 </r>
       <r>   12.6808    0.0000 </r>
       <r>   12.9197    0.0000 </r>
       <r>   13.2122    0.0000 </r>
       <r>   14.2258    0.0000 </r>
       <r>   14.7706    0.0000 </r>
       <r>   15.2571    0.0000 </r>
       <r>   15.9104    0.0000 </r>
      </set>
      <set comment="kpoint 10">
       <r>  -68.6454    1.0000 </r>
       <r>  -68.6412    1.0000 </r>
       <r>  -68.6404    1.0000 </r>
       <r>  -68.6326    1.0000 </r>
       <r>  -68.6136    1.0000 </r>
       <r>  -68.6092    1.0000 </r>
       <r>  -68.5962    1.0000 </r>
       <r>  -68.5921    1.0000 </r>
       <r>  -68.5854    1.0000 </r>
       <r>  -68.5764    1.0000 </r>
       <r>  -68.5695    1.0000 </r>
       <r>  -68.5597    1.0000 </r>
       <r>  -12.4315    1.0000 </r>
       <r>  -11.4976    1.0000 </r>
       <r>  -10.9129    1.0000 </r>
       <r>  -10.6145    1.0000 </r>
       <r>  -10.3992    1.0000 </r>
       <r>  -10.1977    1.0000 </r>
       <r>   -6.0266    1.0000 </r>
       <r>   -4.8112    1.0000 </r>
       <r>   -2.3119    1.0000 </r>
       <r>   -2.2647    1.0000 </r>
       <r>   -2.0919    1.0000 </r>
       <r>   -1.7028    1.0000 </r>
       <r>   -1.2465    1.0000 </r>
       <r>   -1.1073    1.0000 </r>
       <r>   -0.8394    1.0000 </r>
       <r>   -0.7855    1.0000 </r>
       <r>   -0.7265    1.0000 </r>
       <r>   -0.2426    1.0000 </r>
       <r>   -0.1992    1.0000 </r>
       <r>   -0.1819    1.0000 </r>
       <r>   -0.1522    1.0000 </r>
       <r>   -0.0406    1.0000 </r>
       <r>   -0.0034    1.0000 </r>
       <r>    0.1822    1.0000 </r>
       <r>    1.2632    1.0000 </r>
       <r>    1.3176    1.0000 </r>
       <r>    1.3752    1.0000 </r>
       <r>    1.4122    1.0000 </r>
       <r>    1.4315    1.0000 </r>
       <r>    1.4926    1.0000 </r>
       <r>    1.5071    1.0000 </r>
       <r>    1.5494    1.0000 </r>
       <r>    1.7852    1.0000 </r>
       <r>    1.8462    1.0000 </r>
       <r>    1.9949    1.0000 </r>
       <r>    2.1501    1.0000 </r>
       <r>    2.2526    1.0000 </r>
       <r>    2.3359    1.0000 </r>
       <r>    2.5608    1.0000 </r>
       <r>    2.7624    1.0000 </r>
       <r>    2.7785    1.0000 </r>
       <r>    3.3696    1.0000 </r>
       <r>    3.7684    1.0000 </r>
       <r>    4.0060    1.0042 </r>
       <r>    5.8503   -0.0000 </r>
       <r>    6.7643   -0.0000 </r>
       <r>    7.0799    0.0000 </r>
       <r>    8.4091    0.0000 </r>
       <r>    8.5596    0.0000 </r>
       <r>    8.7612    0.0000 </r>
       <r>    9.1467    0.0000 </r>
       <r>    9.2393    0.0000 </r>
       <r>    9.9568    0.0000 </r>
       <r>   10.2805    0.0000 </r>
       <r>   10.7273    0.0000 </r>
       <r>   10.8240    0.0000 </r>
       <r>   10.8842    0.0000 </r>
       <r>   11.2739    0.0000 </r>
       <r>   11.7556    0.0000 </r>
       <r>   11.9231    0.0000 </r>
       <r>   11.9717    0.0000 </r>
       <r>   12.3607    0.0000 </r>
       <r>   12.5415    0.0000 </r>
       <r>   13.4616    0.0000 </r>
       <r>   14.2800    0.0000 </r>
       <r>   14.6685    0.0000 </r>
       <r>   16.7472    0.0000 </r>
       <r>   16.7538    0.0000 </r>
      </set>
      <set comment="kpoint 11">
       <r>  -68.6458    1.0000 </r>
       <r>  -68.6415    1.0000 </r>
       <r>  -68.6407    1.0000 </r>
       <r>  -68.6328    1.0000 </r>
       <r>  -68.6138    1.0000 </r>
       <r>  -68.6094    1.0000 </r>
       <r>  -68.5965    1.0000 </r>
       <r>  -68.5923    1.0000 </r>
       <r>  -68.5857    1.0000 </r>
       <r>  -68.5766    1.0000 </r>
       <r>  -68.5699    1.0000 </r>
       <r>  -68.5601    1.0000 </r>
       <r>  -12.6160    1.0000 </r>
       <r>  -11.4231    1.0000 </r>
       <r>  -10.7769    1.0000 </r>
       <r>  -10.6067    1.0000 </r>
       <r>  -10.2502    1.0000 </r>
       <r>  -10.2352    1.0000 </r>
       <r>   -5.8320    1.0000 </r>
       <r>   -5.0460    1.0000 </r>
       <r>   -2.5997    1.0000 </r>
       <r>   -2.3724    1.0000 </r>
       <r>   -1.9591    1.0000 </r>
       <r>   -1.7742    1.0000 </r>
       <r>   -1.4439    1.0000 </r>
       <r>   -1.1298    1.0000 </r>
       <r>   -1.0641    1.0000 </r>
       <r>   -0.7704    1.0000 </r>
       <r>   -0.4709    1.0000 </r>
       <r>   -0.2932    1.0000 </r>
       <r>   -0.2409    1.0000 </r>
       <r>   -0.2360    1.0000 </r>
       <r>   -0.1915    1.0000 </r>
       <r>   -0.1480    1.0000 </r>
       <r>   -0.0190    1.0000 </r>
       <r>    0.0245    1.0000 </r>
       <r>    1.3322    1.0000 </r>
       <r>    1.3809    1.0000 </r>
       <r>    1.4166    1.0000 </r>
       <r>    1.4385    1.0000 </r>
       <r>    1.4619    1.0000 </r>
       <r>    1.4665    1.0000 </r>
       <r>    1.5132    1.0000 </r>
       <r>    1.5444    1.0000 </r>
       <r>    1.6319    1.0000 </r>
       <r>    1.7581    1.0000 </r>
       <r>    1.7875    1.0000 </r>
       <r>    1.9521    1.0000 </r>
       <r>    2.0874    1.0000 </r>
       <r>    2.6611    1.0000 </r>
       <r>    2.7171    1.0000 </r>
       <r>    3.1960    1.0000 </r>
       <r>    3.2537    1.0000 </r>
       <r>    3.5209    1.0000 </r>
       <r>    3.8961    1.0000 </r>
       <r>    3.9778    1.0013 </r>
       <r>    6.0427   -0.0000 </r>
       <r>    6.4127   -0.0000 </r>
       <r>    7.8223    0.0000 </r>
       <r>    7.9095    0.0000 </r>
       <r>    8.3621    0.0000 </r>
       <r>    8.8189    0.0000 </r>
       <r>    9.7711    0.0000 </r>
       <r>    9.7951    0.0000 </r>
       <r>   10.0626    0.0000 </r>
       <r>   10.5853    0.0000 </r>
       <r>   10.6441    0.0000 </r>
       <r>   10.8128    0.0000 </r>
       <r>   10.8533    0.0000 </r>
       <r>   11.4943    0.0000 </r>
       <r>   11.5617    0.0000 </r>
       <r>   12.0289    0.0000 </r>
       <r>   12.5794    0.0000 </r>
       <r>   12.7769    0.0000 </r>
       <r>   12.9111    0.0000 </r>
       <r>   13.2060    0.0000 </r>
       <r>   13.5383    0.0000 </r>
       <r>   13.8227    0.0000 </r>
       <r>   14.1932    0.0000 </r>
       <r>   14.7124    0.0000 </r>
      </set>
      <set comment="kpoint 12">
       <r>  -68.6457    1.0000 </r>
       <r>  -68.6415    1.0000 </r>
       <r>  -68.6407    1.0000 </r>
       <r>  -68.6328    1.0000 </r>
       <r>  -68.6139    1.0000 </r>
       <r>  -68.6094    1.0000 </r>
       <r>  -68.5965    1.0000 </r>
       <r>  -68.5923    1.0000 </r>
       <r>  -68.5857    1.0000 </r>
       <r>  -68.5766    1.0000 </r>
       <r>  -68.5698    1.0000 </r>
       <r>  -68.5600    1.0000 </r>
       <r>  -12.4567    1.0000 </r>
       <r>  -11.4647    1.0000 </r>
       <r>  -10.8646    1.0000 </r>
       <r>  -10.6855    1.0000 </r>
       <r>  -10.3717    1.0000 </r>
       <r>  -10.2458    1.0000 </r>
       <r>   -5.7674    1.0000 </r>
       <r>   -4.8031    1.0000 </r>
       <r>   -2.4434    1.0000 </r>
       <r>   -2.2335    1.0000 </r>
       <r>   -1.8493    1.0000 </r>
       <r>   -1.7147    1.0000 </r>
       <r>   -1.4308    1.0000 </r>
       <r>   -1.1879    1.0000 </r>
       <r>   -0.8913    1.0000 </r>
       <r>   -0.7449    1.0000 </r>
       <r>   -0.6084    1.0000 </r>
       <r>   -0.5213    1.0000 </r>
       <r>   -0.3113    1.0000 </r>
       <r>   -0.2440    1.0000 </r>
       <r>   -0.1722    1.0000 </r>
       <r>   -0.1260    1.0000 </r>
       <r>   -0.0556    1.0000 </r>
       <r>    0.0596    1.0000 </r>
       <r>    1.3016    1.0000 </r>
       <r>    1.3364    1.0000 </r>
       <r>    1.3691    1.0000 </r>
       <r>    1.4269    1.0000 </r>
       <r>    1.4458    1.0000 </r>
       <r>    1.4797    1.0000 </r>
       <r>    1.5205    1.0000 </r>
       <r>    1.5456    1.0000 </r>
       <r>    1.6424    1.0000 </r>
       <r>    1.8717    1.0000 </r>
       <r>    1.9776    1.0000 </r>
       <r>    2.0474    1.0000 </r>
       <r>    2.1945    1.0000 </r>
       <r>    2.4747    1.0000 </r>
       <r>    2.5942    1.0000 </r>
       <r>    2.8391    1.0000 </r>
       <r>    2.9631    1.0000 </r>
       <r>    3.1335    1.0000 </r>
       <r>    3.5701    1.0000 </r>
       <r>    3.7266    1.0000 </r>
       <r>    6.4406   -0.0000 </r>
       <r>    6.9551    0.0000 </r>
       <r>    8.1678    0.0000 </r>
       <r>    8.2439    0.0000 </r>
       <r>    8.8338    0.0000 </r>
       <r>    9.1259    0.0000 </r>
       <r>    9.4579    0.0000 </r>
       <r>    9.7943    0.0000 </r>
       <r>   10.0828    0.0000 </r>
       <r>   10.3028    0.0000 </r>
       <r>   10.7438    0.0000 </r>
       <r>   11.0770    0.0000 </r>
       <r>   11.2886    0.0000 </r>
       <r>   11.4295    0.0000 </r>
       <r>   11.6341    0.0000 </r>
       <r>   11.7262    0.0000 </r>
       <r>   12.0860    0.0000 </r>
       <r>   12.2701    0.0000 </r>
       <r>   12.5375    0.0000 </r>
       <r>   12.6599    0.0000 </r>
       <r>   12.9560    0.0000 </r>
       <r>   13.0587    0.0000 </r>
       <r>   13.6404    0.0000 </r>
       <r>   14.6916    0.0000 </r>
      </set>
      <set comment="kpoint 13">
       <r>  -68.6455    1.0000 </r>
       <r>  -68.6413    1.0000 </r>
       <r>  -68.6406    1.0000 </r>
       <r>  -68.6327    1.0000 </r>
       <r>  -68.6138    1.0000 </r>
       <r>  -68.6093    1.0000 </r>
       <r>  -68.5964    1.0000 </r>
       <r>  -68.5921    1.0000 </r>
       <r>  -68.5856    1.0000 </r>
       <r>  -68.5765    1.0000 </r>
       <r>  -68.5698    1.0000 </r>
       <r>  -68.5600    1.0000 </r>
       <r>  -12.3540    1.0000 </r>
       <r>  -11.4119    1.0000 </r>
       <r>  -10.9532    1.0000 </r>
       <r>  -10.6795    1.0000 </r>
       <r>  -10.4782    1.0000 </r>
       <r>  -10.3349    1.0000 </r>
       <r>   -5.7525    1.0000 </r>
       <r>   -4.7208    1.0000 </r>
       <r>   -2.5215    1.0000 </r>
       <r>   -2.1847    1.0000 </r>
       <r>   -1.9538    1.0000 </r>
       <r>   -1.5353    1.0000 </r>
       <r>   -1.2985    1.0000 </r>
       <r>   -1.0965    1.0000 </r>
       <r>   -0.8687    1.0000 </r>
       <r>   -0.7551    1.0000 </r>
       <r>   -0.5499    1.0000 </r>
       <r>   -0.4435    1.0000 </r>
       <r>   -0.2923    1.0000 </r>
       <r>   -0.1841    1.0000 </r>
       <r>   -0.1441    1.0000 </r>
       <r>   -0.1099    1.0000 </r>
       <r>   -0.0470    1.0000 </r>
       <r>    0.0237    1.0000 </r>
       <r>    1.2703    1.0000 </r>
       <r>    1.2971    1.0000 </r>
       <r>    1.3520    1.0000 </r>
       <r>    1.4270    1.0000 </r>
       <r>    1.4522    1.0000 </r>
       <r>    1.4798    1.0000 </r>
       <r>    1.4987    1.0000 </r>
       <r>    1.5876    1.0000 </r>
       <r>    1.7179    1.0000 </r>
       <r>    1.9317    1.0000 </r>
       <r>    2.0742    1.0000 </r>
       <r>    2.1462    1.0000 </r>
       <r>    2.2660    1.0000 </r>
       <r>    2.4019    1.0000 </r>
       <r>    2.5676    1.0000 </r>
       <r>    2.5974    1.0000 </r>
       <r>    2.9001    1.0000 </r>
       <r>    3.0106    1.0000 </r>
       <r>    3.3633    1.0000 </r>
       <r>    3.9003    1.0000 </r>
       <r>    6.3642   -0.0000 </r>
       <r>    6.8948   -0.0000 </r>
       <r>    7.5655    0.0000 </r>
       <r>    8.0857    0.0000 </r>
       <r>    8.5465    0.0000 </r>
       <r>    8.7973    0.0000 </r>
       <r>    9.2808    0.0000 </r>
       <r>    9.6274    0.0000 </r>
       <r>    9.9298    0.0000 </r>
       <r>   10.2752    0.0000 </r>
       <r>   10.6670    0.0000 </r>
       <r>   10.9268    0.0000 </r>
       <r>   10.9711    0.0000 </r>
       <r>   11.2795    0.0000 </r>
       <r>   11.5198    0.0000 </r>
       <r>   11.7884    0.0000 </r>
       <r>   12.2515    0.0000 </r>
       <r>   12.5504    0.0000 </r>
       <r>   13.0900    0.0000 </r>
       <r>   13.5285    0.0000 </r>
       <r>   14.2944    0.0000 </r>
       <r>   14.5737    0.0000 </r>
       <r>   15.1173    0.0000 </r>
       <r>   16.2614    0.0000 </r>
      </set>
      <set comment="kpoint 14">
       <r>  -68.6458    1.0000 </r>
       <r>  -68.6415    1.0000 </r>
       <r>  -68.6407    1.0000 </r>
       <r>  -68.6328    1.0000 </r>
       <r>  -68.6139    1.0000 </r>
       <r>  -68.6094    1.0000 </r>
       <r>  -68.5965    1.0000 </r>
       <r>  -68.5923    1.0000 </r>
       <r>  -68.5857    1.0000 </r>
       <r>  -68.5766    1.0000 </r>
       <r>  -68.5699    1.0000 </r>
       <r>  -68.5601    1.0000 </r>
       <r>  -12.5395    1.0000 </r>
       <r>  -11.3349    1.0000 </r>
       <r>  -10.8730    1.0000 </r>
       <r>  -10.6030    1.0000 </r>
       <r>  -10.3990    1.0000 </r>
       <r>  -10.2819    1.0000 </r>
       <r>   -5.8256    1.0000 </r>
       <r>   -4.9737    1.0000 </r>
       <r>   -2.6651    1.0000 </r>
       <r>   -2.4523    1.0000 </r>
       <r>   -2.0366    1.0000 </r>
       <r>   -1.5763    1.0000 </r>
       <r>   -1.1710    1.0000 </r>
       <r>   -0.9821    1.0000 </r>
       <r>   -0.7926    1.0000 </r>
       <r>   -0.6539    1.0000 </r>
       <r>   -0.5170    1.0000 </r>
       <r>   -0.3972    1.0000 </r>
       <r>   -0.2696    1.0000 </r>
       <r>   -0.2563    1.0000 </r>
       <r>   -0.1919    1.0000 </r>
       <r>   -0.1444    1.0000 </r>
       <r>   -0.0474    1.0000 </r>
       <r>    0.0148    1.0000 </r>
       <r>    1.2886    1.0000 </r>
       <r>    1.3097    1.0000 </r>
       <r>    1.3851    1.0000 </r>
       <r>    1.4092    1.0000 </r>
       <r>    1.4333    1.0000 </r>
       <r>    1.4566    1.0000 </r>
       <r>    1.4911    1.0000 </r>
       <r>    1.5637    1.0000 </r>
       <r>    1.6873    1.0000 </r>
       <r>    1.9152    1.0000 </r>
       <r>    1.9846    1.0000 </r>
       <r>    2.1454    1.0000 </r>
       <r>    2.3327    1.0000 </r>
       <r>    2.5670    1.0000 </r>
       <r>    2.6169    1.0000 </r>
       <r>    2.8299    1.0000 </r>
       <r>    2.9732    1.0000 </r>
       <r>    3.2500    1.0000 </r>
       <r>    3.6835    1.0000 </r>
       <r>    3.9453    1.0003 </r>
       <r>    6.1770   -0.0000 </r>
       <r>    6.6356   -0.0000 </r>
       <r>    7.7671    0.0000 </r>
       <r>    7.9722    0.0000 </r>
       <r>    8.2097    0.0000 </r>
       <r>    8.5625    0.0000 </r>
       <r>    9.3801    0.0000 </r>
       <r>    9.5728    0.0000 </r>
       <r>    9.9073    0.0000 </r>
       <r>   10.2491    0.0000 </r>
       <r>   10.5437    0.0000 </r>
       <r>   10.7881    0.0000 </r>
       <r>   10.8423    0.0000 </r>
       <r>   11.0719    0.0000 </r>
       <r>   11.5684    0.0000 </r>
       <r>   12.0224    0.0000 </r>
       <r>   12.5263    0.0000 </r>
       <r>   12.7524    0.0000 </r>
       <r>   12.9522    0.0000 </r>
       <r>   13.3071    0.0000 </r>
       <r>   13.4106    0.0000 </r>
       <r>   13.7433    0.0000 </r>
       <r>   13.8498    0.0000 </r>
       <r>   14.7248    0.0000 </r>
      </set>
      <set comment="kpoint 15">
       <r>  -68.6457    1.0000 </r>
       <r>  -68.6415    1.0000 </r>
       <r>  -68.6406    1.0000 </r>
       <r>  -68.6328    1.0000 </r>
       <r>  -68.6139    1.0000 </r>
       <r>  -68.6094    1.0000 </r>
       <r>  -68.5965    1.0000 </r>
       <r>  -68.5923    1.0000 </r>
       <r>  -68.5857    1.0000 </r>
       <r>  -68.5766    1.0000 </r>
       <r>  -68.5698    1.0000 </r>
       <r>  -68.5600    1.0000 </r>
       <r>  -12.4572    1.0000 </r>
       <r>  -11.4638    1.0000 </r>
       <r>  -10.8619    1.0000 </r>
       <r>  -10.6892    1.0000 </r>
       <r>  -10.3719    1.0000 </r>
       <r>  -10.2447    1.0000 </r>
       <r>   -5.7676    1.0000 </r>
       <r>   -4.8047    1.0000 </r>
       <r>   -2.4438    1.0000 </r>
       <r>   -2.2331    1.0000 </r>
       <r>   -1.8470    1.0000 </r>
       <r>   -1.7132    1.0000 </r>
       <r>   -1.4325    1.0000 </r>
       <r>   -1.1881    1.0000 </r>
       <r>   -0.8899    1.0000 </r>
       <r>   -0.7449    1.0000 </r>
       <r>   -0.6074    1.0000 </r>
       <r>   -0.5226    1.0000 </r>
       <r>   -0.3137    1.0000 </r>
       <r>   -0.2449    1.0000 </r>
       <r>   -0.1737    1.0000 </r>
       <r>   -0.1260    1.0000 </r>
       <r>   -0.0531    1.0000 </r>
       <r>    0.0609    1.0000 </r>
       <r>    1.3004    1.0000 </r>
       <r>    1.3351    1.0000 </r>
       <r>    1.3685    1.0000 </r>
       <r>    1.4313    1.0000 </r>
       <r>    1.4464    1.0000 </r>
       <r>    1.4791    1.0000 </r>
       <r>    1.5195    1.0000 </r>
       <r>    1.5472    1.0000 </r>
       <r>    1.6403    1.0000 </r>
       <r>    1.8700    1.0000 </r>
       <r>    1.9807    1.0000 </r>
       <r>    2.0462    1.0000 </r>
       <r>    2.1959    1.0000 </r>
       <r>    2.4752    1.0000 </r>
       <r>    2.5958    1.0000 </r>
       <r>    2.8391    1.0000 </r>
       <r>    2.9627    1.0000 </r>
       <r>    3.1315    1.0000 </r>
       <r>    3.5706    1.0000 </r>
       <r>    3.7259    1.0000 </r>
       <r>    6.4395   -0.0000 </r>
       <r>    6.9535   -0.0000 </r>
       <r>    8.1705    0.0000 </r>
       <r>    8.2428    0.0000 </r>
       <r>    8.8301    0.0000 </r>
       <r>    9.1271    0.0000 </r>
       <r>    9.4630    0.0000 </r>
       <r>    9.7920    0.0000 </r>
       <r>   10.0845    0.0000 </r>
       <r>   10.3005    0.0000 </r>
       <r>   10.7435    0.0000 </r>
       <r>   11.0790    0.0000 </r>
       <r>   11.2921    0.0000 </r>
       <r>   11.4230    0.0000 </r>
       <r>   11.6333    0.0000 </r>
       <r>   11.7215    0.0000 </r>
       <r>   12.0819    0.0000 </r>
       <r>   12.2685    0.0000 </r>
       <r>   12.5470    0.0000 </r>
       <r>   12.6567    0.0000 </r>
       <r>   12.9568    0.0000 </r>
       <r>   13.0622    0.0000 </r>
       <r>   13.6545    0.0000 </r>
       <r>   14.6933    0.0000 </r>
      </set>
      <set comment="kpoint 16">
       <r>  -68.6456    1.0000 </r>
       <r>  -68.6413    1.0000 </r>
       <r>  -68.6406    1.0000 </r>
       <r>  -68.6327    1.0000 </r>
       <r>  -68.6137    1.0000 </r>
       <r>  -68.6093    1.0000 </r>
       <r>  -68.5963    1.0000 </r>
       <r>  -68.5921    1.0000 </r>
       <r>  -68.5855    1.0000 </r>
       <r>  -68.5765    1.0000 </r>
       <r>  -68.5697    1.0000 </r>
       <r>  -68.5599    1.0000 </r>
       <r>  -12.3252    1.0000 </r>
       <r>  -11.4721    1.0000 </r>
       <r>  -10.8619    1.0000 </r>
       <r>  -10.8567    1.0000 </r>
       <r>  -10.4040    1.0000 </r>
       <r>  -10.2877    1.0000 </r>
       <r>   -5.7489    1.0000 </r>
       <r>   -4.6918    1.0000 </r>
       <r>   -2.2419    1.0000 </r>
       <r>   -2.1362    1.0000 </r>
       <r>   -1.9279    1.0000 </r>
       <r>   -1.8489    1.0000 </r>
       <r>   -1.4525    1.0000 </r>
       <r>   -1.3961    1.0000 </r>
       <r>   -1.0365    1.0000 </r>
       <r>   -0.5187    1.0000 </r>
       <r>   -0.4613    1.0000 </r>
       <r>   -0.3509    1.0000 </r>
       <r>   -0.2519    1.0000 </r>
       <r>   -0.2201    1.0000 </r>
       <r>   -0.1623    1.0000 </r>
       <r>   -0.1129    1.0000 </r>
       <r>   -0.0913    1.0000 </r>
       <r>    0.0799    1.0000 </r>
       <r>    1.2620    1.0000 </r>
       <r>    1.3471    1.0000 </r>
       <r>    1.3947    1.0000 </r>
       <r>    1.4346    1.0000 </r>
       <r>    1.4518    1.0000 </r>
       <r>    1.5093    1.0000 </r>
       <r>    1.5350    1.0000 </r>
       <r>    1.5437    1.0000 </r>
       <r>    1.7515    1.0000 </r>
       <r>    1.8170    1.0000 </r>
       <r>    2.0385    1.0000 </r>
       <r>    2.1357    1.0000 </r>
       <r>    2.2844    1.0000 </r>
       <r>    2.3105    1.0000 </r>
       <r>    2.5209    1.0000 </r>
       <r>    2.7705    1.0000 </r>
       <r>    2.8981    1.0000 </r>
       <r>    3.2619    1.0000 </r>
       <r>    3.4983    1.0000 </r>
       <r>    3.8025    1.0000 </r>
       <r>    6.1819   -0.0000 </r>
       <r>    6.8384   -0.0000 </r>
       <r>    7.8243    0.0000 </r>
       <r>    8.0425    0.0000 </r>
       <r>    8.1859    0.0000 </r>
       <r>    8.7270    0.0000 </r>
       <r>    9.1494    0.0000 </r>
       <r>    9.3075    0.0000 </r>
       <r>   10.2224    0.0000 </r>
       <r>   10.4420    0.0000 </r>
       <r>   10.5911    0.0000 </r>
       <r>   11.0021    0.0000 </r>
       <r>   11.2419    0.0000 </r>
       <r>   11.4881    0.0000 </r>
       <r>   11.8149    0.0000 </r>
       <r>   12.1724    0.0000 </r>
       <r>   12.2079    0.0000 </r>
       <r>   12.5731    0.0000 </r>
       <r>   12.6932    0.0000 </r>
       <r>   13.1127    0.0000 </r>
       <r>   13.4188    0.0000 </r>
       <r>   13.8814    0.0000 </r>
       <r>   14.0026    0.0000 </r>
       <r>   14.5305    0.0000 </r>
      </set>
      <set comment="kpoint 17">
       <r>  -68.6455    1.0000 </r>
       <r>  -68.6413    1.0000 </r>
       <r>  -68.6406    1.0000 </r>
       <r>  -68.6328    1.0000 </r>
       <r>  -68.6137    1.0000 </r>
       <r>  -68.6093    1.0000 </r>
       <r>  -68.5964    1.0000 </r>
       <r>  -68.5922    1.0000 </r>
       <r>  -68.5856    1.0000 </r>
       <r>  -68.5765    1.0000 </r>
       <r>  -68.5697    1.0000 </r>
       <r>  -68.5599    1.0000 </r>
       <r>  -12.3718    1.0000 </r>
       <r>  -11.4705    1.0000 </r>
       <r>  -10.9370    1.0000 </r>
       <r>  -10.6494    1.0000 </r>
       <r>  -10.4205    1.0000 </r>
       <r>  -10.3035    1.0000 </r>
       <r>   -5.8013    1.0000 </r>
       <r>   -4.8362    1.0000 </r>
       <r>   -2.5263    1.0000 </r>
       <r>   -2.2439    1.0000 </r>
       <r>   -1.8710    1.0000 </r>
       <r>   -1.6430    1.0000 </r>
       <r>   -1.5027    1.0000 </r>
       <r>   -1.3079    1.0000 </r>
       <r>   -0.8982    1.0000 </r>
       <r>   -0.5315    1.0000 </r>
       <r>   -0.3818    1.0000 </r>
       <r>   -0.3549    1.0000 </r>
       <r>   -0.2234    1.0000 </r>
       <r>   -0.1807    1.0000 </r>
       <r>   -0.1590    1.0000 </r>
       <r>   -0.0767    1.0000 </r>
       <r>   -0.0262    1.0000 </r>
       <r>    0.0784    1.0000 </r>
       <r>    1.1890    1.0000 </r>
       <r>    1.3628    1.0000 </r>
       <r>    1.3966    1.0000 </r>
       <r>    1.4412    1.0000 </r>
       <r>    1.4623    1.0000 </r>
       <r>    1.5067    1.0000 </r>
       <r>    1.5194    1.0000 </r>
       <r>    1.5829    1.0000 </r>
       <r>    1.7400    1.0000 </r>
       <r>    1.8151    1.0000 </r>
       <r>    2.0344    1.0000 </r>
       <r>    2.2351    1.0000 </r>
       <r>    2.2697    1.0000 </r>
       <r>    2.3645    1.0000 </r>
       <r>    2.4870    1.0000 </r>
       <r>    2.6697    1.0000 </r>
       <r>    3.0553    1.0000 </r>
       <r>    3.4135    1.0000 </r>
       <r>    3.7303    1.0000 </r>
       <r>    3.8630    1.0000 </r>
       <r>    5.9292   -0.0000 </r>
       <r>    6.6106   -0.0000 </r>
       <r>    7.3529    0.0000 </r>
       <r>    7.9362    0.0000 </r>
       <r>    8.0669    0.0000 </r>
       <r>    8.7257    0.0000 </r>
       <r>    8.9058    0.0000 </r>
       <r>    9.1346    0.0000 </r>
       <r>    9.8437    0.0000 </r>
       <r>   10.3278    0.0000 </r>
       <r>   10.5521    0.0000 </r>
       <r>   10.9290    0.0000 </r>
       <r>   11.2293    0.0000 </r>
       <r>   11.4153    0.0000 </r>
       <r>   11.7463    0.0000 </r>
       <r>   12.0033    0.0000 </r>
       <r>   12.4961    0.0000 </r>
       <r>   12.8352    0.0000 </r>
       <r>   13.2094    0.0000 </r>
       <r>   14.1793    0.0000 </r>
       <r>   14.7126    0.0000 </r>
       <r>   15.1473    0.0000 </r>
       <r>   15.9123    0.0000 </r>
       <r>   16.5643    0.0000 </r>
      </set>
      <set comment="kpoint 18">
       <r>  -68.6457    1.0000 </r>
       <r>  -68.6415    1.0000 </r>
       <r>  -68.6406    1.0000 </r>
       <r>  -68.6329    1.0000 </r>
       <r>  -68.6138    1.0000 </r>
       <r>  -68.6094    1.0000 </r>
       <r>  -68.5965    1.0000 </r>
       <r>  -68.5923    1.0000 </r>
       <r>  -68.5856    1.0000 </r>
       <r>  -68.5766    1.0000 </r>
       <r>  -68.5698    1.0000 </r>
       <r>  -68.5600    1.0000 </r>
       <r>  -12.4984    1.0000 </r>
       <r>  -11.4220    1.0000 </r>
       <r>  -10.9474    1.0000 </r>
       <r>  -10.5785    1.0000 </r>
       <r>  -10.3765    1.0000 </r>
       <r>  -10.2057    1.0000 </r>
       <r>   -5.8292    1.0000 </r>
       <r>   -4.9403    1.0000 </r>
       <r>   -2.5717    1.0000 </r>
       <r>   -2.3659    1.0000 </r>
       <r>   -1.9180    1.0000 </r>
       <r>   -1.5916    1.0000 </r>
       <r>   -1.4156    1.0000 </r>
       <r>   -1.1204    1.0000 </r>
       <r>   -0.8129    1.0000 </r>
       <r>   -0.6814    1.0000 </r>
       <r>   -0.5340    1.0000 </r>
       <r>   -0.4682    1.0000 </r>
       <r>   -0.2537    1.0000 </r>
       <r>   -0.2009    1.0000 </r>
       <r>   -0.1671    1.0000 </r>
       <r>   -0.1193    1.0000 </r>
       <r>   -0.0354    1.0000 </r>
       <r>    0.0586    1.0000 </r>
       <r>    1.2792    1.0000 </r>
       <r>    1.3237    1.0000 </r>
       <r>    1.3435    1.0000 </r>
       <r>    1.4329    1.0000 </r>
       <r>    1.4518    1.0000 </r>
       <r>    1.4685    1.0000 </r>
       <r>    1.4922    1.0000 </r>
       <r>    1.5553    1.0000 </r>
       <r>    1.7249    1.0000 </r>
       <r>    1.8424    1.0000 </r>
       <r>    1.9707    1.0000 </r>
       <r>    2.0974    1.0000 </r>
       <r>    2.3389    1.0000 </r>
       <r>    2.4477    1.0000 </r>
       <r>    2.5394    1.0000 </r>
       <r>    2.8526    1.0000 </r>
       <r>    3.0532    1.0000 </r>
       <r>    3.2656    1.0000 </r>
       <r>    3.6731    1.0000 </r>
       <r>    3.7832    1.0000 </r>
       <r>    6.2586   -0.0000 </r>
       <r>    6.7956   -0.0000 </r>
       <r>    7.8134    0.0000 </r>
       <r>    8.1353    0.0000 </r>
       <r>    8.3307    0.0000 </r>
       <r>    8.9326    0.0000 </r>
       <r>    9.3412    0.0000 </r>
[...]
       <r>   11.7107    0.0000 </r>
       <r>   11.8946    0.0000 </r>
       <r>   12.2999    0.0000 </r>
       <r>   12.6573    0.0000 </r>
       <r>   13.0094    0.0000 </r>
       <r>   13.2339    0.0000 </r>
       <r>   13.6644    0.0000 </r>
       <r>   14.0719    0.0000 </r>
       <r>   14.3944    0.0000 </r>
       <r>   16.5136    0.0000 </r>
      </set>
      <set comment="kpoint 42">
       <r>  -68.6457    1.0000 </r>
       <r>  -68.6412    1.0000 </r>
       <r>  -68.6407    1.0000 </r>
       <r>  -68.6326    1.0000 </r>
       <r>  -68.6137    1.0000 </r>
       <r>  -68.6094    1.0000 </r>
       <r>  -68.5963    1.0000 </r>
       <r>  -68.5921    1.0000 </r>
       <r>  -68.5856    1.0000 </r>
       <r>  -68.5765    1.0000 </r>
       <r>  -68.5698    1.0000 </r>
       <r>  -68.5600    1.0000 </r>
       <r>  -12.1768    1.0000 </r>
       <r>  -11.7040    1.0000 </r>
       <r>  -10.7142    1.0000 </r>
       <r>  -10.6925    1.0000 </r>
       <r>  -10.5853    1.0000 </r>
       <r>  -10.3918    1.0000 </r>
       <r>   -5.4463    1.0000 </r>
       <r>   -5.0726    1.0000 </r>
       <r>   -2.5056    1.0000 </r>
       <r>   -2.3796    1.0000 </r>
       <r>   -1.9644    1.0000 </r>
       <r>   -1.3640    1.0000 </r>
       <r>   -1.3318    1.0000 </r>
       <r>   -1.0533    1.0000 </r>
       <r>   -0.8308    1.0000 </r>
       <r>   -0.7670    1.0000 </r>
       <r>   -0.4240    1.0000 </r>
       <r>   -0.3386    1.0000 </r>
       <r>   -0.2710    1.0000 </r>
       <r>   -0.2122    1.0000 </r>
       <r>   -0.1451    1.0000 </r>
       <r>   -0.1393    1.0000 </r>
       <r>   -0.0135    1.0000 </r>
       <r>    0.0263    1.0000 </r>
       <r>    1.1724    1.0000 </r>
       <r>    1.3702    1.0000 </r>
       <r>    1.3965    1.0000 </r>
       <r>    1.4517    1.0000 </r>
       <r>    1.4542    1.0000 </r>
       <r>    1.4967    1.0000 </r>
       <r>    1.5162    1.0000 </r>
       <r>    1.5501    1.0000 </r>
       <r>    1.7422    1.0000 </r>
       <r>    1.8202    1.0000 </r>
       <r>    1.9749    1.0000 </r>
       <r>    2.2288    1.0000 </r>
       <r>    2.3970    1.0000 </r>
       <r>    2.6120    1.0000 </r>
       <r>    2.6543    1.0000 </r>
       <r>    2.9129    1.0000 </r>
       <r>    3.0713    1.0000 </r>
       <r>    3.1188    1.0000 </r>
       <r>    3.2874    1.0000 </r>
       <r>    3.5832    1.0000 </r>
       <r>    6.2892   -0.0000 </r>
       <r>    6.3764   -0.0000 </r>
       <r>    7.3571    0.0000 </r>
       <r>    7.5188    0.0000 </r>
       <r>    8.3057    0.0000 </r>
       <r>    8.3357    0.0000 </r>
       <r>    9.1036    0.0000 </r>
       <r>    9.3599    0.0000 </r>
       <r>    9.7188    0.0000 </r>
       <r>    9.9432    0.0000 </r>
       <r>   10.5258    0.0000 </r>
       <r>   10.9879    0.0000 </r>
       <r>   11.4271    0.0000 </r>
       <r>   11.5616    0.0000 </r>
       <r>   12.0255    0.0000 </r>
       <r>   12.2799    0.0000 </r>
       <r>   12.4316    0.0000 </r>
       <r>   12.4740    0.0000 </r>
       <r>   13.0356    0.0000 </r>
       <r>   13.1561    0.0000 </r>
       <r>   14.1415    0.0000 </r>
       <r>   14.4338    0.0000 </r>
       <r>   15.1637    0.0000 </r>
       <r>   15.8612    0.0000 </r>
      </set>
     </set>
    </set>
   </array>
  </eigenvalues>
  <separator name="orbital magnetization" >
   <v name="MAGDIPOLOUT">      0.00000000      0.00000000      0.00000000</v>
  </separator>
  <dos>
   <i name="efermi">      4.22491938 </i>
   <total>
    <array>
     <dimension dim="1">gridpoints</dimension>
     <dimension dim="2">spin</dimension>
     <field>energy</field>
     <field>total</field>
     <field>integrated</field>
     <set>
      <set comment="spin 1">
       <r>   -72.8301     0.0000     0.0000 </r>
       <r>   -72.5238     0.0000     0.0000 </r>
       <r>   -72.2174     0.0000     0.0000 </r>
       <r>   -71.9110     0.0000     0.0000 </r>
       <r>   -71.6046     0.0000     0.0000 </r>
       <r>   -71.2982     0.0000     0.0000 </r>
       <r>   -70.9918     0.0000     0.0000 </r>
       <r>   -70.6855     0.0000     0.0000 </r>
       <r>   -70.3791     0.0000     0.0000 </r>
       <r>   -70.0727     0.0000     0.0000 </r>
       <r>   -69.7663     0.0000     0.0000 </r>
       <r>   -69.4599    -0.0000    -0.0000 </r>
       <r>   -69.1536    -0.0000    -0.0000 </r>
       <r>   -68.8472    -0.2185    -0.0670 </r>
       <r>   -68.5408    70.7909    21.6220 </r>
       <r>   -68.2344     7.7618    24.0001 </r>
       <r>   -67.9280    -0.0003    24.0000 </r>
       <r>   -67.6217     0.0000    24.0000 </r>
       <r>   -67.3153     0.0000    24.0000 </r>
       <r>   -67.0089     0.0000    24.0000 </r>
       <r>   -66.7025     0.0000    24.0000 </r>
       <r>   -66.3961     0.0000    24.0000 </r>
       <r>   -66.0898     0.0000    24.0000 </r>
       <r>   -65.7834     0.0000    24.0000 </r>
       <r>   -65.4770     0.0000    24.0000 </r>
       <r>   -65.1706     0.0000    24.0000 </r>
       <r>   -64.8642     0.0000    24.0000 </r>
       <r>   -64.5578     0.0000    24.0000 </r>
       <r>   -64.2515     0.0000    24.0000 </r>
       <r>   -63.9451     0.0000    24.0000 </r>
       <r>   -63.6387     0.0000    24.0000 </r>
       <r>   -63.3323     0.0000    24.0000 </r>
       <r>   -63.0259     0.0000    24.0000 </r>
       <r>   -62.7196     0.0000    24.0000 </r>
       <r>   -62.4132     0.0000    24.0000 </r>
       <r>   -62.1068     0.0000    24.0000 </r>
       <r>   -61.8004     0.0000    24.0000 </r>
       <r>   -61.4940     0.0000    24.0000 </r>
       <r>   -61.1877     0.0000    24.0000 </r>
       <r>   -60.8813     0.0000    24.0000 </r>
       <r>   -60.5749     0.0000    24.0000 </r>
       <r>   -60.2685     0.0000    24.0000 </r>
       <r>   -59.9621     0.0000    24.0000 </r>
       <r>   -59.6557     0.0000    24.0000 </r>
       <r>   -59.3494     0.0000    24.0000 </r>
       <r>   -59.0430     0.0000    24.0000 </r>
       <r>   -58.7366     0.0000    24.0000 </r>
       <r>   -58.4302     0.0000    24.0000 </r>
       <r>   -58.1238     0.0000    24.0000 </r>
       <r>   -57.8175     0.0000    24.0000 </r>
       <r>   -57.5111     0.0000    24.0000 </r>
       <r>   -57.2047     0.0000    24.0000 </r>
       <r>   -56.8983     0.0000    24.0000 </r>
       <r>   -56.5919     0.0000    24.0000 </r>
       <r>   -56.2856     0.0000    24.0000 </r>
       <r>   -55.9792     0.0000    24.0000 </r>
       <r>   -55.6728     0.0000    24.0000 </r>
       <r>   -55.3664     0.0000    24.0000 </r>
       <r>   -55.0600     0.0000    24.0000 </r>
       <r>   -54.7537     0.0000    24.0000 </r>
       <r>   -54.4473     0.0000    24.0000 </r>
       <r>   -54.1409     0.0000    24.0000 </r>
       <r>   -53.8345     0.0000    24.0000 </r>
       <r>   -53.5281     0.0000    24.0000 </r>
       <r>   -53.2217     0.0000    24.0000 </r>
       <r>   -52.9154     0.0000    24.0000 </r>
       <r>   -52.6090     0.0000    24.0000 </r>
       <r>   -52.3026     0.0000    24.0000 </r>
       <r>   -51.9962     0.0000    24.0000 </r>
       <r>   -51.6898     0.0000    24.0000 </r>
       <r>   -51.3835     0.0000    24.0000 </r>
       <r>   -51.0771     0.0000    24.0000 </r>
       <r>   -50.7707     0.0000    24.0000 </r>
       <r>   -50.4643     0.0000    24.0000 </r>
       <r>   -50.1579     0.0000    24.0000 </r>
       <r>   -49.8516     0.0000    24.0000 </r>
       <r>   -49.5452     0.0000    24.0000 </r>
       <r>   -49.2388     0.0000    24.0000 </r>
       <r>   -48.9324     0.0000    24.0000 </r>
       <r>   -48.6260     0.0000    24.0000 </r>
       <r>   -48.3197     0.0000    24.0000 </r>
       <r>   -48.0133     0.0000    24.0000 </r>
       <r>   -47.7069     0.0000    24.0000 </r>
       <r>   -47.4005     0.0000    24.0000 </r>
       <r>   -47.0941     0.0000    24.0000 </r>
       <r>   -46.7877     0.0000    24.0000 </r>
       <r>   -46.4814     0.0000    24.0000 </r>
       <r>   -46.1750     0.0000    24.0000 </r>
       <r>   -45.8686     0.0000    24.0000 </r>
       <r>   -45.5622     0.0000    24.0000 </r>
       <r>   -45.2558     0.0000    24.0000 </r>
       <r>   -44.9495     0.0000    24.0000 </r>
       <r>   -44.6431     0.0000    24.0000 </r>
       <r>   -44.3367     0.0000    24.0000 </r>
       <r>   -44.0303     0.0000    24.0000 </r>
       <r>   -43.7239     0.0000    24.0000 </r>
       <r>   -43.4176     0.0000    24.0000 </r>
       <r>   -43.1112     0.0000    24.0000 </r>
       <r>   -42.8048     0.0000    24.0000 </r>
       <r>   -42.4984     0.0000    24.0000 </r>
       <r>   -42.1920     0.0000    24.0000 </r>
       <r>   -41.8856     0.0000    24.0000 </r>
       <r>   -41.5793     0.0000    24.0000 </r>
       <r>   -41.2729     0.0000    24.0000 </r>
       <r>   -40.9665     0.0000    24.0000 </r>
       <r>   -40.6601     0.0000    24.0000 </r>
       <r>   -40.3537     0.0000    24.0000 </r>
       <r>   -40.0474     0.0000    24.0000 </r>
       <r>   -39.7410     0.0000    24.0000 </r>
       <r>   -39.4346     0.0000    24.0000 </r>
       <r>   -39.1282     0.0000    24.0000 </r>
       <r>   -38.8218     0.0000    24.0000 </r>
       <r>   -38.5155     0.0000    24.0000 </r>
       <r>   -38.2091     0.0000    24.0000 </r>
       <r>   -37.9027     0.0000    24.0000 </r>
       <r>   -37.5963     0.0000    24.0000 </r>
       <r>   -37.2899     0.0000    24.0000 </r>
       <r>   -36.9836     0.0000    24.0000 </r>
       <r>   -36.6772     0.0000    24.0000 </r>
       <r>   -36.3708     0.0000    24.0000 </r>
       <r>   -36.0644     0.0000    24.0000 </r>
       <r>   -35.7580     0.0000    24.0000 </r>
       <r>   -35.4516     0.0000    24.0000 </r>
       <r>   -35.1453     0.0000    24.0000 </r>
       <r>   -34.8389     0.0000    24.0000 </r>
       <r>   -34.5325     0.0000    24.0000 </r>
       <r>   -34.2261     0.0000    24.0000 </r>
       <r>   -33.9197     0.0000    24.0000 </r>
       <r>   -33.6134     0.0000    24.0000 </r>
       <r>   -33.3070     0.0000    24.0000 </r>
       <r>   -33.0006     0.0000    24.0000 </r>
       <r>   -32.6942     0.0000    24.0000 </r>
       <r>   -32.3878     0.0000    24.0000 </r>
       <r>   -32.0815     0.0000    24.0000 </r>
       <r>   -31.7751     0.0000    24.0000 </r>
       <r>   -31.4687     0.0000    24.0000 </r>
       <r>   -31.1623     0.0000    24.0000 </r>
       <r>   -30.8559     0.0000    24.0000 </r>
       <r>   -30.5496     0.0000    24.0000 </r>
       <r>   -30.2432     0.0000    24.0000 </r>
       <r>   -29.9368     0.0000    24.0000 </r>
       <r>   -29.6304     0.0000    24.0000 </r>
       <r>   -29.3240     0.0000    24.0000 </r>
       <r>   -29.0176     0.0000    24.0000 </r>
       <r>   -28.7113     0.0000    24.0000 </r>
       <r>   -28.4049     0.0000    24.0000 </r>
       <r>   -28.0985     0.0000    24.0000 </r>
       <r>   -27.7921     0.0000    24.0000 </r>
       <r>   -27.4857     0.0000    24.0000 </r>
       <r>   -27.1794     0.0000    24.0000 </r>
       <r>   -26.8730     0.0000    24.0000 </r>
       <r>   -26.5666     0.0000    24.0000 </r>
       <r>   -26.2602     0.0000    24.0000 </r>
       <r>   -25.9538     0.0000    24.0000 </r>
       <r>   -25.6475     0.0000    24.0000 </r>
       <r>   -25.3411     0.0000    24.0000 </r>
       <r>   -25.0347     0.0000    24.0000 </r>
       <r>   -24.7283     0.0000    24.0000 </r>
       <r>   -24.4219     0.0000    24.0000 </r>
       <r>   -24.1155     0.0000    24.0000 </r>
       <r>   -23.8092     0.0000    24.0000 </r>
       <r>   -23.5028     0.0000    24.0000 </r>
       <r>   -23.1964     0.0000    24.0000 </r>
       <r>   -22.8900     0.0000    24.0000 </r>
       <r>   -22.5836     0.0000    24.0000 </r>
       <r>   -22.2773     0.0000    24.0000 </r>
       <r>   -21.9709     0.0000    24.0000 </r>
       <r>   -21.6645     0.0000    24.0000 </r>
       <r>   -21.3581     0.0000    24.0000 </r>
       <r>   -21.0517     0.0000    24.0000 </r>
       <r>   -20.7454     0.0000    24.0000 </r>
       <r>   -20.4390     0.0000    24.0000 </r>
       <r>   -20.1326     0.0000    24.0000 </r>
       <r>   -19.8262     0.0000    24.0000 </r>
       <r>   -19.5198     0.0000    24.0000 </r>
       <r>   -19.2135     0.0000    24.0000 </r>
       <r>   -18.9071     0.0000    24.0000 </r>
       <r>   -18.6007     0.0000    24.0000 </r>
       <r>   -18.2943     0.0000    24.0000 </r>
       <r>   -17.9879     0.0000    24.0000 </r>
       <r>   -17.6815     0.0000    24.0000 </r>
       <r>   -17.3752     0.0000    24.0000 </r>
       <r>   -17.0688     0.0000    24.0000 </r>
       <r>   -16.7624     0.0000    24.0000 </r>
       <r>   -16.4560     0.0000    24.0000 </r>
       <r>   -16.1496     0.0000    24.0000 </r>
       <r>   -15.8433     0.0000    24.0000 </r>
       <r>   -15.5369     0.0000    24.0000 </r>
       <r>   -15.2305     0.0000    24.0000 </r>
       <r>   -14.9241     0.0000    24.0000 </r>
       <r>   -14.6177     0.0000    24.0000 </r>
       <r>   -14.3114     0.0000    24.0000 </r>
       <r>   -14.0050     0.0000    24.0000 </r>
       <r>   -13.6986    -0.0000    24.0000 </r>
       <r>   -13.3922    -0.0000    24.0000 </r>
       <r>   -13.0858    -0.0000    24.0000 </r>
       <r>   -12.7795    -0.0040    23.9988 </r>
       <r>   -12.4731     1.5292    24.4673 </r>
       <r>   -12.1667     3.5679    25.5604 </r>
       <r>   -11.8603     1.9114    26.1460 </r>
       <r>   -11.5539     2.1558    26.8065 </r>
       <r>   -11.2475     3.1875    27.7831 </r>
       <r>   -10.9412     2.5220    28.5558 </r>
       <r>   -10.6348     9.2687    31.3955 </r>
       <r>   -10.3284     9.4274    34.2839 </r>
       <r>   -10.0220     5.6198    36.0057 </r>
       <r>    -9.7156    -0.0187    36.0000 </r>
       <r>    -9.4093    -0.0000    36.0000 </r>
       <r>    -9.1029     0.0000    36.0000 </r>
       <r>    -8.7965     0.0000    36.0000 </r>
       <r>    -8.4901     0.0000    36.0000 </r>
       <r>    -8.1837     0.0000    36.0000 </r>
       <r>    -7.8774     0.0000    36.0000 </r>
       <r>    -7.5710     0.0000    36.0000 </r>
       <r>    -7.2646     0.0000    36.0000 </r>
       <r>    -6.9582    -0.0000    36.0000 </r>
       <r>    -6.6518    -0.0000    36.0000 </r>
       <r>    -6.3454    -0.0000    36.0000 </r>
       <r>    -6.0391     0.0588    36.0180 </r>
       <r>    -5.7327     3.5011    37.0907 </r>
       <r>    -5.4263     2.0497    37.7187 </r>
       <r>    -5.1199     1.8681    38.2910 </r>
       <r>    -4.8135     3.3010    39.3024 </r>
       <r>    -4.5072     2.2119    39.9801 </r>
       <r>    -4.2008     0.0651    40.0000 </r>
       <r>    -3.8944    -0.0000    40.0000 </r>
       <r>    -3.5880    -0.0000    40.0000 </r>
       <r>    -3.2816    -0.0000    40.0000 </r>
       <r>    -2.9753    -0.0004    39.9999 </r>
       <r>    -2.6689     0.3707    40.1134 </r>
       <r>    -2.3625     6.1388    41.9943 </r>
       <r>    -2.0561     6.6992    44.0468 </r>
       <r>    -1.7497     7.3565    46.3007 </r>
       <r>    -1.4434     6.4079    48.2639 </r>
       <r>    -1.1370     8.7312    50.9390 </r>
       <r>    -0.8306     9.1069    53.7292 </r>
       <r>    -0.5242    11.3741    57.2140 </r>
       <r>    -0.2178    18.2457    62.8041 </r>
       <r>     0.0886    28.8864    71.6544 </r>
       <r>     0.3949     1.1287    72.0002 </r>
       <r>     0.7013    -0.0006    72.0000 </r>
       <r>     1.0077    -0.0205    71.9937 </r>
       <r>     1.3141     7.5019    74.2921 </r>
       <r>     1.6205    44.7839    88.0131 </r>
       <r>     1.9268    13.7781    92.2344 </r>
       <r>     2.2332    13.1634    96.2674 </r>
       <r>     2.5396    12.8570   100.2066 </r>
       <r>     2.8460    11.1557   103.6245 </r>
       <r>     3.1524     9.0666   106.4023 </r>
       <r>     3.4587     7.9000   108.8227 </r>
       <r>     3.7651     6.9299   110.9459 </r>
       <r>     4.0715     3.1882   111.9227 </r>
       <r>     4.3779     0.2529   112.0002 </r>
       <r>     4.6843    -0.0006   112.0000 </r>
       <r>     4.9907    -0.0000   112.0000 </r>
       <r>     5.2970    -0.0002   112.0000 </r>
       <r>     5.6034     0.0780   112.0238 </r>
       <r>     5.9098     0.1808   112.0792 </r>
       <r>     6.2162     2.6505   112.8913 </r>
       <r>     6.5226     4.3875   114.2356 </r>
       <r>     6.8289     3.4288   115.2861 </r>
       <r>     7.1353     2.4063   116.0233 </r>
       <r>     7.4417     1.4413   116.4649 </r>
       <r>     7.7481     3.2061   117.4472 </r>
       <r>     8.0545     5.5859   119.1586 </r>
       <r>     8.3608     5.5298   120.8529 </r>
       <r>     8.6672     4.5718   122.2536 </r>
       <r>     8.9736     4.4584   123.6195 </r>
       <r>     9.2800     5.6163   125.3402 </r>
       <r>     9.5864     5.6857   127.0822 </r>
       <r>     9.8927     4.7772   128.5459 </r>
       <r>    10.1991     4.4611   129.9127 </r>
       <r>    10.5055     6.5037   131.9053 </r>
       <r>    10.8119     8.2625   134.4368 </r>
       <r>    11.1183     8.2225   136.9560 </r>
       <r>    11.4247     7.9844   139.4023 </r>
       <r>    11.7310     7.9399   141.8349 </r>
       <r>    12.0374     6.5485   143.8412 </r>
       <r>    12.3438     5.8706   145.6399 </r>
       <r>    12.6502     6.6522   147.6780 </r>
       <r>    12.9566     5.7487   149.4393 </r>
       <r>    13.2629     6.2309   151.3483 </r>
       <r>    13.5693     5.3378   152.9837 </r>
       <r>    13.8757     4.0215   154.2158 </r>
       <r>    14.1821     3.2627   155.2154 </r>
       <r>    14.4885     4.5561   156.6114 </r>
       <r>    14.7948     3.4968   157.6827 </r>
       <r>    15.1012     1.4353   158.1225 </r>
       <r>    15.4076     1.5559   158.5992 </r>
       <r>    15.7140     1.2213   158.9733 </r>
       <r>    16.0204     1.6945   159.4925 </r>
       <r>    16.3267     0.3333   159.5946 </r>
       <r>    16.6331     0.6768   159.8020 </r>
       <r>    16.9395     0.5234   159.9624 </r>
       <r>    17.2459     0.1229   160.0000 </r>
       <r>    17.5523    -0.0000   160.0000 </r>
       <r>    17.8587     0.0000   160.0000 </r>
       <r>    18.1650     0.0000   160.0000 </r>
       <r>    18.4714     0.0000   160.0000 </r>
       <r>    18.7778     0.0000   160.0000 </r>
       <r>    19.0842     0.0000   160.0000 </r>
      </set>
     </set>
    </array>
   </total>
  </dos>
 </calculation>
 <structure name="finalpos" >
  <crystal>
   <varray name="basis" >
    <v>       3.22479600      -5.64383000       0.03157200 </v>
    <v>       3.22479600       5.64383000       0.03157200 </v>
    <v>      -2.10194600       0.00000000       6.07553700 </v>
   </varray>
   <i name="volume">    221.90106089 </i>
   <varray name="rec_basis" >
    <v>       0.15452516      -0.08859232       0.05346088 </v>
    <v>       0.15452516       0.08859232       0.05346088 </v>
    <v>      -0.00160600       0.00000000       0.16403888 </v>
   </varray>
  </crystal>
  <varray name="positions" >
   <v>       0.61844300       0.12117100       0.11953300 </v>
   <v>       0.12117100       0.61844300       0.61953300 </v>
   <v>       0.96295700       0.79032200       0.11881300 </v>
   <v>       0.79032200       0.96295700       0.61881300 </v>
   <v>       0.43973200       0.26728100       0.59904700 </v>
   <v>       0.26728100       0.43973200       0.09904700 </v>
   <v>       0.07795960       0.91167500       0.49736300 </v>
   <v>       0.57140300       0.41236400       0.98018400 </v>
   <v>       0.73711100       0.25006200       0.49504900 </v>
   <v>       0.41236400       0.57140300       0.48018400 </v>
   <v>       0.91167500       0.07949800       0.99736300 </v>
   <v>       0.25006200       0.73711100       0.99504900 </v>
  </varray>
 </structure>
</modeling>
