       N       E                     dE             d eps       ncg     rms          ort
SDA:   1     0.755380747833E+02    0.75538E+02   -0.21317E+03  3360   0.533E+03 0.000E+00
DMP:   2    -0.838073797985E+01   -0.83919E+02   -0.14689E+03  3360   0.395E+03-0.737E+02
DMP:   3    -0.152306784522E+02   -0.68499E+01   -0.20359E+03  3360   0.693E+03-0.481E+03
DMP:   4    -0.227195015698E+02   -0.74888E+01   -0.10724E+03  3360   0.390E+03-0.319E+03
DMP:   5    -0.608262033643E+02   -0.38107E+02   -0.15047E+02  3360   0.705E+02-0.861E+02
DMP:   6    -0.659381363570E+02   -0.51119E+01   -0.81662E+01  3360   0.246E+02-0.111E+02
DMP:   7    -0.674755100699E+02   -0.15374E+01   -0.41314E+01  3360   0.147E+02-0.114E+02
DMP:   8    -0.690855778698E+02   -0.16101E+01   -0.76999E+00  3360   0.283E+01-0.237E+01
DMP:   9    -0.693951390538E+02   -0.30956E+00   -0.38619E+00  3360   0.111E+01-0.367E+00
DMP:  10    -0.694989047138E+02   -0.10377E+00   -0.15210E+00  3360   0.547E+00-0.437E+00
DMP:  11    -0.695684469413E+02   -0.69542E-01   -0.36901E-01  3360   0.105E+00-0.338E-01
DMP:  12    -0.695807912337E+02   -0.12344E-01   -0.22822E-01  3360   0.689E-01-0.310E-01
DMP:  13    -0.695904390292E+02   -0.96478E-02   -0.51154E-02  3360   0.161E-01-0.876E-02
DMP:  14    -0.695928904054E+02   -0.24514E-02   -0.37759E-02  3360   0.964E-02-0.523E-03
DMP:  15    -0.695943933115E+02   -0.15029E-02   -0.10362E-02  3360   0.333E-02-0.193E-02
DMP:  16    -0.695949629751E+02   -0.56966E-03   -0.40869E-03  3360   0.916E-03 0.277E-03
DMP:  17    -0.695951355591E+02   -0.17258E-03   -0.20827E-03  3360   0.579E-03-0.152E-03
DMP:  18    -0.695952522183E+02   -0.11666E-03   -0.55954E-04  3360   0.119E-03 0.545E-04
DMP:  19    -0.695952809510E+02   -0.28733E-04   -0.35198E-04  3360   0.882E-04-0.411E-06
DMP:  20    -0.695953006352E+02   -0.19684E-04   -0.11536E-04  3360   0.241E-04 0.124E-04
DMP:  21    -0.695953079779E+02   -0.73427E-05   -0.69670E-05  3360   0.140E-04 0.901E-05
   1 F= -.69595308E+02 E0= -.69595509E+02  d E =0.603294E-03
