<?xml version="1.0" encoding="ISO-8859-1"?>
<modeling>
 <generator>
  <i name="program" type="string">vasp </i>
  <i name="version" type="string">5.3.3  </i>
  <i name="subversion" type="string">18Dez12 (build Nov 13 2015 09:58:40) complex                          parallel </i>
  <i name="platform" type="string">LinuxIFC </i>
  <i name="date" type="string">2017 10 18 </i>
  <i name="time" type="string">13:13:22 </i>
 </generator>
 <incar>
  <i type="string" name="SYSTEM"> CGS</i>
  <i type="string" name="PREC">normal</i>
  <i type="string" name="ALGO"> D</i>
  <i type="logical" name="LDIAG"> T  </i>
  <i name="EDIFF">      0.00001000</i>
  <i name="ENCUT">    400.00000000</i>
  <i name="TIME">      0.40000000</i>
  <i type="int" name="ISMEAR">     1</i>
  <i name="SIGMA">      0.10000000</i>
  <i type="logical" name="LHFCALC"> T  </i>
  <i type="string" name="GGA"> PE</i>
  <i name="HFSCREEN">      0.20000000</i>
  <i name="AEXX">      0.25000000</i>
  <i type="string" name="PRECFOCK">fast</i>
 </incar>
 <kpoints>
  <generation param="Gamma">
   <v type="int" name="divisions">       4        4        5 </v>
   <v name="usershift">      0.00000000       0.00000000       0.00000000 </v>
   <v name="genvec1">      0.25000000       0.00000000       0.00000000 </v>
   <v name="genvec2">      0.00000000       0.25000000       0.00000000 </v>
   <v name="genvec3">      0.00000000       0.00000000       0.20000000 </v>
   <v name="shift">      0.00000000       0.00000000       0.00000000 </v>
  </generation>
  <varray name="kpointlist" >
   <v>       0.00000000       0.00000000       0.00000000 </v>
   <v>       0.25000000       0.00000000       0.00000000 </v>
   <v>       0.50000000       0.00000000       0.00000000 </v>
   <v>       0.00000000       0.25000000       0.00000000 </v>
   <v>       0.25000000       0.25000000       0.00000000 </v>
   <v>       0.50000000       0.25000000      -0.00000000 </v>
   <v>      -0.25000000       0.25000000       0.00000000 </v>
   <v>       0.00000000       0.50000000       0.00000000 </v>
   <v>       0.25000000       0.50000000      -0.00000000 </v>
   <v>       0.50000000       0.50000000       0.00000000 </v>
   <v>      -0.00000000      -0.00000000       0.20000000 </v>
   <v>       0.25000000       0.00000000       0.20000000 </v>
   <v>       0.50000000       0.00000000       0.20000000 </v>
   <v>      -0.25000000      -0.00000000       0.20000000 </v>
   <v>       0.00000000       0.25000000       0.20000000 </v>
   <v>       0.25000000       0.25000000       0.20000000 </v>
   <v>       0.50000000       0.25000000       0.20000000 </v>
   <v>      -0.25000000       0.25000000       0.20000000 </v>
   <v>       0.00000000       0.50000000       0.20000000 </v>
   <v>       0.25000000       0.50000000       0.20000000 </v>
   <v>       0.50000000       0.50000000       0.20000000 </v>
   <v>      -0.25000000       0.50000000       0.20000000 </v>
   <v>      -0.00000000      -0.25000000       0.20000000 </v>
   <v>       0.25000000      -0.25000000       0.20000000 </v>
   <v>       0.50000000      -0.25000000       0.20000000 </v>
   <v>      -0.25000000      -0.25000000       0.20000000 </v>
   <v>      -0.00000000      -0.00000000       0.40000000 </v>
   <v>       0.25000000       0.00000000       0.40000000 </v>
   <v>       0.50000000       0.00000000       0.40000000 </v>
   <v>      -0.25000000       0.00000000       0.40000000 </v>
   <v>       0.00000000       0.25000000       0.40000000 </v>
   <v>       0.25000000       0.25000000       0.40000000 </v>
   <v>       0.50000000       0.25000000       0.40000000 </v>
   <v>      -0.25000000       0.25000000       0.40000000 </v>
   <v>       0.00000000       0.50000000       0.40000000 </v>
   <v>       0.25000000       0.50000000       0.40000000 </v>
   <v>       0.50000000       0.50000000       0.40000000 </v>
   <v>      -0.25000000       0.50000000       0.40000000 </v>
   <v>       0.00000000      -0.25000000       0.40000000 </v>
   <v>       0.25000000      -0.25000000       0.40000000 </v>
   <v>       0.50000000      -0.25000000       0.40000000 </v>
   <v>      -0.25000000      -0.25000000       0.40000000 </v>
  </varray>
  <varray name="weights" >
   <v>       0.01250000 </v>
   <v>       0.02500000 </v>
   <v>       0.01250000 </v>
   <v>       0.02500000 </v>
   <v>       0.02500000 </v>
   <v>       0.02500000 </v>
   <v>       0.02500000 </v>
   <v>       0.01250000 </v>
   <v>       0.02500000 </v>
   <v>       0.01250000 </v>
   <v>       0.02500000 </v>
   <v>       0.02500000 </v>
   <v>       0.02500000 </v>
   <v>       0.02500000 </v>
   <v>       0.02500000 </v>
   <v>       0.02500000 </v>
   <v>       0.02500000 </v>
   <v>       0.02500000 </v>
   <v>       0.02500000 </v>
   <v>       0.02500000 </v>
   <v>       0.02500000 </v>
   <v>       0.02500000 </v>
   <v>       0.02500000 </v>
   <v>       0.02500000 </v>
   <v>       0.02500000 </v>
   <v>       0.02500000 </v>
   <v>       0.02500000 </v>
   <v>       0.02500000 </v>
   <v>       0.02500000 </v>
   <v>       0.02500000 </v>
   <v>       0.02500000 </v>
   <v>       0.02500000 </v>
   <v>       0.02500000 </v>
   <v>       0.02500000 </v>
   <v>       0.02500000 </v>
   <v>       0.02500000 </v>
   <v>       0.02500000 </v>
   <v>       0.02500000 </v>
   <v>       0.02500000 </v>
   <v>       0.02500000 </v>
   <v>       0.02500000 </v>
   <v>       0.02500000 </v>
  </varray>
 </kpoints>
 <parameters>
  <separator name="general" >
   <i type="string" name="SYSTEM">CGS</i>
   <i type="logical" name="LCOMPAT"> F  </i>
  </separator>
  <separator name="electronic" >
   <i type="string" name="PREC">normal</i>
   <i name="ENMAX">    400.00000000</i>
   <i name="ENAUG">    758.23300000</i>
   <i name="EDIFF">      0.00001000</i>
   <i type="int" name="IALGO">    53</i>
   <i type="int" name="IWAVPR">    10</i>
   <i type="int" name="NBANDS">    80</i>
   <i name="NELECT">    112.00000000</i>
   <i type="int" name="TURBO">     0</i>
   <i type="int" name="IRESTART">     0</i>
   <i type="int" name="NREBOOT">     0</i>
   <i type="int" name="NMIN">     0</i>
   <i name="EREF">      0.00000000</i>
   <separator name="electronic smearing" >
    <i type="int" name="ISMEAR">     1</i>
    <i name="SIGMA">      0.10000000</i>
    <i name="KSPACING">      0.50000000</i>
    <i type="logical" name="KGAMMA"> T  </i>
   </separator>
   <separator name="electronic projectors" >
    <i type="logical" name="LREAL"> F  </i>
    <v name="ROPT">      0.00000000      0.00000000      0.00000000</v>
    <i type="int" name="LMAXPAW">  -100</i>
    <i type="int" name="LMAXMIX">     2</i>
    <i type="logical" name="NLSPLINE"> F  </i>
   </separator>
   <separator name="electronic startup" >
    <i type="int" name="ISTART">     1</i>
    <i type="int" name="ICHARG">     0</i>
    <i type="int" name="INIWAV">     1</i>
   </separator>
   <separator name="electronic spin" >
    <i type="int" name="ISPIN">     1</i>
    <i type="logical" name="LNONCOLLINEAR"> F  </i>
    <v name="MAGMOM">      1.00000000      1.00000000      1.00000000      1.00000000      1.00000000      1.00000000      1.00000000      1.00000000      1.00000000      1.00000000      1.00000000      1.00000000</v>
    <i name="NUPDOWN">     -1.00000000</i>
    <i type="logical" name="LSORBIT"> F  </i>
    <v name="SAXIS">      0.00000000      0.00000000      1.00000000</v>
    <i type="logical" name="LSPIRAL"> F  </i>
    <v name="QSPIRAL">      0.00000000      0.00000000      0.00000000</v>
    <i type="logical" name="LZEROZ"> F  </i>
   </separator>
   <separator name="electronic exchange-correlation" >
    <i type="logical" name="LASPH"> F  </i>
    <i type="logical" name="LMETAGGA"> F  </i>
   </separator>
   <separator name="electronic convergence" >
    <i type="int" name="NELM">    60</i>
    <i type="int" name="NELMDL">     0</i>
    <i type="int" name="NELMIN">     2</i>
    <i name="ENINI">    400.00000000</i>
    <separator name="electronic convergence detail" >
     <i type="logical" name="LDIAG"> T  </i>
     <i type="logical" name="LSUBROT"> T  </i>
     <i name="WEIMIN">      0.00000000</i>
     <i name="EBREAK">      0.00000003</i>
     <i name="DEPER">      0.30000000</i>
     <i type="int" name="NRMM">     4</i>
     <i name="TIME">      0.40000000</i>
    </separator>
   </separator>
   <separator name="electronic mixer" >
    <i name="AMIX">      0.40000000</i>
    <i name="BMIX">      1.00000000</i>
    <i name="AMIN">      0.10000000</i>
    <i name="AMIX_MAG">      1.60000000</i>
    <i name="BMIX_MAG">      1.00000000</i>
    <separator name="electronic mixer details" >
     <i type="int" name="IMIX">     4</i>
     <i type="int" name="MAXMIX">   -45</i>
     <i name="WC">    100.00000000</i>
     <i type="int" name="INIMIX">     1</i>
     <i type="int" name="MIXPRE">     1</i>
     <i type="int" name="MREMOVE">     5</i>
    </separator>
   </separator>
   <separator name="electronic dipolcorrection" >
    <i type="logical" name="LDIPOL"> F  </i>
    <i type="logical" name="LMONO"> F  </i>
    <i type="int" name="IDIPOL">     0</i>
    <i name="EPSILON">      1.00000000</i>
    <v name="DIPOL">   -100.00000000   -100.00000000   -100.00000000</v>
    <i name="EFIELD">      0.00000000</i>
   </separator>
  </separator>
  <separator name="grids" >
   <i type="int" name="NGX">    32</i>
   <i type="int" name="NGY">    32</i>
   <i type="int" name="NGZ">    32</i>
   <i type="int" name="NGXF">    64</i>
   <i type="int" name="NGYF">    64</i>
   <i type="int" name="NGZF">    64</i>
   <i type="logical" name="ADDGRID"> F  </i>
  </separator>
  <separator name="ionic" >
   <i type="int" name="NSW">     0</i>
   <i type="int" name="IBRION">    -1</i>
   <i type="int" name="ISIF">     0</i>
   <i name="PSTRESS">      0.00000000</i>
   <i name="EDIFFG">      0.00010000</i>
   <i type="int" name="NFREE">     0</i>
   <i name="POTIM">      0.50000000</i>
   <i name="SMASS">     -3.00000000</i>
   <i name="SCALEE">      1.00000000</i>
  </separator>
  <separator name="ionic md" >
   <i name="TEBEG">      0.00010000</i>
   <i name="TEEND">      0.00010000</i>
   <i type="int" name="NBLOCK">     1</i>
   <i type="int" name="KBLOCK">     1</i>
   <i type="int" name="NPACO">   256</i>
   <i name="APACO">     16.00000000</i>
  </separator>
  <separator name="symmetry" >
   <i type="int" name="ISYM">     3</i>
   <i name="SYMPREC">      0.00001000</i>
  </separator>
  <separator name="dos" >
   <i type="logical" name="LORBIT"> F  </i>
   <v name="RWIGS">     -1.00000000     -1.00000000     -1.00000000</v>
   <i type="int" name="NEDOS">   301</i>
   <i name="EMIN">     10.00000000</i>
   <i name="EMAX">    -10.00000000</i>
   <i name="EFERMI">      0.00000000</i>
  </separator>
  <separator name="writing" >
   <i type="int" name="NWRITE">     2</i>
   <i type="logical" name="LWAVE"> T  </i>
   <i type="logical" name="LCHARG"> T  </i>
   <i type="logical" name="LPARD"> F  </i>
   <i type="logical" name="LVTOT"> F  </i>
   <i type="logical" name="LVHAR"> F  </i>
   <i type="logical" name="LELF"> F  </i>
   <i type="logical" name="LOPTICS"> F  </i>
   <v name="STM">      0.00000000      0.00000000      0.00000000      0.00000000      0.00000000      0.00000000      0.00000000</v>
  </separator>
  <separator name="performance" >
   <i type="int" name="NPAR">    16</i>
   <i type="int" name="NSIM">     4</i>
   <i type="int" name="NBLK">    -1</i>
   <i type="logical" name="LPLANE"> T  </i>
   <i type="logical" name="LSCALAPACK"> T  </i>
   <i type="logical" name="LSCAAWARE"> F  </i>
   <i type="logical" name="LSCALU"> F  </i>
   <i type="logical" name="LASYNC"> F  </i>
   <i type="logical" name="LORBITALREAL"> F  </i>
  </separator>
  <separator name="miscellaneous" >
   <i type="int" name="IDIOT">     3</i>
   <i type="logical" name="LMUSIC"> F  </i>
   <v name="POMASS">     63.54600000     72.61000000     32.06600000</v>
   <v name="DARWINR">      0.00000000      0.00000000      0.00000000</v>
   <v name="DARWINV">      1.00000000      1.00000000      1.00000000</v>
   <i type="logical" name="LCORR"> T  </i>
  </separator>
  <i type="logical" name="GGA_COMPAT"> T  </i>
  <i type="logical" name="LBERRY"> F  </i>
  <i type="int" name="ICORELEVEL">     0</i>
  <i type="logical" name="LDAU"> F  </i>
  <i type="int" name="I_CONSTRAINED_M">     0</i>
  <separator name="electronic exchange-correlation" >
   <i type="string" name="GGA">PE</i>
   <i type="int" name="VOSKOWN">     0</i>
   <i type="logical" name="LHFCALC"> T  </i>
   <i type="string" name="PRECFOCK">fast</i>
   <i type="logical" name="LSYMGRAD"> F  </i>
   <i type="logical" name="LHFONE"> F  </i>
   <i type="logical" name="LRHFCALC"> F  </i>
   <i type="logical" name="LTHOMAS"> F  </i>
   <i type="logical" name="LMODELHF"> F  </i>
   <i name="ENCUT4O">     -1.00000000</i>
   <i type="int" name="EXXOEP">     0</i>
   <i type="int" name="FOURORBIT">     0</i>
   <i name="AEXX">      0.25000000</i>
   <i name="HFALPHA">     -1.00000000</i>
   <i name="MCALPHA">      0.00000000</i>
   <i name="ALDAX">      0.75000000</i>
   <i name="AGGAX">      0.75000000</i>
   <i name="ALDAC">      1.00000000</i>
   <i name="AGGAC">      1.00000000</i>
   <i type="int" name="NKREDX">     1</i>
   <i type="int" name="NKREDY">     1</i>
   <i type="int" name="NKREDZ">     1</i>
   <i type="logical" name="SHIFTRED"> F  </i>
   <i type="logical" name="ODDONLY"> F  </i>
   <i type="logical" name="EVENONLY"> F  </i>
   <i type="int" name="LMAXFOCK">     4</i>
   <i type="int" name="NMAXFOCKAE">     1</i>
   <i type="logical" name="LFOCKAEDFT"> F  </i>
   <i name="HFSCREEN">      0.20000000</i>
   <i name="HFSCREENC">      0.20000000</i>
   <i type="int" name="NBANDSGWLOW">     1</i>
  </separator>
  <separator name="vdW DFT" >
   <i type="logical" name="LUSE_VDW"> F  </i>
   <i name="Zab_VDW">     -0.84910000</i>
   <i name="PARAM1">      0.12340000</i>
   <i name="PARAM2">      1.00000000</i>
   <i name="PARAM3">      0.00000000</i>
  </separator>
  <separator name="model GW" >
   <i type="int" name="MODEL_GW">     0</i>
   <i name="MODEL_EPS0">     11.09505304</i>
   <i name="MODEL_ALPHA">      1.00000000</i>
  </separator>
  <separator name="linear response parameters" >
   <i type="logical" name="LEPSILON"> F  </i>
   <i type="logical" name="LRPA"> F  </i>
   <i type="logical" name="LNABLA"> F  </i>
   <i type="logical" name="LVEL"> F  </i>
   <i type="int" name="KINTER">     0</i>
   <i name="CSHIFT">      0.10000000</i>
   <i name="OMEGAMAX">     -1.00000000</i>
   <i name="DEG_THRESHOLD">      0.00200000</i>
  </separator>
  <separator name="orbital magnetization" >
   <i type="logical" name="NUCIND"> F  </i>
   <v name="MAGPOS">      0.00000000      0.00000000      0.00000000</v>
   <i type="logical" name="LNICSALL"> T  </i>
   <i type="logical" name="ORBITALMAG"> F  </i>
   <i type="logical" name="LMAGBLOCH"> F  </i>
   <i type="logical" name="LCHIMAG"> F  </i>
   <i type="logical" name="LGAUGE"> T  </i>
   <i type="int" name="MAGATOM">     0</i>
   <v name="MAGDIPOL">      0.00000000      0.00000000      0.00000000</v>
   <v name="AVECCONST">      0.00000000      0.00000000      0.00000000</v>
  </separator>
  <separator name="response functions" >
   <i type="logical" name="LADDER"> F  </i>
   <i type="logical" name="LFXC"> F  </i>
   <i type="logical" name="LHARTREE"> T  </i>
   <i type="int" name="IBSE">     0</i>
   <i type="logical" name="LTCTE"> F  </i>
   <i type="logical" name="LTETE"> F  </i>
   <i type="logical" name="LTRIPLET"> F  </i>
   <i type="logical" name="LFXCEPS"> F  </i>
   <i type="logical" name="L2ORDER"> F  </i>
   <i type="logical" name="LUSEW"> F  </i>
   <i name="ENCUTGW">     -2.00000000</i>
   <i name="ENCUTGWSOFT">     -2.00000000</i>
   <i name="ENCUTLF">     -1.00000000</i>
   <i type="int" name="LMAXMP2">    -1</i>
   <i name="SCISSOR">      0.00000000</i>
   <i type="int" name="NOMEGA">     0</i>
   <i type="int" name="NOMEGAR">     0</i>
   <i type="int" name="NBANDSGW">    -1</i>
   <i type="int" name="NBANDSO">    -1</i>
   <i type="int" name="NBANDSV">    -1</i>
   <i type="int" name="NELM">     1</i>
   <i type="int" name="DIM">     3</i>
   <i type="int" name="ANTIRES">     0</i>
   <i name="OMEGAMAX">    -30.00000000</i>
   <i name="OMEGATL">   -200.00000000</i>
   <i type="int" name="OMEGAGRID">     0</i>
   <i name="CSHIFT">     -0.10000000</i>
   <i type="logical" name="SELFENERGY"> F  </i>
   <i type="logical" name="LSPECTRAL"> F  </i>
   <i type="logical" name="ODDONLYGW"> F  </i>
   <i type="logical" name="EVENONLYGW"> F  </i>
   <i type="int" name="NKREDLFX">     1</i>
   <i type="int" name="NKREDLFY">     1</i>
   <i type="int" name="NKREDLFZ">     1</i>
   <i type="int" name="MAXMEM">  1800</i>
   <i type="int" name="TELESCOPE">     0</i>
  </separator>
 </parameters>
 <atominfo>
  <atoms>      12 </atoms>
  <types>       3 </types>
  <array name="atoms" >
   <dimension dim="1">ion</dimension>
   <field type="string">element</field>
   <field type="int">atomtype</field>
   <set>
    <rc><c>Cu</c><c>   1</c></rc>
    <rc><c>Cu</c><c>   1</c></rc>
    <rc><c>Cu</c><c>   1</c></rc>
    <rc><c>Cu</c><c>   1</c></rc>
    <rc><c>Ge</c><c>   2</c></rc>
    <rc><c>Ge</c><c>   2</c></rc>
    <rc><c>S </c><c>   3</c></rc>
    <rc><c>S </c><c>   3</c></rc>
    <rc><c>S </c><c>   3</c></rc>
    <rc><c>S </c><c>   3</c></rc>
    <rc><c>S </c><c>   3</c></rc>
    <rc><c>S </c><c>   3</c></rc>
   </set>
  </array>
  <array name="atomtypes" >
   <dimension dim="1">type</dimension>
   <field type="int">atomspertype</field>
   <field type="string">element</field>
   <field>mass</field>
   <field>valence</field>
   <field type="string">pseudopotential</field>
   <set>
    <rc><c>   4</c><c>Cu</c><c>     63.54600000</c><c>     17.00000000</c><c>  PAW_PBE Cu_pv 06Sep2000               </c></rc>
    <rc><c>   2</c><c>Ge</c><c>     72.61000000</c><c>      4.00000000</c><c>  PAW_PBE Ge 05Jan2001                  </c></rc>
    <rc><c>   6</c><c>S </c><c>     32.06600000</c><c>      6.00000000</c><c>  PAW_PBE S 17Jan2003                   </c></rc>
   </set>
  </array>
 </atominfo>
 <structure name="initialpos" >
  <crystal>
   <varray name="basis" >
    <v>       3.22479600      -5.64383000       0.03157200 </v>
    <v>       3.22479600       5.64383000       0.03157200 </v>
    <v>      -2.10194600       0.00000000       6.07553700 </v>
   </varray>
   <i name="volume">    221.90106089 </i>
   <varray name="rec_basis" >
    <v>       0.15452516      -0.08859232       0.05346088 </v>
    <v>       0.15452516       0.08859232       0.05346088 </v>
    <v>      -0.00160600       0.00000000       0.16403888 </v>
   </varray>
  </crystal>
  <varray name="positions" >
   <v>       0.61844300       0.12117100       0.11953300 </v>
   <v>       0.12117100       0.61844300       0.61953300 </v>
   <v>       0.96295700       0.79032200       0.11881300 </v>
   <v>       0.79032200       0.96295700       0.61881300 </v>
   <v>       0.43973200       0.26728100       0.59904700 </v>
   <v>       0.26728100       0.43973200       0.09904700 </v>
   <v>       0.07949800       0.91167500       0.49736300 </v>
   <v>       0.57140300       0.41390240       0.98018400 </v>
   <v>       0.73711100       0.25006200       0.49504900 </v>
   <v>       0.41236400       0.57140300       0.48018400 </v>
   <v>       0.91167500       0.07949800       0.99736300 </v>
   <v>       0.25006200       0.73711100       0.99504900 </v>
  </varray>
 </structure>
 <calculation>
  <scstep>
   <time name="total">  253.84  254.54</time>
   <energy>
    <i name="alphaZ">    339.31929130 </i>
    <i name="ewald">  -9065.36070443 </i>
    <i name="hartreedc">  -8067.43369894 </i>
    <i name="XCdc">    369.90455297 </i>
    <i name="pawpsdc">  16899.59670309 </i>
    <i name="pawaedc"> -17392.41179198 </i>
    <i name="eentropy">     -0.00145951 </i>
    <i name="bandstr">  -1656.51045784 </i>
    <i name="atom">  18320.98302006 </i>
    <i name="e_fr_energy">     75.53807478 </i>
    <i name="e_wo_entrp">     75.53953429 </i>
    <i name="e_0_energy">     75.53856129 </i>
   </energy>
  </scstep>
  <scstep>
   <time name="total">  263.74  263.54</time>
   <energy>
    <i name="e_fr_energy">     -8.38073798 </i>
    <i name="e_wo_entrp">     -8.37996842 </i>
    <i name="e_0_energy">     -8.38048146 </i>
   </energy>
  </scstep>
  <scstep>
   <time name="total">  265.52  265.32</time>
   <energy>
    <i name="e_fr_energy">    -15.23067845 </i>
    <i name="e_wo_entrp">    -15.23090966 </i>
    <i name="e_0_energy">    -15.23075552 </i>
   </energy>
  </scstep>
  <scstep>
   <time name="total">  268.70  268.48</time>
   <energy>
    <i name="e_fr_energy">    -22.71950157 </i>
    <i name="e_wo_entrp">    -22.71985180 </i>
    <i name="e_0_energy">    -22.71961831 </i>
   </energy>
  </scstep>
  <scstep>
   <time name="total">  287.24  286.99</time>
   <energy>
    <i name="e_fr_energy">    -60.82620336 </i>
    <i name="e_wo_entrp">    -60.82682641 </i>
    <i name="e_0_energy">    -60.82641105 </i>
   </energy>
  </scstep>
  <scstep>
   <time name="total">  267.57  267.34</time>
   <energy>
    <i name="e_fr_energy">    -65.93813636 </i>
    <i name="e_wo_entrp">    -65.93883665 </i>
    <i name="e_0_energy">    -65.93836979 </i>
   </energy>
  </scstep>
  <scstep>
   <time name="total">  268.82  268.97</time>
   <energy>
    <i name="e_fr_energy">    -67.47551007 </i>
    <i name="e_wo_entrp">    -67.47597856 </i>
    <i name="e_0_energy">    -67.47566623 </i>
   </energy>
  </scstep>
  <scstep>
   <time name="total">  269.80  270.34</time>
   <energy>
    <i name="e_fr_energy">    -69.08557787 </i>
    <i name="e_wo_entrp">    -69.08633232 </i>
    <i name="e_0_energy">    -69.08582935 </i>
   </energy>
  </scstep>
  <scstep>
   <time name="total">  266.59  266.51</time>
   <energy>
    <i name="e_fr_energy">    -69.39513905 </i>
    <i name="e_wo_entrp">    -69.39603420 </i>
    <i name="e_0_energy">    -69.39543744 </i>
   </energy>
  </scstep>
  <scstep>
   <time name="total">  277.88  277.79</time>
   <energy>
    <i name="e_fr_energy">    -69.49890471 </i>
    <i name="e_wo_entrp">    -69.49967277 </i>
    <i name="e_0_energy">    -69.49916073 </i>
   </energy>
  </scstep>
  <scstep>
   <time name="total">  264.48  264.37</time>
   <energy>
    <i name="e_fr_energy">    -69.56844694 </i>
    <i name="e_wo_entrp">    -69.56908761 </i>
    <i name="e_0_energy">    -69.56866050 </i>
   </energy>
  </scstep>
  <scstep>
   <time name="total">  272.87  272.78</time>
   <energy>
    <i name="e_fr_energy">    -69.58079123 </i>
    <i name="e_wo_entrp">    -69.58137645 </i>
    <i name="e_0_energy">    -69.58098631 </i>
   </energy>
  </scstep>
  <scstep>
   <time name="total">  270.37  270.16</time>
   <energy>
    <i name="e_fr_energy">    -69.59043903 </i>
    <i name="e_wo_entrp">    -69.59101395 </i>
    <i name="e_0_energy">    -69.59063067 </i>
   </energy>
  </scstep>
  <scstep>
   <time name="total">  270.80  270.57</time>
   <energy>
    <i name="e_fr_energy">    -69.59289041 </i>
    <i name="e_wo_entrp">    -69.59348658 </i>
    <i name="e_0_energy">    -69.59308913 </i>
   </energy>
  </scstep>
  <scstep>
   <time name="total">  272.50  272.27</time>
   <energy>
    <i name="e_fr_energy">    -69.59439331 </i>
    <i name="e_wo_entrp">    -69.59500343 </i>
    <i name="e_0_energy">    -69.59459668 </i>
   </energy>
  </scstep>
  <scstep>
   <time name="total">  268.77  268.55</time>
   <energy>
    <i name="e_fr_energy">    -69.59496298 </i>
    <i name="e_wo_entrp">    -69.59557321 </i>
    <i name="e_0_energy">    -69.59516639 </i>
   </energy>
  </scstep>
  <scstep>
   <time name="total">  270.52  270.44</time>
   <energy>
    <i name="e_fr_energy">    -69.59513556 </i>
    <i name="e_wo_entrp">    -69.59574217 </i>
    <i name="e_0_energy">    -69.59533776 </i>
   </energy>
  </scstep>
  <scstep>
   <time name="total">  293.97  293.73</time>
   <energy>
    <i name="e_fr_energy">    -69.59525222 </i>
    <i name="e_wo_entrp">    -69.59585561 </i>
    <i name="e_0_energy">    -69.59545335 </i>
   </energy>
  </scstep>
  <scstep>
   <time name="total">  278.47  278.26</time>
   <energy>
    <i name="e_fr_energy">    -69.59528095 </i>
    <i name="e_wo_entrp">    -69.59588302 </i>
    <i name="e_0_energy">    -69.59548164 </i>
   </energy>
  </scstep>
  <scstep>
   <time name="total">  283.57  283.51</time>
   <energy>
    <i name="e_fr_energy">    -69.59530064 </i>
    <i name="e_wo_entrp">    -69.59590327 </i>
    <i name="e_0_energy">    -69.59550151 </i>
   </energy>
  </scstep>
  <scstep>
   <time name="total">  274.60  274.71</time>
   <energy>
    <i name="alphaZ">    339.31929130 </i>
    <i name="ewald">  -9065.36070443 </i>
    <i name="hartreedc">  -8148.81085746 </i>
    <i name="XCdc">    372.06950788 </i>
    <i name="pawpsdc">  15921.89399830 </i>
    <i name="pawaedc"> -16407.07382656 </i>
    <i name="eentropy">      0.00060329 </i>
    <i name="bandstr">  -1742.68604285 </i>
    <i name="atom">  18320.98302006 </i>
    <i name="e_fr_energy">    -69.59530798 </i>
    <i name="e_wo_entrp">    -69.59591127 </i>
    <i name="e_0_energy">    -69.59550908 </i>
   </energy>
  </scstep>
  <structure>
   <crystal>
    <varray name="basis" >
     <v>       3.22479600      -5.64383000       0.03157200 </v>
     <v>       3.22479600       5.64383000       0.03157200 </v>
     <v>      -2.10194600       0.00000000       6.07553700 </v>
    </varray>
    <i name="volume">    221.90106089 </i>
    <varray name="rec_basis" >
     <v>       0.15452516      -0.08859232       0.05346088 </v>
     <v>       0.15452516       0.08859232       0.05346088 </v>
     <v>      -0.00160600       0.00000000       0.16403888 </v>
    </varray>
   </crystal>
   <varray name="positions" >
    <v>       0.61844300       0.12117100       0.11953300 </v>
    <v>       0.12117100       0.61844300       0.61953300 </v>
    <v>       0.96295700       0.79032200       0.11881300 </v>
    <v>       0.79032200       0.96295700       0.61881300 </v>
    <v>       0.43973200       0.26728100       0.59904700 </v>
    <v>       0.26728100       0.43973200       0.09904700 </v>
    <v>       0.07949800       0.91167500       0.49736300 </v>
    <v>       0.57140300       0.41390240       0.98018400 </v>
    <v>       0.73711100       0.25006200       0.49504900 </v>
    <v>       0.41236400       0.57140300       0.48018400 </v>
    <v>       0.91167500       0.07949800       0.99736300 </v>
    <v>       0.25006200       0.73711100       0.99504900 </v>
   </varray>
  </structure>
  <varray name="forces" >
   <v>       0.00519485       0.01002522      -0.00427553 </v>
   <v>      -0.00265370       0.00076290       0.00010399 </v>
   <v>       0.01119040      -0.00219989       0.00432916 </v>
   <v>       0.00237551       0.00006297       0.00065372 </v>
   <v>       0.00385292       0.01427575      -0.00022907 </v>
   <v>      -0.01011074       0.02334991       0.00999116 </v>
   <v>       0.00380487       0.00123707       0.00245972 </v>
   <v>      -0.01948540      -0.08006228      -0.00693156 </v>
   <v>      -0.00198470       0.00601554       0.00000938 </v>
   <v>      -0.00097058       0.00718196      -0.00391393 </v>
   <v>       0.00864955       0.00722035      -0.00168737 </v>
   <v>       0.00013703       0.01213049      -0.00050967 </v>
  </varray>
  <energy>
   <i name="e_fr_energy">    -69.59530798 </i>
   <i name="e_wo_entrp">    -69.59550908 </i>
   <i name="e_0_energy">      0.00060329 </i>
  </energy>
  <time name="totalsc"> 6195.99 6195.85</time>
  <eigenvalues>
   <array>
    <dimension dim="1">band</dimension>
    <dimension dim="2">kpoint</dimension>
    <dimension dim="3">spin</dimension>
    <field>eigene</field>
    <field>occ</field>
    <set>
     <set comment="spin 1">
      <set comment="kpoint 1">
       <r>  -68.6452    1.0000 </r>
       <r>  -68.6387    1.0000 </r>
       <r>  -68.6354    1.0000 </r>
       <r>  -68.6337    1.0000 </r>
       <r>  -68.6131    1.0000 </r>
       <r>  -68.6047    1.0000 </r>
       <r>  -68.5957    1.0000 </r>
       <r>  -68.5859    1.0000 </r>
       <r>  -68.5827    1.0000 </r>
       <r>  -68.5780    1.0000 </r>
       <r>  -68.5648    1.0000 </r>
       <r>  -68.5611    1.0000 </r>
       <r>  -12.7242    1.0000 </r>
       <r>  -11.1328    1.0000 </r>
       <r>  -10.9143    1.0000 </r>
       <r>  -10.6053    1.0000 </r>
       <r>  -10.2512    1.0000 </r>
       <r>  -10.2352    1.0000 </r>
       <r>   -5.9902    1.0000 </r>
       <r>   -4.9830    1.0000 </r>
       <r>   -2.7614    1.0000 </r>
       <r>   -2.2077    1.0000 </r>
       <r>   -2.0686    1.0000 </r>
       <r>   -1.9247    1.0000 </r>
       <r>   -1.5792    1.0000 </r>
       <r>   -0.9815    1.0000 </r>
       <r>   -0.9474    1.0000 </r>
       <r>   -0.6815    1.0000 </r>
       <r>   -0.4032    1.0000 </r>
       <r>   -0.2751    1.0000 </r>
       <r>   -0.2584    1.0000 </r>
       <r>   -0.2342    1.0000 </r>
       <r>   -0.1871    1.0000 </r>
       <r>   -0.1557    1.0000 </r>
       <r>   -0.0400    1.0000 </r>
       <r>    0.0332    1.0000 </r>
       <r>    1.3516    1.0000 </r>
       <r>    1.3637    1.0000 </r>
       <r>    1.4150    1.0000 </r>
       <r>    1.4565    1.0000 </r>
       <r>    1.4707    1.0000 </r>
       <r>    1.4738    1.0000 </r>
       <r>    1.5226    1.0000 </r>
       <r>    1.5327    1.0000 </r>
       <r>    1.5762    1.0000 </r>
       <r>    1.7114    1.0000 </r>
       <r>    1.8931    1.0000 </r>
       <r>    1.9299    1.0000 </r>
       <r>    2.0590    1.0000 </r>
       <r>    2.6513    1.0000 </r>
       <r>    2.7297    1.0000 </r>
       <r>    3.0913    1.0000 </r>
       <r>    3.2165    1.0000 </r>
       <r>    4.0051    1.0055 </r>
       <r>    4.0378    1.0149 </r>
       <r>    4.1698    0.8504 </r>
       <r>    5.5395   -0.0000 </r>
       <r>    6.3601   -0.0000 </r>
       <r>    7.6269    0.0000 </r>
       <r>    7.9832    0.0000 </r>
       <r>    8.6256    0.0000 </r>
       <r>    8.7920    0.0000 </r>
       <r>    9.5693    0.0000 </r>
       <r>    9.7353    0.0000 </r>
       <r>    9.8248    0.0000 </r>
       <r>   10.4226    0.0000 </r>
       <r>   10.5737    0.0000 </r>
       <r>   10.6960    0.0000 </r>
       <r>   10.7134    0.0000 </r>
       <r>   11.2877    0.0000 </r>
       <r>   11.7032    0.0000 </r>
       <r>   12.3897    0.0000 </r>
       <r>   12.4599    0.0000 </r>
       <r>   12.7339    0.0000 </r>
       <r>   13.3190    0.0000 </r>
       <r>   13.3774    0.0000 </r>
       <r>   13.8324    0.0000 </r>
       <r>   13.8839    0.0000 </r>
       <r>   14.1439    0.0000 </r>
       <r>   14.1794    0.0000 </r>
      </set>
      <set comment="kpoint 2">
       <r>  -68.6452    1.0000 </r>
       <r>  -68.6387    1.0000 </r>
       <r>  -68.6354    1.0000 </r>
       <r>  -68.6337    1.0000 </r>
       <r>  -68.6130    1.0000 </r>
       <r>  -68.6046    1.0000 </r>
       <r>  -68.5958    1.0000 </r>
       <r>  -68.5859    1.0000 </r>
       <r>  -68.5826    1.0000 </r>
       <r>  -68.5779    1.0000 </r>
       <r>  -68.5648    1.0000 </r>
       <r>  -68.5611    1.0000 </r>
       <r>  -12.5994    1.0000 </r>
       <r>  -11.1276    1.0000 </r>
       <r>  -10.9835    1.0000 </r>
       <r>  -10.6783    1.0000 </r>
       <r>  -10.3658    1.0000 </r>
       <r>  -10.2781    1.0000 </r>
       <r>   -5.9384    1.0000 </r>
       <r>   -4.7708    1.0000 </r>
       <r>   -2.6453    1.0000 </r>
       <r>   -2.2513    1.0000 </r>
       <r>   -2.0861    1.0000 </r>
       <r>   -1.6930    1.0000 </r>
       <r>   -1.3470    1.0000 </r>
       <r>   -0.9976    1.0000 </r>
       <r>   -0.7638    1.0000 </r>
       <r>   -0.6230    1.0000 </r>
       <r>   -0.5539    1.0000 </r>
       <r>   -0.4406    1.0000 </r>
       <r>   -0.3600    1.0000 </r>
       <r>   -0.2378    1.0000 </r>
       <r>   -0.1925    1.0000 </r>
       <r>   -0.1648    1.0000 </r>
       <r>   -0.0468    1.0000 </r>
       <r>    0.0412    1.0000 </r>
       <r>    1.2806    1.0000 </r>
       <r>    1.3355    1.0000 </r>
       <r>    1.3546    1.0000 </r>
       <r>    1.3934    1.0000 </r>
       <r>    1.4297    1.0000 </r>
       <r>    1.4730    1.0000 </r>
       <r>    1.4986    1.0000 </r>
       <r>    1.5300    1.0000 </r>
       <r>    1.7266    1.0000 </r>
       <r>    1.8591    1.0000 </r>
       <r>    2.0567    1.0000 </r>
       <r>    2.0949    1.0000 </r>
       <r>    2.2314    1.0000 </r>
       <r>    2.4132    1.0000 </r>
       <r>    2.5564    1.0000 </r>
       <r>    2.8258    1.0000 </r>
       <r>    2.9477    1.0000 </r>
       <r>    3.2434    1.0000 </r>
       <r>    3.6619    1.0000 </r>
       <r>    4.0381    1.0151 </r>
       <r>    6.1718   -0.0000 </r>
       <r>    6.9103   -0.0000 </r>
       <r>    8.1323    0.0000 </r>
       <r>    8.2700    0.0000 </r>
       <r>    8.5983    0.0000 </r>
       <r>    9.0146    0.0000 </r>
       <r>    9.2386    0.0000 </r>
       <r>    9.5385    0.0000 </r>
       <r>    9.8611    0.0000 </r>
       <r>   10.3750    0.0000 </r>
       <r>   10.6299    0.0000 </r>
       <r>   10.8132    0.0000 </r>
       <r>   10.9387    0.0000 </r>
       <r>   11.1948    0.0000 </r>
       <r>   11.6606    0.0000 </r>
       <r>   11.7708    0.0000 </r>
       <r>   12.1164    0.0000 </r>
       <r>   12.4400    0.0000 </r>
       <r>   12.6171    0.0000 </r>
       <r>   13.0070    0.0000 </r>
       <r>   13.5066    0.0000 </r>
       <r>   13.8733    0.0000 </r>
       <r>   14.2114    0.0000 </r>
       <r>   14.7084    0.0000 </r>
      </set>
      <set comment="kpoint 3">
       <r>  -68.6450    1.0000 </r>
       <r>  -68.6386    1.0000 </r>
       <r>  -68.6352    1.0000 </r>
       <r>  -68.6336    1.0000 </r>
       <r>  -68.6129    1.0000 </r>
       <r>  -68.6046    1.0000 </r>
       <r>  -68.5957    1.0000 </r>
       <r>  -68.5859    1.0000 </r>
       <r>  -68.5826    1.0000 </r>
       <r>  -68.5779    1.0000 </r>
       <r>  -68.5647    1.0000 </r>
       <r>  -68.5609    1.0000 </r>
       <r>  -12.4405    1.0000 </r>
       <r>  -11.2477    1.0000 </r>
       <r>  -10.9595    1.0000 </r>
       <r>  -10.7661    1.0000 </r>
       <r>  -10.4262    1.0000 </r>
       <r>  -10.3590    1.0000 </r>
       <r>   -5.8760    1.0000 </r>
       <r>   -4.5437    1.0000 </r>
       <r>   -2.4929    1.0000 </r>
       <r>   -2.2437    1.0000 </r>
       <r>   -1.9466    1.0000 </r>
       <r>   -1.4669    1.0000 </r>
       <r>   -1.2276    1.0000 </r>
       <r>   -1.1039    1.0000 </r>
       <r>   -0.9033    1.0000 </r>
       <r>   -0.8642    1.0000 </r>
       <r>   -0.5973    1.0000 </r>
       <r>   -0.5354    1.0000 </r>
       <r>   -0.2706    1.0000 </r>
       <r>   -0.2053    1.0000 </r>
       <r>   -0.2011    1.0000 </r>
       <r>   -0.1400    1.0000 </r>
       <r>   -0.0307    1.0000 </r>
       <r>    0.0832    1.0000 </r>
       <r>    1.2555    1.0000 </r>
       <r>    1.3274    1.0000 </r>
       <r>    1.3489    1.0000 </r>
       <r>    1.4004    1.0000 </r>
       <r>    1.4709    1.0000 </r>
       <r>    1.4785    1.0000 </r>
       <r>    1.5014    1.0000 </r>
       <r>    1.5530    1.0000 </r>
       <r>    1.7529    1.0000 </r>
       <r>    1.7889    1.0000 </r>
       <r>    1.9673    1.0000 </r>
       <r>    2.1474    1.0000 </r>
       <r>    2.3211    1.0000 </r>
       <r>    2.3625    1.0000 </r>
       <r>    2.5565    1.0000 </r>
       <r>    2.6710    1.0000 </r>
       <r>    2.9407    1.0000 </r>
       <r>    3.0777    1.0000 </r>
       <r>    3.2501    1.0000 </r>
       <r>    3.8612    1.0000 </r>
       <r>    6.3862   -0.0000 </r>
       <r>    7.1023    0.0000 </r>
       <r>    7.9795    0.0000 </r>
       <r>    8.2013    0.0000 </r>
       <r>    8.5166    0.0000 </r>
       <r>    8.8222    0.0000 </r>
       <r>    9.3388    0.0000 </r>
       <r>    9.8897    0.0000 </r>
       <r>   10.0069    0.0000 </r>
       <r>   10.5101    0.0000 </r>
       <r>   10.7000    0.0000 </r>
       <r>   10.7902    0.0000 </r>
       <r>   11.1443    0.0000 </r>
       <r>   11.4046    0.0000 </r>
       <r>   11.6100    0.0000 </r>
       <r>   11.7760    0.0000 </r>
       <r>   11.9450    0.0000 </r>
       <r>   12.5042    0.0000 </r>
       <r>   12.7749    0.0000 </r>
       <r>   13.0026    0.0000 </r>
       <r>   13.3930    0.0000 </r>
       <r>   13.5424    0.0000 </r>
       <r>   13.9371    0.0000 </r>
       <r>   14.2697    0.0000 </r>
      </set>
      <set comment="kpoint 4">
       <r>  -68.6452    1.0000 </r>
       <r>  -68.6387    1.0000 </r>
       <r>  -68.6353    1.0000 </r>
       <r>  -68.6337    1.0000 </r>
       <r>  -68.6130    1.0000 </r>
       <r>  -68.6046    1.0000 </r>
       <r>  -68.5957    1.0000 </r>
       <r>  -68.5860    1.0000 </r>
       <r>  -68.5827    1.0000 </r>
       <r>  -68.5779    1.0000 </r>
       <r>  -68.5648    1.0000 </r>
       <r>  -68.5611    1.0000 </r>
       <r>  -12.5995    1.0000 </r>
       <r>  -11.1295    1.0000 </r>
       <r>  -10.9809    1.0000 </r>
       <r>  -10.6789    1.0000 </r>
       <r>  -10.3663    1.0000 </r>
       <r>  -10.2775    1.0000 </r>
       <r>   -5.9384    1.0000 </r>
       <r>   -4.7715    1.0000 </r>
       <r>   -2.6471    1.0000 </r>
       <r>   -2.2522    1.0000 </r>
       <r>   -2.0861    1.0000 </r>
       <r>   -1.6877    1.0000 </r>
       <r>   -1.3483    1.0000 </r>
       <r>   -0.9949    1.0000 </r>
       <r>   -0.7685    1.0000 </r>
       <r>   -0.6210    1.0000 </r>
       <r>   -0.5515    1.0000 </r>
       <r>   -0.4399    1.0000 </r>
       <r>   -0.3579    1.0000 </r>
       <r>   -0.2408    1.0000 </r>
       <r>   -0.1940    1.0000 </r>
       <r>   -0.1683    1.0000 </r>
       <r>   -0.0447    1.0000 </r>
       <r>    0.0419    1.0000 </r>
       <r>    1.2802    1.0000 </r>
       <r>    1.3352    1.0000 </r>
       <r>    1.3554    1.0000 </r>
       <r>    1.3935    1.0000 </r>
       <r>    1.4287    1.0000 </r>
       <r>    1.4732    1.0000 </r>
       <r>    1.4986    1.0000 </r>
       <r>    1.5314    1.0000 </r>
       <r>    1.7246    1.0000 </r>
       <r>    1.8610    1.0000 </r>
       <r>    2.0565    1.0000 </r>
       <r>    2.0929    1.0000 </r>
       <r>    2.2322    1.0000 </r>
       <r>    2.4139    1.0000 </r>
       <r>    2.5575    1.0000 </r>
       <r>    2.8256    1.0000 </r>
       <r>    2.9457    1.0000 </r>
       <r>    3.2429    1.0000 </r>
       <r>    3.6620    1.0000 </r>
       <r>    4.0385    1.0153 </r>
       <r>    6.1717   -0.0000 </r>
       <r>    6.9108   -0.0000 </r>
       <r>    8.1419    0.0000 </r>
       <r>    8.2653    0.0000 </r>
       <r>    8.5922    0.0000 </r>
       <r>    9.0176    0.0000 </r>
       <r>    9.2355    0.0000 </r>
       <r>    9.5351    0.0000 </r>
       <r>    9.8649    0.0000 </r>
       <r>   10.3731    0.0000 </r>
       <r>   10.6347    0.0000 </r>
       <r>   10.8155    0.0000 </r>
       <r>   10.9375    0.0000 </r>
       <r>   11.1894    0.0000 </r>
       <r>   11.6578    0.0000 </r>
       <r>   11.7712    0.0000 </r>
       <r>   12.1186    0.0000 </r>
       <r>   12.4400    0.0000 </r>
       <r>   12.6167    0.0000 </r>
       <r>   13.0117    0.0000 </r>
       <r>   13.5201    0.0000 </r>
       <r>   13.8999    0.0000 </r>
       <r>   14.2733    0.0000 </r>
       <r>   14.8340    0.0000 </r>
      </set>
      <set comment="kpoint 5">
       <r>  -68.6452    1.0000 </r>
       <r>  -68.6386    1.0000 </r>
       <r>  -68.6354    1.0000 </r>
       <r>  -68.6336    1.0000 </r>
       <r>  -68.6131    1.0000 </r>
       <r>  -68.6047    1.0000 </r>
       <r>  -68.5956    1.0000 </r>
       <r>  -68.5858    1.0000 </r>
       <r>  -68.5828    1.0000 </r>
       <r>  -68.5781    1.0000 </r>
       <r>  -68.5648    1.0000 </r>
       <r>  -68.5611    1.0000 </r>
       <r>  -12.4443    1.0000 </r>
       <r>  -11.1896    1.0000 </r>
       <r>  -10.9449    1.0000 </r>
       <r>  -10.8799    1.0000 </r>
       <r>  -10.3909    1.0000 </r>
       <r>  -10.3502    1.0000 </r>
       <r>   -5.8810    1.0000 </r>
       <r>   -4.5181    1.0000 </r>
       <r>   -2.4186    1.0000 </r>
       <r>   -2.2449    1.0000 </r>
       <r>   -1.7927    1.0000 </r>
       <r>   -1.6812    1.0000 </r>
       <r>   -1.3535    1.0000 </r>
       <r>   -1.3000    1.0000 </r>
       <r>   -1.0826    1.0000 </r>
       <r>   -0.6834    1.0000 </r>
       <r>   -0.5270    1.0000 </r>
       <r>   -0.2957    1.0000 </r>
       <r>   -0.2809    1.0000 </r>
       <r>   -0.2226    1.0000 </r>
       <r>   -0.1860    1.0000 </r>
       <r>   -0.1232    1.0000 </r>
       <r>   -0.0922    1.0000 </r>
       <r>    0.0833    1.0000 </r>
       <r>    1.2943    1.0000 </r>
       <r>    1.3121    1.0000 </r>
       <r>    1.4162    1.0000 </r>
       <r>    1.4282    1.0000 </r>
       <r>    1.4656    1.0000 </r>
       <r>    1.4831    1.0000 </r>
       <r>    1.4951    1.0000 </r>
       <r>    1.5696    1.0000 </r>
       <r>    1.6706    1.0000 </r>
       <r>    1.8796    1.0000 </r>
       <r>    1.9397    1.0000 </r>
       <r>    2.1342    1.0000 </r>
       <r>    2.2787    1.0000 </r>
       <r>    2.3206    1.0000 </r>
       <r>    2.5607    1.0000 </r>
       <r>    2.6531    1.0000 </r>
       <r>    2.9026    1.0000 </r>
       <r>    2.9471    1.0000 </r>
       <r>    3.6977    1.0000 </r>
       <r>    3.8305    1.0000 </r>
       <r>    6.1744   -0.0000 </r>
       <r>    6.9977    0.0000 </r>
       <r>    8.0030    0.0000 </r>
       <r>    8.3269    0.0000 </r>
       <r>    8.4333    0.0000 </r>
       <r>    8.5689    0.0000 </r>
       <r>    9.1523    0.0000 </r>
       <r>    9.2468    0.0000 </r>
       <r>   10.3630    0.0000 </r>
       <r>   10.4941    0.0000 </r>
       <r>   10.9185    0.0000 </r>
       <r>   11.1832    0.0000 </r>
       <r>   11.3314    0.0000 </r>
       <r>   11.5596    0.0000 </r>
       <r>   11.8129    0.0000 </r>
       <r>   11.9602    0.0000 </r>
       <r>   12.3132    0.0000 </r>
       <r>   12.5028    0.0000 </r>
       <r>   12.7117    0.0000 </r>
       <r>   12.9124    0.0000 </r>
       <r>   13.3357    0.0000 </r>
       <r>   13.4478    0.0000 </r>
       <r>   14.2530    0.0000 </r>
       <r>   14.3665    0.0000 </r>
      </set>
      <set comment="kpoint 6">
       <r>  -68.6450    1.0000 </r>
       <r>  -68.6385    1.0000 </r>
       <r>  -68.6353    1.0000 </r>
       <r>  -68.6337    1.0000 </r>
       <r>  -68.6129    1.0000 </r>
       <r>  -68.6045    1.0000 </r>
       <r>  -68.5957    1.0000 </r>
       <r>  -68.5859    1.0000 </r>
       <r>  -68.5825    1.0000 </r>
       <r>  -68.5779    1.0000 </r>
       <r>  -68.5647    1.0000 </r>
       <r>  -68.5610    1.0000 </r>
       <r>  -12.4452    1.0000 </r>
       <r>  -11.3524    1.0000 </r>
       <r>  -10.9405    1.0000 </r>
       <r>  -10.7390    1.0000 </r>
       <r>  -10.3889    1.0000 </r>
       <r>  -10.2716    1.0000 </r>
       <r>   -5.9525    1.0000 </r>
       <r>   -4.6411    1.0000 </r>
       <r>   -2.3912    1.0000 </r>
       <r>   -2.2233    1.0000 </r>
       <r>   -2.0568    1.0000 </r>
       <r>   -1.6444    1.0000 </r>
       <r>   -1.3635    1.0000 </r>
       <r>   -1.2821    1.0000 </r>
       <r>   -1.0231    1.0000 </r>
       <r>   -0.5106    1.0000 </r>
       <r>   -0.4837    1.0000 </r>
       <r>   -0.3293    1.0000 </r>
       <r>   -0.2831    1.0000 </r>
       <r>   -0.2108    1.0000 </r>
       <r>   -0.1487    1.0000 </r>
       <r>   -0.1332    1.0000 </r>
       <r>   -0.0098    1.0000 </r>
       <r>    0.1139    1.0000 </r>
       <r>    1.2482    1.0000 </r>
       <r>    1.3175    1.0000 </r>
       <r>    1.3826    1.0000 </r>
       <r>    1.4383    1.0000 </r>
       <r>    1.4639    1.0000 </r>
       <r>    1.4928    1.0000 </r>
       <r>    1.4978    1.0000 </r>
       <r>    1.5489    1.0000 </r>
       <r>    1.7491    1.0000 </r>
       <r>    1.8294    1.0000 </r>
       <r>    1.9227    1.0000 </r>
       <r>    2.1329    1.0000 </r>
       <r>    2.2212    1.0000 </r>
       <r>    2.3861    1.0000 </r>
       <r>    2.5618    1.0000 </r>
       <r>    2.7917    1.0000 </r>
       <r>    2.9777    1.0000 </r>
       <r>    3.3109    1.0000 </r>
       <r>    3.6037    1.0000 </r>
       <r>    3.7474    1.0000 </r>
       <r>    6.0881   -0.0000 </r>
       <r>    6.9437   -0.0000 </r>
       <r>    7.6099    0.0000 </r>
       <r>    8.0669    0.0000 </r>
       <r>    8.4130    0.0000 </r>
       <r>    8.6156    0.0000 </r>
       <r>    8.9872    0.0000 </r>
       <r>    9.1504    0.0000 </r>
       <r>   10.0904    0.0000 </r>
       <r>   10.3333    0.0000 </r>
       <r>   10.7360    0.0000 </r>
       <r>   11.1059    0.0000 </r>
       <r>   11.4545    0.0000 </r>
       <r>   11.5939    0.0000 </r>
       <r>   11.7981    0.0000 </r>
       <r>   12.0815    0.0000 </r>
       <r>   12.4814    0.0000 </r>
       <r>   12.9234    0.0000 </r>
       <r>   13.0286    0.0000 </r>
       <r>   13.8283    0.0000 </r>
       <r>   14.1958    0.0000 </r>
       <r>   14.6520    0.0000 </r>
       <r>   15.4374    0.0000 </r>
       <r>   15.6468    0.0000 </r>
      </set>
      <set comment="kpoint 7">
       <r>  -68.6452    1.0000 </r>
       <r>  -68.6387    1.0000 </r>
       <r>  -68.6354    1.0000 </r>
       <r>  -68.6336    1.0000 </r>
       <r>  -68.6129    1.0000 </r>
       <r>  -68.6045    1.0000 </r>
       <r>  -68.5957    1.0000 </r>
       <r>  -68.5859    1.0000 </r>
       <r>  -68.5826    1.0000 </r>
       <r>  -68.5779    1.0000 </r>
       <r>  -68.5648    1.0000 </r>
       <r>  -68.5611    1.0000 </r>
       <r>  -12.6027    1.0000 </r>
       <r>  -11.2513    1.0000 </r>
       <r>  -10.9927    1.0000 </r>
       <r>  -10.5710    1.0000 </r>
       <r>  -10.3667    1.0000 </r>
       <r>  -10.1802    1.0000 </r>
       <r>   -6.0150    1.0000 </r>
       <r>   -4.8952    1.0000 </r>
       <r>   -2.6473    1.0000 </r>
       <r>   -2.3115    1.0000 </r>
       <r>   -1.9723    1.0000 </r>
       <r>   -1.6475    1.0000 </r>
       <r>   -1.4959    1.0000 </r>
       <r>   -1.1850    1.0000 </r>
       <r>   -0.7867    1.0000 </r>
       <r>   -0.5853    1.0000 </r>
       <r>   -0.4450    1.0000 </r>
       <r>   -0.3296    1.0000 </r>
       <r>   -0.2928    1.0000 </r>
       <r>   -0.2316    1.0000 </r>
       <r>   -0.1754    1.0000 </r>
       <r>   -0.1291    1.0000 </r>
       <r>   -0.0083    1.0000 </r>
       <r>    0.0714    1.0000 </r>
       <r>    1.2606    1.0000 </r>
       <r>    1.3216    1.0000 </r>
       <r>    1.3677    1.0000 </r>
       <r>    1.4227    1.0000 </r>
       <r>    1.4311    1.0000 </r>
       <r>    1.4765    1.0000 </r>
       <r>    1.5039    1.0000 </r>
       <r>    1.5464    1.0000 </r>
       <r>    1.7265    1.0000 </r>
       <r>    1.8129    1.0000 </r>
       <r>    1.9957    1.0000 </r>
       <r>    2.0726    1.0000 </r>
       <r>    2.4166    1.0000 </r>
       <r>    2.4637    1.0000 </r>
       <r>    2.5278    1.0000 </r>
       <r>    2.8730    1.0000 </r>
       <r>    3.1426    1.0000 </r>
       <r>    3.2272    1.0000 </r>
       <r>    3.7844    1.0000 </r>
       <r>    4.0686    1.0286 </r>
       <r>    5.9774   -0.0000 </r>
       <r>    6.6879   -0.0000 </r>
       <r>    7.5385    0.0000 </r>
       <r>    8.2183    0.0000 </r>
       <r>    8.6212    0.0000 </r>
       <r>    8.9196    0.0000 </r>
       <r>    9.3057    0.0000 </r>
       <r>    9.4338    0.0000 </r>
       <r>    9.8006    0.0000 </r>
       <r>   10.2698    0.0000 </r>
       <r>   10.5346    0.0000 </r>
       <r>   10.8287    0.0000 </r>
       <r>   10.9777    0.0000 </r>
       <r>   11.3787    0.0000 </r>
       <r>   11.4694    0.0000 </r>
       <r>   11.7375    0.0000 </r>
       <r>   12.1039    0.0000 </r>
       <r>   12.6639    0.0000 </r>
       <r>   12.9423    0.0000 </r>
       <r>   13.1079    0.0000 </r>
       <r>   13.3510    0.0000 </r>
       <r>   13.5206    0.0000 </r>
       <r>   14.4729    0.0000 </r>
       <r>   14.7543    0.0000 </r>
      </set>
      <set comment="kpoint 8">
       <r>  -68.6450    1.0000 </r>
       <r>  -68.6386    1.0000 </r>
       <r>  -68.6352    1.0000 </r>
       <r>  -68.6336    1.0000 </r>
       <r>  -68.6130    1.0000 </r>
       <r>  -68.6045    1.0000 </r>
       <r>  -68.5957    1.0000 </r>
       <r>  -68.5859    1.0000 </r>
       <r>  -68.5826    1.0000 </r>
       <r>  -68.5779    1.0000 </r>
       <r>  -68.5646    1.0000 </r>
       <r>  -68.5610    1.0000 </r>
       <r>  -12.4406    1.0000 </r>
       <r>  -11.2487    1.0000 </r>
       <r>  -10.9582    1.0000 </r>
       <r>  -10.7661    1.0000 </r>
       <r>  -10.4278    1.0000 </r>
       <r>  -10.3573    1.0000 </r>
       <r>   -5.8760    1.0000 </r>
       <r>   -4.5454    1.0000 </r>
       <r>   -2.4961    1.0000 </r>
       <r>   -2.2452    1.0000 </r>
       <r>   -1.9437    1.0000 </r>
       <r>   -1.4636    1.0000 </r>
       <r>   -1.2236    1.0000 </r>
       <r>   -1.1022    1.0000 </r>
       <r>   -0.8997    1.0000 </r>
       <r>   -0.8646    1.0000 </r>
       <r>   -0.6009    1.0000 </r>
       <r>   -0.5368    1.0000 </r>
       <r>   -0.2721    1.0000 </r>
       <r>   -0.2082    1.0000 </r>
       <r>   -0.2009    1.0000 </r>
       <r>   -0.1427    1.0000 </r>
       <r>   -0.0272    1.0000 </r>
       <r>    0.0844    1.0000 </r>
       <r>    1.2548    1.0000 </r>
       <r>    1.3291    1.0000 </r>
       <r>    1.3492    1.0000 </r>
       <r>    1.3976    1.0000 </r>
       <r>    1.4730    1.0000 </r>
       <r>    1.4784    1.0000 </r>
       <r>    1.5012    1.0000 </r>
       <r>    1.5542    1.0000 </r>
       <r>    1.7520    1.0000 </r>
       <r>    1.7919    1.0000 </r>
       <r>    1.9679    1.0000 </r>
       <r>    2.1464    1.0000 </r>
       <r>    2.3181    1.0000 </r>
       <r>    2.3615    1.0000 </r>
       <r>    2.5558    1.0000 </r>
       <r>    2.6719    1.0000 </r>
       <r>    2.9364    1.0000 </r>
       <r>    3.0786    1.0000 </r>
       <r>    3.2506    1.0000 </r>
       <r>    3.8607    1.0000 </r>
       <r>    6.3861   -0.0000 </r>
       <r>    7.1043    0.0000 </r>
       <r>    7.9807    0.0000 </r>
       <r>    8.2095    0.0000 </r>
       <r>    8.5188    0.0000 </r>
       <r>    8.8200    0.0000 </r>
       <r>    9.3315    0.0000 </r>
       <r>    9.8856    0.0000 </r>
       <r>   10.0100    0.0000 </r>
       <r>   10.5185    0.0000 </r>
       <r>   10.6874    0.0000 </r>
       <r>   10.7864    0.0000 </r>
       <r>   11.1449    0.0000 </r>
       <r>   11.4073    0.0000 </r>
       <r>   11.6088    0.0000 </r>
       <r>   11.7746    0.0000 </r>
       <r>   11.9398    0.0000 </r>
       <r>   12.5118    0.0000 </r>
       <r>   12.8200    0.0000 </r>
       <r>   13.0338    0.0000 </r>
       <r>   13.5475    0.0000 </r>
       <r>   13.6865    0.0000 </r>
       <r>   14.5487    0.0000 </r>
       <r>   15.2506    0.0000 </r>
      </set>
      <set comment="kpoint 9">
       <r>  -68.6449    1.0000 </r>
       <r>  -68.6385    1.0000 </r>
       <r>  -68.6353    1.0000 </r>
       <r>  -68.6337    1.0000 </r>
       <r>  -68.6129    1.0000 </r>
       <r>  -68.6044    1.0000 </r>
       <r>  -68.5957    1.0000 </r>
       <r>  -68.5859    1.0000 </r>
       <r>  -68.5826    1.0000 </r>
       <r>  -68.5779    1.0000 </r>
       <r>  -68.5646    1.0000 </r>
       <r>  -68.5610    1.0000 </r>
       <r>  -12.4452    1.0000 </r>
       <r>  -11.3527    1.0000 </r>
       <r>  -10.9401    1.0000 </r>
       <r>  -10.7392    1.0000 </r>
       <r>  -10.3884    1.0000 </r>
       <r>  -10.2719    1.0000 </r>
       <r>   -5.9525    1.0000 </r>
       <r>   -4.6418    1.0000 </r>
       <r>   -2.3935    1.0000 </r>
       <r>   -2.2251    1.0000 </r>
       <r>   -2.0570    1.0000 </r>
       <r>   -1.6380    1.0000 </r>
       <r>   -1.3623    1.0000 </r>
       <r>   -1.2829    1.0000 </r>
       <r>   -1.0228    1.0000 </r>
       <r>   -0.5097    1.0000 </r>
       <r>   -0.4825    1.0000 </r>
       <r>   -0.3316    1.0000 </r>
       <r>   -0.2796    1.0000 </r>
       <r>   -0.2151    1.0000 </r>
       <r>   -0.1522    1.0000 </r>
       <r>   -0.1328    1.0000 </r>
       <r>   -0.0069    1.0000 </r>
       <r>    0.1136    1.0000 </r>
       <r>    1.2484    1.0000 </r>
       <r>    1.3156    1.0000 </r>
       <r>    1.3856    1.0000 </r>
       <r>    1.4376    1.0000 </r>
       <r>    1.4631    1.0000 </r>
       <r>    1.4932    1.0000 </r>
       <r>    1.4967    1.0000 </r>
       <r>    1.5499    1.0000 </r>
       <r>    1.7497    1.0000 </r>
       <r>    1.8285    1.0000 </r>
       <r>    1.9226    1.0000 </r>
       <r>    2.1336    1.0000 </r>
       <r>    2.2213    1.0000 </r>
       <r>    2.3847    1.0000 </r>
       <r>    2.5615    1.0000 </r>
       <r>    2.7897    1.0000 </r>
       <r>    2.9797    1.0000 </r>
       <r>    3.3106    1.0000 </r>
       <r>    3.6039    1.0000 </r>
       <r>    3.7476    1.0000 </r>
       <r>    6.0878   -0.0000 </r>
       <r>    6.9442   -0.0000 </r>
       <r>    7.6123    0.0000 </r>
       <r>    8.0680    0.0000 </r>
       <r>    8.4094    0.0000 </r>
       <r>    8.6162    0.0000 </r>
       <r>    8.9866    0.0000 </r>
       <r>    9.1519    0.0000 </r>
       <r>   10.0853    0.0000 </r>
       <r>   10.3327    0.0000 </r>
       <r>   10.7385    0.0000 </r>
       <r>   11.0995    0.0000 </r>
       <r>   11.4578    0.0000 </r>
       <r>   11.5781    0.0000 </r>
       <r>   11.7857    0.0000 </r>
       <r>   12.0297    0.0000 </r>
       <r>   12.5302    0.0000 </r>
       <r>   12.6912    0.0000 </r>
       <r>   12.9189    0.0000 </r>
       <r>   13.2006    0.0000 </r>
       <r>   14.2269    0.0000 </r>
       <r>   14.7676    0.0000 </r>
       <r>   15.2526    0.0000 </r>
       <r>   15.9069    0.0000 </r>
      </set>
      <set comment="kpoint 10">
       <r>  -68.6448    1.0000 </r>
       <r>  -68.6384    1.0000 </r>
       <r>  -68.6350    1.0000 </r>
       <r>  -68.6336    1.0000 </r>
       <r>  -68.6128    1.0000 </r>
       <r>  -68.6044    1.0000 </r>
       <r>  -68.5955    1.0000 </r>
       <r>  -68.5857    1.0000 </r>
       <r>  -68.5825    1.0000 </r>
       <r>  -68.5778    1.0000 </r>
       <r>  -68.5645    1.0000 </r>
       <r>  -68.5608    1.0000 </r>
       <r>  -12.4377    1.0000 </r>
       <r>  -11.4993    1.0000 </r>
       <r>  -10.9159    1.0000 </r>
       <r>  -10.6180    1.0000 </r>
       <r>  -10.3974    1.0000 </r>
       <r>  -10.1994    1.0000 </r>
       <r>   -6.0309    1.0000 </r>
       <r>   -4.8120    1.0000 </r>
       <r>   -2.3138    1.0000 </r>
       <r>   -2.2604    1.0000 </r>
       <r>   -2.0908    1.0000 </r>
       <r>   -1.7039    1.0000 </r>
       <r>   -1.2467    1.0000 </r>
       <r>   -1.1134    1.0000 </r>
       <r>   -0.8421    1.0000 </r>
       <r>   -0.7816    1.0000 </r>
       <r>   -0.7275    1.0000 </r>
       <r>   -0.2428    1.0000 </r>
       <r>   -0.1946    1.0000 </r>
       <r>   -0.1784    1.0000 </r>
       <r>   -0.1495    1.0000 </r>
       <r>   -0.0380    1.0000 </r>
       <r>   -0.0032    1.0000 </r>
       <r>    0.1841    1.0000 </r>
       <r>    1.2654    1.0000 </r>
       <r>    1.3197    1.0000 </r>
       <r>    1.3802    1.0000 </r>
       <r>    1.4142    1.0000 </r>
       <r>    1.4315    1.0000 </r>
       <r>    1.4944    1.0000 </r>
       <r>    1.5089    1.0000 </r>
       <r>    1.5519    1.0000 </r>
       <r>    1.7887    1.0000 </r>
       <r>    1.8486    1.0000 </r>
       <r>    1.9969    1.0000 </r>
       <r>    2.1505    1.0000 </r>
       <r>    2.2534    1.0000 </r>
       <r>    2.3380    1.0000 </r>
       <r>    2.5607    1.0000 </r>
       <r>    2.7628    1.0000 </r>
       <r>    2.7739    1.0000 </r>
       <r>    3.3666    1.0000 </r>
       <r>    3.7626    1.0000 </r>
       <r>    4.0071    1.0059 </r>
       <r>    5.8532   -0.0000 </r>
       <r>    6.7609   -0.0000 </r>
       <r>    7.0947    0.0000 </r>
       <r>    8.4098    0.0000 </r>
       <r>    8.5604    0.0000 </r>
       <r>    8.7673    0.0000 </r>
       <r>    9.1420    0.0000 </r>
       <r>    9.2403    0.0000 </r>
       <r>    9.9625    0.0000 </r>
       <r>   10.2725    0.0000 </r>
       <r>   10.7249    0.0000 </r>
       <r>   10.8267    0.0000 </r>
       <r>   10.8829    0.0000 </r>
       <r>   11.2728    0.0000 </r>
       <r>   11.7543    0.0000 </r>
       <r>   11.9238    0.0000 </r>
       <r>   11.9743    0.0000 </r>
       <r>   12.3650    0.0000 </r>
       <r>   12.5409    0.0000 </r>
       <r>   13.4680    0.0000 </r>
       <r>   14.2840    0.0000 </r>
       <r>   14.6793    0.0000 </r>
       <r>   16.7482    0.0000 </r>
       <r>   16.7578    0.0000 </r>
      </set>
      <set comment="kpoint 11">
       <r>  -68.6452    1.0000 </r>
       <r>  -68.6387    1.0000 </r>
       <r>  -68.6354    1.0000 </r>
       <r>  -68.6337    1.0000 </r>
       <r>  -68.6130    1.0000 </r>
       <r>  -68.6046    1.0000 </r>
       <r>  -68.5958    1.0000 </r>
       <r>  -68.5860    1.0000 </r>
       <r>  -68.5827    1.0000 </r>
       <r>  -68.5780    1.0000 </r>
       <r>  -68.5648    1.0000 </r>
       <r>  -68.5611    1.0000 </r>
       <r>  -12.6209    1.0000 </r>
       <r>  -11.4275    1.0000 </r>
       <r>  -10.7773    1.0000 </r>
       <r>  -10.6101    1.0000 </r>
       <r>  -10.2500    1.0000 </r>
       <r>  -10.2372    1.0000 </r>
       <r>   -5.8356    1.0000 </r>
       <r>   -5.0464    1.0000 </r>
       <r>   -2.6013    1.0000 </r>
       <r>   -2.3722    1.0000 </r>
       <r>   -1.9647    1.0000 </r>
       <r>   -1.7739    1.0000 </r>
       <r>   -1.4461    1.0000 </r>
       <r>   -1.1229    1.0000 </r>
       <r>   -1.0603    1.0000 </r>
       <r>   -0.7713    1.0000 </r>
       <r>   -0.4721    1.0000 </r>
       <r>   -0.2930    1.0000 </r>
       <r>   -0.2369    1.0000 </r>
       <r>   -0.2313    1.0000 </r>
       <r>   -0.1891    1.0000 </r>
       <r>   -0.1452    1.0000 </r>
       <r>   -0.0180    1.0000 </r>
       <r>    0.0251    1.0000 </r>
       <r>    1.3346    1.0000 </r>
       <r>    1.3826    1.0000 </r>
       <r>    1.4186    1.0000 </r>
       <r>    1.4406    1.0000 </r>
       <r>    1.4642    1.0000 </r>
       <r>    1.4661    1.0000 </r>
       <r>    1.5155    1.0000 </r>
       <r>    1.5451    1.0000 </r>
       <r>    1.6332    1.0000 </r>
       <r>    1.7600    1.0000 </r>
       <r>    1.7882    1.0000 </r>
       <r>    1.9511    1.0000 </r>
       <r>    2.0882    1.0000 </r>
       <r>    2.6603    1.0000 </r>
       <r>    2.7191    1.0000 </r>
       <r>    3.1951    1.0000 </r>
       <r>    3.2522    1.0000 </r>
       <r>    3.5198    1.0000 </r>
       <r>    3.8936    1.0000 </r>
       <r>    3.9764    1.0018 </r>
       <r>    6.0480   -0.0000 </r>
       <r>    6.4208   -0.0000 </r>
       <r>    7.8212    0.0000 </r>
       <r>    7.9078    0.0000 </r>
       <r>    8.3686    0.0000 </r>
       <r>    8.8190    0.0000 </r>
       <r>    9.7740    0.0000 </r>
       <r>    9.8024    0.0000 </r>
       <r>   10.0611    0.0000 </r>
       <r>   10.5812    0.0000 </r>
       <r>   10.6456    0.0000 </r>
       <r>   10.8113    0.0000 </r>
       <r>   10.8534    0.0000 </r>
       <r>   11.4941    0.0000 </r>
       <r>   11.5567    0.0000 </r>
       <r>   12.0276    0.0000 </r>
       <r>   12.5811    0.0000 </r>
       <r>   12.7792    0.0000 </r>
       <r>   12.9125    0.0000 </r>
       <r>   13.2033    0.0000 </r>
       <r>   13.5321    0.0000 </r>
       <r>   13.8210    0.0000 </r>
       <r>   14.1966    0.0000 </r>
       <r>   14.7038    0.0000 </r>
      </set>
      <set comment="kpoint 12">
       <r>  -68.6451    1.0000 </r>
       <r>  -68.6387    1.0000 </r>
       <r>  -68.6353    1.0000 </r>
       <r>  -68.6337    1.0000 </r>
       <r>  -68.6131    1.0000 </r>
       <r>  -68.6046    1.0000 </r>
       <r>  -68.5957    1.0000 </r>
       <r>  -68.5859    1.0000 </r>
       <r>  -68.5827    1.0000 </r>
       <r>  -68.5780    1.0000 </r>
       <r>  -68.5648    1.0000 </r>
       <r>  -68.5611    1.0000 </r>
       <r>  -12.4622    1.0000 </r>
       <r>  -11.4679    1.0000 </r>
       <r>  -10.8658    1.0000 </r>
       <r>  -10.6890    1.0000 </r>
       <r>  -10.3736    1.0000 </r>
       <r>  -10.2454    1.0000 </r>
       <r>   -5.7709    1.0000 </r>
       <r>   -4.8019    1.0000 </r>
       <r>   -2.4445    1.0000 </r>
       <r>   -2.2338    1.0000 </r>
       <r>   -1.8505    1.0000 </r>
       <r>   -1.7169    1.0000 </r>
       <r>   -1.4343    1.0000 </r>
       <r>   -1.1884    1.0000 </r>
       <r>   -0.8887    1.0000 </r>
       <r>   -0.7456    1.0000 </r>
       <r>   -0.6053    1.0000 </r>
       <r>   -0.5223    1.0000 </r>
       <r>   -0.3096    1.0000 </r>
       <r>   -0.2400    1.0000 </r>
       <r>   -0.1708    1.0000 </r>
       <r>   -0.1216    1.0000 </r>
       <r>   -0.0528    1.0000 </r>
       <r>    0.0624    1.0000 </r>
       <r>    1.3024    1.0000 </r>
       <r>    1.3380    1.0000 </r>
       <r>    1.3708    1.0000 </r>
       <r>    1.4315    1.0000 </r>
       <r>    1.4492    1.0000 </r>
       <r>    1.4803    1.0000 </r>
       <r>    1.5217    1.0000 </r>
       <r>    1.5475    1.0000 </r>
       <r>    1.6417    1.0000 </r>
       <r>    1.8705    1.0000 </r>
       <r>    1.9789    1.0000 </r>
       <r>    2.0478    1.0000 </r>
       <r>    2.1959    1.0000 </r>
       <r>    2.4749    1.0000 </r>
       <r>    2.5959    1.0000 </r>
       <r>    2.8397    1.0000 </r>
       <r>    2.9632    1.0000 </r>
       <r>    3.1332    1.0000 </r>
       <r>    3.5673    1.0000 </r>
       <r>    3.7235    1.0000 </r>
       <r>    6.4436   -0.0000 </r>
       <r>    6.9648    0.0000 </r>
       <r>    8.1724    0.0000 </r>
       <r>    8.2491    0.0000 </r>
       <r>    8.8295    0.0000 </r>
       <r>    9.1266    0.0000 </r>
       <r>    9.4657    0.0000 </r>
       <r>    9.8002    0.0000 </r>
       <r>   10.0866    0.0000 </r>
       <r>   10.2907    0.0000 </r>
       <r>   10.7407    0.0000 </r>
       <r>   11.0756    0.0000 </r>
       <r>   11.2932    0.0000 </r>
       <r>   11.4252    0.0000 </r>
       <r>   11.6362    0.0000 </r>
       <r>   11.7213    0.0000 </r>
       <r>   12.0819    0.0000 </r>
       <r>   12.2635    0.0000 </r>
       <r>   12.5488    0.0000 </r>
       <r>   12.6520    0.0000 </r>
       <r>   12.9528    0.0000 </r>
       <r>   13.0641    0.0000 </r>
       <r>   13.6342    0.0000 </r>
       <r>   14.6913    0.0000 </r>
      </set>
      <set comment="kpoint 13">
       <r>  -68.6450    1.0000 </r>
       <r>  -68.6384    1.0000 </r>
       <r>  -68.6354    1.0000 </r>
       <r>  -68.6336    1.0000 </r>
       <r>  -68.6129    1.0000 </r>
       <r>  -68.6045    1.0000 </r>
       <r>  -68.5956    1.0000 </r>
       <r>  -68.5858    1.0000 </r>
       <r>  -68.5826    1.0000 </r>
       <r>  -68.5779    1.0000 </r>
       <r>  -68.5647    1.0000 </r>
       <r>  -68.5610    1.0000 </r>
       <r>  -12.3600    1.0000 </r>
       <r>  -11.4146    1.0000 </r>
       <r>  -10.9534    1.0000 </r>
       <r>  -10.6861    1.0000 </r>
       <r>  -10.4783    1.0000 </r>
       <r>  -10.3342    1.0000 </r>
       <r>   -5.7558    1.0000 </r>
       <r>   -4.7182    1.0000 </r>
       <r>   -2.5229    1.0000 </r>
       <r>   -2.1850    1.0000 </r>
       <r>   -1.9548    1.0000 </r>
       <r>   -1.5380    1.0000 </r>
       <r>   -1.3018    1.0000 </r>
       <r>   -1.0971    1.0000 </r>
       <r>   -0.8692    1.0000 </r>
       <r>   -0.7554    1.0000 </r>
       <r>   -0.5481    1.0000 </r>
       <r>   -0.4458    1.0000 </r>
       <r>   -0.2892    1.0000 </r>
       <r>   -0.1776    1.0000 </r>
       <r>   -0.1455    1.0000 </r>
       <r>   -0.1021    1.0000 </r>
       <r>   -0.0441    1.0000 </r>
       <r>    0.0226    1.0000 </r>
       <r>    1.2731    1.0000 </r>
       <r>    1.2992    1.0000 </r>
       <r>    1.3537    1.0000 </r>
       <r>    1.4296    1.0000 </r>
       <r>    1.4543    1.0000 </r>
       <r>    1.4805    1.0000 </r>
       <r>    1.5026    1.0000 </r>
       <r>    1.5872    1.0000 </r>
       <r>    1.7196    1.0000 </r>
       <r>    1.9299    1.0000 </r>
       <r>    2.0762    1.0000 </r>
       <r>    2.1468    1.0000 </r>
       <r>    2.2672    1.0000 </r>
       <r>    2.4041    1.0000 </r>
       <r>    2.5695    1.0000 </r>
       <r>    2.5972    1.0000 </r>
       <r>    2.9012    1.0000 </r>
       <r>    3.0096    1.0000 </r>
       <r>    3.3606    1.0000 </r>
       <r>    3.8985    1.0000 </r>
       <r>    6.3652   -0.0000 </r>
       <r>    6.9040   -0.0000 </r>
       <r>    7.5754    0.0000 </r>
       <r>    8.0818    0.0000 </r>
       <r>    8.5481    0.0000 </r>
       <r>    8.7946    0.0000 </r>
       <r>    9.2869    0.0000 </r>
       <r>    9.6285    0.0000 </r>
       <r>    9.9295    0.0000 </r>
       <r>   10.2773    0.0000 </r>
       <r>   10.6598    0.0000 </r>
       <r>   10.9243    0.0000 </r>
       <r>   10.9712    0.0000 </r>
       <r>   11.2775    0.0000 </r>
       <r>   11.5225    0.0000 </r>
       <r>   11.7884    0.0000 </r>
       <r>   12.2505    0.0000 </r>
       <r>   12.5448    0.0000 </r>
       <r>   13.1026    0.0000 </r>
       <r>   13.5143    0.0000 </r>
       <r>   14.3031    0.0000 </r>
       <r>   14.6650    0.0000 </r>
       <r>   15.1245    0.0000 </r>
       <r>   16.2632    0.0000 </r>
      </set>
      <set comment="kpoint 14">
       <r>  -68.6452    1.0000 </r>
       <r>  -68.6387    1.0000 </r>
       <r>  -68.6354    1.0000 </r>
       <r>  -68.6336    1.0000 </r>
       <r>  -68.6130    1.0000 </r>
       <r>  -68.6046    1.0000 </r>
       <r>  -68.5958    1.0000 </r>
       <r>  -68.5859    1.0000 </r>
       <r>  -68.5827    1.0000 </r>
       <r>  -68.5780    1.0000 </r>
       <r>  -68.5648    1.0000 </r>
       <r>  -68.5611    1.0000 </r>
       <r>  -12.5446    1.0000 </r>
       <r>  -11.3398    1.0000 </r>
       <r>  -10.8720    1.0000 </r>
       <r>  -10.6086    1.0000 </r>
       <r>  -10.3985    1.0000 </r>
       <r>  -10.2828    1.0000 </r>
       <r>   -5.8289    1.0000 </r>
       <r>   -4.9729    1.0000 </r>
       <r>   -2.6653    1.0000 </r>
       <r>   -2.4551    1.0000 </r>
       <r>   -2.0382    1.0000 </r>
       <r>   -1.5779    1.0000 </r>
       <r>   -1.1724    1.0000 </r>
       <r>   -0.9839    1.0000 </r>
       <r>   -0.7879    1.0000 </r>
       <r>   -0.6549    1.0000 </r>
       <r>   -0.5173    1.0000 </r>
       <r>   -0.3894    1.0000 </r>
       <r>   -0.2703    1.0000 </r>
       <r>   -0.2508    1.0000 </r>
       <r>   -0.1904    1.0000 </r>
       <r>   -0.1432    1.0000 </r>
       <r>   -0.0450    1.0000 </r>
       <r>    0.0143    1.0000 </r>
       <r>    1.2903    1.0000 </r>
       <r>    1.3116    1.0000 </r>
       <r>    1.3901    1.0000 </r>
       <r>    1.4094    1.0000 </r>
       <r>    1.4364    1.0000 </r>
       <r>    1.4557    1.0000 </r>
       <r>    1.4930    1.0000 </r>
       <r>    1.5662    1.0000 </r>
       <r>    1.6890    1.0000 </r>
       <r>    1.9166    1.0000 </r>
       <r>    1.9874    1.0000 </r>
       <r>    2.1457    1.0000 </r>
       <r>    2.3349    1.0000 </r>
       <r>    2.5642    1.0000 </r>
       <r>    2.6158    1.0000 </r>
       <r>    2.8289    1.0000 </r>
       <r>    2.9742    1.0000 </r>
       <r>    3.2493    1.0000 </r>
       <r>    3.6837    1.0000 </r>
       <r>    3.9419    1.0004 </r>
       <r>    6.1795   -0.0000 </r>
       <r>    6.6423   -0.0000 </r>
       <r>    7.7657    0.0000 </r>
       <r>    7.9743    0.0000 </r>
       <r>    8.2149    0.0000 </r>
       <r>    8.5651    0.0000 </r>
       <r>    9.3814    0.0000 </r>
       <r>    9.5752    0.0000 </r>
       <r>    9.9105    0.0000 </r>
       <r>   10.2491    0.0000 </r>
       <r>   10.5442    0.0000 </r>
       <r>   10.7863    0.0000 </r>
       <r>   10.8363    0.0000 </r>
       <r>   11.0665    0.0000 </r>
       <r>   11.5680    0.0000 </r>
       <r>   12.0226    0.0000 </r>
       <r>   12.5368    0.0000 </r>
       <r>   12.7466    0.0000 </r>
       <r>   12.9560    0.0000 </r>
       <r>   13.3056    0.0000 </r>
       <r>   13.4121    0.0000 </r>
       <r>   13.7382    0.0000 </r>
       <r>   13.8501    0.0000 </r>
       <r>   14.7248    0.0000 </r>
      </set>
      <set comment="kpoint 15">
       <r>  -68.6451    1.0000 </r>
       <r>  -68.6387    1.0000 </r>
       <r>  -68.6353    1.0000 </r>
       <r>  -68.6337    1.0000 </r>
       <r>  -68.6131    1.0000 </r>
       <r>  -68.6046    1.0000 </r>
       <r>  -68.5957    1.0000 </r>
       <r>  -68.5859    1.0000 </r>
       <r>  -68.5827    1.0000 </r>
       <r>  -68.5780    1.0000 </r>
       <r>  -68.5648    1.0000 </r>
       <r>  -68.5611    1.0000 </r>
       <r>  -12.4620    1.0000 </r>
       <r>  -11.4693    1.0000 </r>
       <r>  -10.8630    1.0000 </r>
       <r>  -10.6903    1.0000 </r>
       <r>  -10.3735    1.0000 </r>
       <r>  -10.2455    1.0000 </r>
       <r>   -5.7717    1.0000 </r>
       <r>   -4.8020    1.0000 </r>
       <r>   -2.4455    1.0000 </r>
       <r>   -2.2336    1.0000 </r>
       <r>   -1.8503    1.0000 </r>
       <r>   -1.7147    1.0000 </r>
       <r>   -1.4336    1.0000 </r>
       <r>   -1.1869    1.0000 </r>
       <r>   -0.8915    1.0000 </r>
       <r>   -0.7476    1.0000 </r>
       <r>   -0.6052    1.0000 </r>
       <r>   -0.5153    1.0000 </r>
       <r>   -0.3111    1.0000 </r>
       <r>   -0.2435    1.0000 </r>
       <r>   -0.1732    1.0000 </r>
       <r>   -0.1197    1.0000 </r>
       <r>   -0.0522    1.0000 </r>
       <r>    0.0625    1.0000 </r>
       <r>    1.3037    1.0000 </r>
       <r>    1.3374    1.0000 </r>
       <r>    1.3714    1.0000 </r>
       <r>    1.4310    1.0000 </r>
       <r>    1.4469    1.0000 </r>
       <r>    1.4812    1.0000 </r>
       <r>    1.5216    1.0000 </r>
       <r>    1.5466    1.0000 </r>
       <r>    1.6427    1.0000 </r>
       <r>    1.8724    1.0000 </r>
       <r>    1.9765    1.0000 </r>
       <r>    2.0481    1.0000 </r>
       <r>    2.1963    1.0000 </r>
       <r>    2.4754    1.0000 </r>
       <r>    2.5954    1.0000 </r>
       <r>    2.8399    1.0000 </r>
       <r>    2.9634    1.0000 </r>
       <r>    3.1316    1.0000 </r>
       <r>    3.5660    1.0000 </r>
       <r>    3.7249    1.0000 </r>
       <r>    6.4455   -0.0000 </r>
       <r>    6.9639    0.0000 </r>
       <r>    8.1723    0.0000 </r>
       <r>    8.2478    0.0000 </r>
       <r>    8.8354    0.0000 </r>
       <r>    9.1259    0.0000 </r>
       <r>    9.4622    0.0000 </r>
       <r>    9.7975    0.0000 </r>
       <r>   10.0782    0.0000 </r>
       <r>   10.3006    0.0000 </r>
       <r>   10.7404    0.0000 </r>
       <r>   11.0746    0.0000 </r>
       <r>   11.2888    0.0000 </r>
       <r>   11.4290    0.0000 </r>
       <r>   11.6319    0.0000 </r>
       <r>   11.7218    0.0000 </r>
       <r>   12.0864    0.0000 </r>
       <r>   12.2669    0.0000 </r>
       <r>   12.5428    0.0000 </r>
       <r>   12.6583    0.0000 </r>
       <r>   12.9536    0.0000 </r>
       <r>   13.0604    0.0000 </r>
       <r>   13.6546    0.0000 </r>
       <r>   14.6960    0.0000 </r>
      </set>
      <set comment="kpoint 16">
       <r>  -68.6450    1.0000 </r>
       <r>  -68.6385    1.0000 </r>
       <r>  -68.6352    1.0000 </r>
       <r>  -68.6335    1.0000 </r>
       <r>  -68.6129    1.0000 </r>
       <r>  -68.6045    1.0000 </r>
       <r>  -68.5956    1.0000 </r>
       <r>  -68.5858    1.0000 </r>
       <r>  -68.5826    1.0000 </r>
       <r>  -68.5778    1.0000 </r>
       <r>  -68.5647    1.0000 </r>
       <r>  -68.5610    1.0000 </r>
       <r>  -12.3308    1.0000 </r>
       <r>  -11.4760    1.0000 </r>
       <r>  -10.8655    1.0000 </r>
       <r>  -10.8562    1.0000 </r>
       <r>  -10.4076    1.0000 </r>
       <r>  -10.2864    1.0000 </r>
       <r>   -5.7522    1.0000 </r>
       <r>   -4.6886    1.0000 </r>
       <r>   -2.2413    1.0000 </r>
       <r>   -2.1404    1.0000 </r>
       <r>   -1.9310    1.0000 </r>
       <r>   -1.8495    1.0000 </r>
       <r>   -1.4500    1.0000 </r>
       <r>   -1.3964    1.0000 </r>
       <r>   -1.0410    1.0000 </r>
       <r>   -0.5231    1.0000 </r>
       <r>   -0.4568    1.0000 </r>
       <r>   -0.3508    1.0000 </r>
       <r>   -0.2486    1.0000 </r>
       <r>   -0.2159    1.0000 </r>
       <r>   -0.1586    1.0000 </r>
       <r>   -0.1089    1.0000 </r>
       <r>   -0.0898    1.0000 </r>
       <r>    0.0806    1.0000 </r>
       <r>    1.2637    1.0000 </r>
       <r>    1.3492    1.0000 </r>
       <r>    1.3965    1.0000 </r>
       <r>    1.4370    1.0000 </r>
       <r>    1.4533    1.0000 </r>
       <r>    1.5112    1.0000 </r>
       <r>    1.5368    1.0000 </r>
       <r>    1.5457    1.0000 </r>
       <r>    1.7524    1.0000 </r>
       <r>    1.8178    1.0000 </r>
       <r>    2.0392    1.0000 </r>
       <r>    2.1336    1.0000 </r>
       <r>    2.2856    1.0000 </r>
       <r>    2.3101    1.0000 </r>
       <r>    2.5215    1.0000 </r>
       <r>    2.7697    1.0000 </r>
       <r>    2.8997    1.0000 </r>
       <r>    3.2628    1.0000 </r>
       <r>    3.4961    1.0000 </r>
       <r>    3.8002    1.0000 </r>
       <r>    6.1863   -0.0000 </r>
       <r>    6.8475   -0.0000 </r>
       <r>    7.8297    0.0000 </r>
       <r>    8.0430    0.0000 </r>
       <r>    8.1902    0.0000 </r>
       <r>    8.7252    0.0000 </r>
       <r>    9.1552    0.0000 </r>
       <r>    9.3086    0.0000 </r>
       <r>   10.2215    0.0000 </r>
       <r>   10.4362    0.0000 </r>
       <r>   10.5924    0.0000 </r>
       <r>   11.0021    0.0000 </r>
       <r>   11.2389    0.0000 </r>
       <r>   11.4907    0.0000 </r>
       <r>   11.8118    0.0000 </r>
       <r>   12.1729    0.0000 </r>
       <r>   12.2062    0.0000 </r>
       <r>   12.5732    0.0000 </r>
       <r>   12.6909    0.0000 </r>
       <r>   13.1145    0.0000 </r>
       <r>   13.4167    0.0000 </r>
       <r>   13.8812    0.0000 </r>
       <r>   13.9999    0.0000 </r>
       <r>   14.5248    0.0000 </r>
      </set>
      <set comment="kpoint 17">
       <r>  -68.6449    1.0000 </r>
       <r>  -68.6385    1.0000 </r>
       <r>  -68.6352    1.0000 </r>
       <r>  -68.6337    1.0000 </r>
       <r>  -68.6129    1.0000 </r>
       <r>  -68.6045    1.0000 </r>
       <r>  -68.5957    1.0000 </r>
       <r>  -68.5858    1.0000 </r>
       <r>  -68.5826    1.0000 </r>
       <r>  -68.5779    1.0000 </r>
       <r>  -68.5646    1.0000 </r>
       <r>  -68.5610    1.0000 </r>
       <r>  -12.3776    1.0000 </r>
       <r>  -11.4746    1.0000 </r>
       <r>  -10.9368    1.0000 </r>
       <r>  -10.6546    1.0000 </r>
       <r>  -10.4198    1.0000 </r>
       <r>  -10.3041    1.0000 </r>
       <r>   -5.8048    1.0000 </r>
       <r>   -4.8353    1.0000 </r>
       <r>   -2.5258    1.0000 </r>
       <r>   -2.2458    1.0000 </r>
       <r>   -1.8725    1.0000 </r>
       <r>   -1.6448    1.0000 </r>
       <r>   -1.5031    1.0000 </r>
       <r>   -1.3106    1.0000 </r>
       <r>   -0.8999    1.0000 </r>
       <r>   -0.5285    1.0000 </r>
       <r>   -0.3783    1.0000 </r>
       <r>   -0.3514    1.0000 </r>
       <r>   -0.2234    1.0000 </r>
       <r>   -0.1778    1.0000 </r>
       <r>   -0.1533    1.0000 </r>
       <r>   -0.0776    1.0000 </r>
       <r>   -0.0257    1.0000 </r>
       <r>    0.0791    1.0000 </r>
       <r>    1.1917    1.0000 </r>
       <r>    1.3655    1.0000 </r>
       <r>    1.3991    1.0000 </r>
       <r>    1.4432    1.0000 </r>
       <r>    1.4631    1.0000 </r>
       <r>    1.5072    1.0000 </r>
       <r>    1.5212    1.0000 </r>
       <r>    1.5855    1.0000 </r>
       <r>    1.7426    1.0000 </r>
       <r>    1.8183    1.0000 </r>
       <r>    2.0378    1.0000 </r>
       <r>    2.2344    1.0000 </r>
       <r>    2.2694    1.0000 </r>
       <r>    2.3620    1.0000 </r>
       <r>    2.4877    1.0000 </r>
       <r>    2.6725    1.0000 </r>
       <r>    3.0512    1.0000 </r>
       <r>    3.4110    1.0000 </r>
       <r>    3.7272    1.0000 </r>
       <r>    3.8653    1.0000 </r>
       <r>    5.9312   -0.0000 </r>
       <r>    6.6162   -0.0000 </r>
       <r>    7.3557    0.0000 </r>
       <r>    7.9424    0.0000 </r>
       <r>    8.0672    0.0000 </r>
       <r>    8.7237    0.0000 </r>
       <r>    8.9095    0.0000 </r>
       <r>    9.1372    0.0000 </r>
       <r>    9.8470    0.0000 </r>
       <r>   10.3285    0.0000 </r>
       <r>   10.5525    0.0000 </r>
       <r>   10.9249    0.0000 </r>
       <r>   11.2258    0.0000 </r>
       <r>   11.4106    0.0000 </r>
       <r>   11.7505    0.0000 </r>
       <r>   11.9970    0.0000 </r>
       <r>   12.5018    0.0000 </r>
       <r>   12.8368    0.0000 </r>
       <r>   13.2051    0.0000 </r>
       <r>   14.1785    0.0000 </r>
       <r>   14.7163    0.0000 </r>
       <r>   15.1591    0.0000 </r>
       <r>   15.9231    0.0000 </r>
       <r>   16.5691    0.0000 </r>
      </set>
      <set comment="kpoint 18">
       <r>  -68.6451    1.0000 </r>
       <r>  -68.6387    1.0000 </r>
       <r>  -68.6353    1.0000 </r>
       <r>  -68.6337    1.0000 </r>
       <r>  -68.6130    1.0000 </r>
       <r>  -68.6045    1.0000 </r>
       <r>  -68.5958    1.0000 </r>
       <r>  -68.5860    1.0000 </r>
       <r>  -68.5827    1.0000 </r>
       <r>  -68.5779    1.0000 </r>
       <r>  -68.5647    1.0000 </r>
       <r>  -68.5611    1.0000 </r>
       <r>  -12.5034    1.0000 </r>
       <r>  -11.4286    1.0000 </r>
       <r>  -10.9457    1.0000 </r>
       <r>  -10.5829    1.0000 </r>
       <r>  -10.3750    1.0000 </r>
       <r>  -10.2076    1.0000 </r>
       <r>   -5.8334    1.0000 </r>
       <r>   -4.9401    1.0000 </r>
       <r>   -2.5709    1.0000 </r>
       <r>   -2.3678    1.0000 </r>
       <r>   -1.9202    1.0000 </r>
       <r>   -1.5945    1.0000 </r>
       <r>   -1.4162    1.0000 </r>
       <r>   -1.1207    1.0000 </r>
       <r>   -0.8124    1.0000 </r>
       <r>   -0.6753    1.0000 </r>
       <r>   -0.5349    1.0000 </r>
       <r>   -0.4663    1.0000 </r>
       <r>   -0.2505    1.0000 </r>
       <r>   -0.1951    1.0000 </r>
       <r>   -0.1665    1.0000 </r>
       <r>   -0.1155    1.0000 </r>
       <r>   -0.0369    1.0000 </r>
       <r>    0.0595    1.0000 </r>
       <r>    1.2812    1.0000 </r>
       <r>    1.3275    1.0000 </r>
       <r>    1.3467    1.0000 </r>
       <r>    1.4343    1.0000 </r>
       <r>    1.4514    1.0000 </r>
       <r>    1.4691    1.0000 </r>
       <r>    1.4931    1.0000 </r>
       <r>    1.5580    1.0000 </r>
       <r>    1.7281    1.0000 </r>
       <r>    1.8442    1.0000 </r>
       <r>    1.9711    1.0000 </r>
       <r>    2.0985    1.0000 </r>
       <r>    2.3365    1.0000 </r>
       <r>    2.4502    1.0000 </r>
       <r>    2.5398    1.0000 </r>
       <r>    2.8506    1.0000 </r>
       <r>    3.0525    1.0000 </r>
       <r>    3.2642    1.0000 </r>
       <r>    3.6724    1.0000 </r>
       <r>    3.7818    1.0000 </r>
       <r>    6.2619   -0.0000 </r>
       <r>    6.8034   -0.0000 </r>
       <r>    7.8146    0.0000 </r>
       <r>    8.1314    0.0000 </r>
       <r>    8.3415    0.0000 </r>
       <r>    8.9311    0.0000 </r>
       <r>    9.3390    0.0000 </r>
[...]
       <r>   11.7091    0.0000 </r>
       <r>   11.8941    0.0000 </r>
       <r>   12.2962    0.0000 </r>
       <r>   12.6536    0.0000 </r>
       <r>   13.0066    0.0000 </r>
       <r>   13.2318    0.0000 </r>
       <r>   13.6663    0.0000 </r>
       <r>   14.0760    0.0000 </r>
       <r>   14.4040    0.0000 </r>
       <r>   16.5597    0.0000 </r>
      </set>
      <set comment="kpoint 42">
       <r>  -68.6451    1.0000 </r>
       <r>  -68.6384    1.0000 </r>
       <r>  -68.6353    1.0000 </r>
       <r>  -68.6335    1.0000 </r>
       <r>  -68.6129    1.0000 </r>
       <r>  -68.6045    1.0000 </r>
       <r>  -68.5955    1.0000 </r>
       <r>  -68.5857    1.0000 </r>
       <r>  -68.5826    1.0000 </r>
       <r>  -68.5779    1.0000 </r>
       <r>  -68.5648    1.0000 </r>
       <r>  -68.5611    1.0000 </r>
       <r>  -12.1820    1.0000 </r>
       <r>  -11.7088    1.0000 </r>
       <r>  -10.7173    1.0000 </r>
       <r>  -10.6929    1.0000 </r>
       <r>  -10.5875    1.0000 </r>
       <r>  -10.3915    1.0000 </r>
       <r>   -5.4469    1.0000 </r>
       <r>   -5.0708    1.0000 </r>
       <r>   -2.5096    1.0000 </r>
       <r>   -2.3828    1.0000 </r>
       <r>   -1.9645    1.0000 </r>
       <r>   -1.3653    1.0000 </r>
       <r>   -1.3317    1.0000 </r>
       <r>   -1.0566    1.0000 </r>
       <r>   -0.8272    1.0000 </r>
       <r>   -0.7668    1.0000 </r>
       <r>   -0.4237    1.0000 </r>
       <r>   -0.3386    1.0000 </r>
       <r>   -0.2731    1.0000 </r>
       <r>   -0.2080    1.0000 </r>
       <r>   -0.1402    1.0000 </r>
       <r>   -0.1385    1.0000 </r>
       <r>   -0.0135    1.0000 </r>
       <r>    0.0299    1.0000 </r>
       <r>    1.1742    1.0000 </r>
       <r>    1.3718    1.0000 </r>
       <r>    1.3985    1.0000 </r>
       <r>    1.4532    1.0000 </r>
       <r>    1.4566    1.0000 </r>
       <r>    1.4983    1.0000 </r>
       <r>    1.5179    1.0000 </r>
       <r>    1.5519    1.0000 </r>
       <r>    1.7435    1.0000 </r>
       <r>    1.8225    1.0000 </r>
       <r>    1.9772    1.0000 </r>
       <r>    2.2296    1.0000 </r>
       <r>    2.3958    1.0000 </r>
       <r>    2.6104    1.0000 </r>
       <r>    2.6550    1.0000 </r>
       <r>    2.9135    1.0000 </r>
       <r>    3.0699    1.0000 </r>
       <r>    3.1166    1.0000 </r>
       <r>    3.2884    1.0000 </r>
       <r>    3.5845    1.0000 </r>
       <r>    6.2976   -0.0000 </r>
       <r>    6.3803   -0.0000 </r>
       <r>    7.3614    0.0000 </r>
       <r>    7.5228    0.0000 </r>
       <r>    8.3077    0.0000 </r>
       <r>    8.3383    0.0000 </r>
       <r>    9.1062    0.0000 </r>
       <r>    9.3558    0.0000 </r>
       <r>    9.7182    0.0000 </r>
       <r>    9.9473    0.0000 </r>
       <r>   10.5228    0.0000 </r>
       <r>   10.9890    0.0000 </r>
       <r>   11.4239    0.0000 </r>
       <r>   11.5624    0.0000 </r>
       <r>   12.0205    0.0000 </r>
       <r>   12.2826    0.0000 </r>
       <r>   12.4292    0.0000 </r>
       <r>   12.4776    0.0000 </r>
       <r>   13.0318    0.0000 </r>
       <r>   13.1521    0.0000 </r>
       <r>   14.1377    0.0000 </r>
       <r>   14.4351    0.0000 </r>
       <r>   15.1648    0.0000 </r>
       <r>   15.8617    0.0000 </r>
      </set>
     </set>
    </set>
   </array>
  </eigenvalues>
  <separator name="orbital magnetization" >
   <v name="MAGDIPOLOUT">      0.00000000      0.00000000      0.00000000</v>
  </separator>
  <dos>
   <i name="efermi">      4.21634557 </i>
   <total>
    <array>
     <dimension dim="1">gridpoints</dimension>
     <dimension dim="2">spin</dimension>
     <field>energy</field>
     <field>total</field>
     <field>integrated</field>
     <set>
      <set comment="spin 1">
       <r>   -72.8301     0.0000     0.0000 </r>
       <r>   -72.5238     0.0000     0.0000 </r>
       <r>   -72.2174     0.0000     0.0000 </r>
       <r>   -71.9110     0.0000     0.0000 </r>
       <r>   -71.6046     0.0000     0.0000 </r>
       <r>   -71.2982     0.0000     0.0000 </r>
       <r>   -70.9918     0.0000     0.0000 </r>
       <r>   -70.6855     0.0000     0.0000 </r>
       <r>   -70.3791     0.0000     0.0000 </r>
       <r>   -70.0727     0.0000     0.0000 </r>
       <r>   -69.7663     0.0000     0.0000 </r>
       <r>   -69.4599    -0.0000    -0.0000 </r>
       <r>   -69.1536    -0.0000    -0.0000 </r>
       <r>   -68.8472    -0.2021    -0.0619 </r>
       <r>   -68.5408    70.0670    21.4053 </r>
       <r>   -68.2344     8.4692    24.0001 </r>
       <r>   -67.9280    -0.0004    24.0000 </r>
       <r>   -67.6217     0.0000    24.0000 </r>
       <r>   -67.3153     0.0000    24.0000 </r>
       <r>   -67.0089     0.0000    24.0000 </r>
       <r>   -66.7025     0.0000    24.0000 </r>
       <r>   -66.3961     0.0000    24.0000 </r>
       <r>   -66.0898     0.0000    24.0000 </r>
       <r>   -65.7834     0.0000    24.0000 </r>
       <r>   -65.4770     0.0000    24.0000 </r>
       <r>   -65.1706     0.0000    24.0000 </r>
       <r>   -64.8642     0.0000    24.0000 </r>
       <r>   -64.5578     0.0000    24.0000 </r>
       <r>   -64.2515     0.0000    24.0000 </r>
       <r>   -63.9451     0.0000    24.0000 </r>
       <r>   -63.6387     0.0000    24.0000 </r>
       <r>   -63.3323     0.0000    24.0000 </r>
       <r>   -63.0259     0.0000    24.0000 </r>
       <r>   -62.7196     0.0000    24.0000 </r>
       <r>   -62.4132     0.0000    24.0000 </r>
       <r>   -62.1068     0.0000    24.0000 </r>
       <r>   -61.8004     0.0000    24.0000 </r>
       <r>   -61.4940     0.0000    24.0000 </r>
       <r>   -61.1877     0.0000    24.0000 </r>
       <r>   -60.8813     0.0000    24.0000 </r>
       <r>   -60.5749     0.0000    24.0000 </r>
       <r>   -60.2685     0.0000    24.0000 </r>
       <r>   -59.9621     0.0000    24.0000 </r>
       <r>   -59.6557     0.0000    24.0000 </r>
       <r>   -59.3494     0.0000    24.0000 </r>
       <r>   -59.0430     0.0000    24.0000 </r>
       <r>   -58.7366     0.0000    24.0000 </r>
       <r>   -58.4302     0.0000    24.0000 </r>
       <r>   -58.1238     0.0000    24.0000 </r>
       <r>   -57.8175     0.0000    24.0000 </r>
       <r>   -57.5111     0.0000    24.0000 </r>
       <r>   -57.2047     0.0000    24.0000 </r>
       <r>   -56.8983     0.0000    24.0000 </r>
       <r>   -56.5919     0.0000    24.0000 </r>
       <r>   -56.2856     0.0000    24.0000 </r>
       <r>   -55.9792     0.0000    24.0000 </r>
       <r>   -55.6728     0.0000    24.0000 </r>
       <r>   -55.3664     0.0000    24.0000 </r>
       <r>   -55.0600     0.0000    24.0000 </r>
       <r>   -54.7537     0.0000    24.0000 </r>
       <r>   -54.4473     0.0000    24.0000 </r>
       <r>   -54.1409     0.0000    24.0000 </r>
       <r>   -53.8345     0.0000    24.0000 </r>
       <r>   -53.5281     0.0000    24.0000 </r>
       <r>   -53.2217     0.0000    24.0000 </r>
       <r>   -52.9154     0.0000    24.0000 </r>
       <r>   -52.6090     0.0000    24.0000 </r>
       <r>   -52.3026     0.0000    24.0000 </r>
       <r>   -51.9962     0.0000    24.0000 </r>
       <r>   -51.6898     0.0000    24.0000 </r>
       <r>   -51.3835     0.0000    24.0000 </r>
       <r>   -51.0771     0.0000    24.0000 </r>
       <r>   -50.7707     0.0000    24.0000 </r>
       <r>   -50.4643     0.0000    24.0000 </r>
       <r>   -50.1579     0.0000    24.0000 </r>
       <r>   -49.8516     0.0000    24.0000 </r>
       <r>   -49.5452     0.0000    24.0000 </r>
       <r>   -49.2388     0.0000    24.0000 </r>
       <r>   -48.9324     0.0000    24.0000 </r>
       <r>   -48.6260     0.0000    24.0000 </r>
       <r>   -48.3197     0.0000    24.0000 </r>
       <r>   -48.0133     0.0000    24.0000 </r>
       <r>   -47.7069     0.0000    24.0000 </r>
       <r>   -47.4005     0.0000    24.0000 </r>
       <r>   -47.0941     0.0000    24.0000 </r>
       <r>   -46.7877     0.0000    24.0000 </r>
       <r>   -46.4814     0.0000    24.0000 </r>
       <r>   -46.1750     0.0000    24.0000 </r>
       <r>   -45.8686     0.0000    24.0000 </r>
       <r>   -45.5622     0.0000    24.0000 </r>
       <r>   -45.2558     0.0000    24.0000 </r>
       <r>   -44.9495     0.0000    24.0000 </r>
       <r>   -44.6431     0.0000    24.0000 </r>
       <r>   -44.3367     0.0000    24.0000 </r>
       <r>   -44.0303     0.0000    24.0000 </r>
       <r>   -43.7239     0.0000    24.0000 </r>
       <r>   -43.4176     0.0000    24.0000 </r>
       <r>   -43.1112     0.0000    24.0000 </r>
       <r>   -42.8048     0.0000    24.0000 </r>
       <r>   -42.4984     0.0000    24.0000 </r>
       <r>   -42.1920     0.0000    24.0000 </r>
       <r>   -41.8856     0.0000    24.0000 </r>
       <r>   -41.5793     0.0000    24.0000 </r>
       <r>   -41.2729     0.0000    24.0000 </r>
       <r>   -40.9665     0.0000    24.0000 </r>
       <r>   -40.6601     0.0000    24.0000 </r>
       <r>   -40.3537     0.0000    24.0000 </r>
       <r>   -40.0474     0.0000    24.0000 </r>
       <r>   -39.7410     0.0000    24.0000 </r>
       <r>   -39.4346     0.0000    24.0000 </r>
       <r>   -39.1282     0.0000    24.0000 </r>
       <r>   -38.8218     0.0000    24.0000 </r>
       <r>   -38.5155     0.0000    24.0000 </r>
       <r>   -38.2091     0.0000    24.0000 </r>
       <r>   -37.9027     0.0000    24.0000 </r>
       <r>   -37.5963     0.0000    24.0000 </r>
       <r>   -37.2899     0.0000    24.0000 </r>
       <r>   -36.9836     0.0000    24.0000 </r>
       <r>   -36.6772     0.0000    24.0000 </r>
       <r>   -36.3708     0.0000    24.0000 </r>
       <r>   -36.0644     0.0000    24.0000 </r>
       <r>   -35.7580     0.0000    24.0000 </r>
       <r>   -35.4516     0.0000    24.0000 </r>
       <r>   -35.1453     0.0000    24.0000 </r>
       <r>   -34.8389     0.0000    24.0000 </r>
       <r>   -34.5325     0.0000    24.0000 </r>
       <r>   -34.2261     0.0000    24.0000 </r>
       <r>   -33.9197     0.0000    24.0000 </r>
       <r>   -33.6134     0.0000    24.0000 </r>
       <r>   -33.3070     0.0000    24.0000 </r>
       <r>   -33.0006     0.0000    24.0000 </r>
       <r>   -32.6942     0.0000    24.0000 </r>
       <r>   -32.3878     0.0000    24.0000 </r>
       <r>   -32.0815     0.0000    24.0000 </r>
       <r>   -31.7751     0.0000    24.0000 </r>
       <r>   -31.4687     0.0000    24.0000 </r>
       <r>   -31.1623     0.0000    24.0000 </r>
       <r>   -30.8559     0.0000    24.0000 </r>
       <r>   -30.5496     0.0000    24.0000 </r>
       <r>   -30.2432     0.0000    24.0000 </r>
       <r>   -29.9368     0.0000    24.0000 </r>
       <r>   -29.6304     0.0000    24.0000 </r>
       <r>   -29.3240     0.0000    24.0000 </r>
       <r>   -29.0176     0.0000    24.0000 </r>
       <r>   -28.7113     0.0000    24.0000 </r>
       <r>   -28.4049     0.0000    24.0000 </r>
       <r>   -28.0985     0.0000    24.0000 </r>
       <r>   -27.7921     0.0000    24.0000 </r>
       <r>   -27.4857     0.0000    24.0000 </r>
       <r>   -27.1794     0.0000    24.0000 </r>
       <r>   -26.8730     0.0000    24.0000 </r>
       <r>   -26.5666     0.0000    24.0000 </r>
       <r>   -26.2602     0.0000    24.0000 </r>
       <r>   -25.9538     0.0000    24.0000 </r>
       <r>   -25.6475     0.0000    24.0000 </r>
       <r>   -25.3411     0.0000    24.0000 </r>
       <r>   -25.0347     0.0000    24.0000 </r>
       <r>   -24.7283     0.0000    24.0000 </r>
       <r>   -24.4219     0.0000    24.0000 </r>
       <r>   -24.1155     0.0000    24.0000 </r>
       <r>   -23.8092     0.0000    24.0000 </r>
       <r>   -23.5028     0.0000    24.0000 </r>
       <r>   -23.1964     0.0000    24.0000 </r>
       <r>   -22.8900     0.0000    24.0000 </r>
       <r>   -22.5836     0.0000    24.0000 </r>
       <r>   -22.2773     0.0000    24.0000 </r>
       <r>   -21.9709     0.0000    24.0000 </r>
       <r>   -21.6645     0.0000    24.0000 </r>
       <r>   -21.3581     0.0000    24.0000 </r>
       <r>   -21.0517     0.0000    24.0000 </r>
       <r>   -20.7454     0.0000    24.0000 </r>
       <r>   -20.4390     0.0000    24.0000 </r>
       <r>   -20.1326     0.0000    24.0000 </r>
       <r>   -19.8262     0.0000    24.0000 </r>
       <r>   -19.5198     0.0000    24.0000 </r>
       <r>   -19.2135     0.0000    24.0000 </r>
       <r>   -18.9071     0.0000    24.0000 </r>
       <r>   -18.6007     0.0000    24.0000 </r>
       <r>   -18.2943     0.0000    24.0000 </r>
       <r>   -17.9879     0.0000    24.0000 </r>
       <r>   -17.6815     0.0000    24.0000 </r>
       <r>   -17.3752     0.0000    24.0000 </r>
       <r>   -17.0688     0.0000    24.0000 </r>
       <r>   -16.7624     0.0000    24.0000 </r>
       <r>   -16.4560     0.0000    24.0000 </r>
       <r>   -16.1496     0.0000    24.0000 </r>
       <r>   -15.8433     0.0000    24.0000 </r>
       <r>   -15.5369     0.0000    24.0000 </r>
       <r>   -15.2305     0.0000    24.0000 </r>
       <r>   -14.9241     0.0000    24.0000 </r>
       <r>   -14.6177     0.0000    24.0000 </r>
       <r>   -14.3114     0.0000    24.0000 </r>
       <r>   -14.0050     0.0000    24.0000 </r>
       <r>   -13.6986    -0.0000    24.0000 </r>
       <r>   -13.3922    -0.0000    24.0000 </r>
       <r>   -13.0858    -0.0000    24.0000 </r>
       <r>   -12.7795    -0.0036    23.9989 </r>
       <r>   -12.4731     1.5934    24.4871 </r>
       <r>   -12.1667     3.5611    25.5781 </r>
       <r>   -11.8603     1.8903    26.1573 </r>
       <r>   -11.5539     2.1270    26.8089 </r>
       <r>   -11.2475     3.1907    27.7865 </r>
       <r>   -10.9412     2.5555    28.5695 </r>
       <r>   -10.6348     9.3067    31.4209 </r>
       <r>   -10.3284     9.3712    34.2920 </r>
       <r>   -10.0220     5.5926    36.0055 </r>
       <r>    -9.7156    -0.0179    36.0000 </r>
       <r>    -9.4093    -0.0000    36.0000 </r>
       <r>    -9.1029     0.0000    36.0000 </r>
       <r>    -8.7965     0.0000    36.0000 </r>
       <r>    -8.4901     0.0000    36.0000 </r>
       <r>    -8.1837     0.0000    36.0000 </r>
       <r>    -7.8774     0.0000    36.0000 </r>
       <r>    -7.5710     0.0000    36.0000 </r>
       <r>    -7.2646     0.0000    36.0000 </r>
       <r>    -6.9582    -0.0000    36.0000 </r>
       <r>    -6.6518    -0.0000    36.0000 </r>
       <r>    -6.3454    -0.0000    36.0000 </r>
       <r>    -6.0391     0.0712    36.0218 </r>
       <r>    -5.7327     3.5281    37.1028 </r>
       <r>    -5.4263     2.0306    37.7249 </r>
       <r>    -5.1199     1.8387    38.2882 </r>
       <r>    -4.8135     3.2988    39.2989 </r>
       <r>    -4.5072     2.2148    39.9775 </r>
       <r>    -4.2008     0.0734    40.0000 </r>
       <r>    -3.8944    -0.0000    40.0000 </r>
       <r>    -3.5880    -0.0000    40.0000 </r>
       <r>    -3.2816    -0.0000    40.0000 </r>
       <r>    -2.9753    -0.0004    39.9999 </r>
       <r>    -2.6689     0.3860    40.1181 </r>
       <r>    -2.3625     6.1612    42.0058 </r>
       <r>    -2.0561     6.6997    44.0585 </r>
       <r>    -1.7497     7.3463    46.3092 </r>
       <r>    -1.4434     6.3846    48.2654 </r>
       <r>    -1.1370     8.7287    50.9397 </r>
       <r>    -0.8306     9.0784    53.7211 </r>
       <r>    -0.5242    11.3264    57.1913 </r>
       <r>    -0.2178    18.0245    62.7136 </r>
       <r>     0.0886    29.1292    71.6383 </r>
       <r>     0.3949     1.1813    72.0002 </r>
       <r>     0.7013    -0.0007    72.0000 </r>
       <r>     1.0077    -0.0193    71.9941 </r>
       <r>     1.3141     7.2790    74.2242 </r>
       <r>     1.6205    44.9679    88.0016 </r>
       <r>     1.9268    13.7885    92.2261 </r>
       <r>     2.2332    13.1696    96.2610 </r>
       <r>     2.5396    12.8643   100.2024 </r>
       <r>     2.8460    11.1715   103.6252 </r>
       <r>     3.1524     9.0759   106.4058 </r>
       <r>     3.4587     7.9008   108.8265 </r>
       <r>     3.7651     6.9591   110.9586 </r>
       <r>     4.0715     3.1590   111.9265 </r>
       <r>     4.3779     0.2405   112.0002 </r>
       <r>     4.6843    -0.0005   112.0000 </r>
       <r>     4.9907    -0.0000   112.0000 </r>
       <r>     5.2970    -0.0001   112.0000 </r>
       <r>     5.6034     0.0765   112.0234 </r>
       <r>     5.9098     0.1754   112.0771 </r>
       <r>     6.2162     2.6189   112.8795 </r>
       <r>     6.5226     4.3075   114.1993 </r>
       <r>     6.8289     3.4621   115.2600 </r>
       <r>     7.1353     2.4741   116.0180 </r>
       <r>     7.4417     1.4304   116.4563 </r>
       <r>     7.7481     3.1800   117.4305 </r>
       <r>     8.0545     5.5719   119.1377 </r>
       <r>     8.3608     5.5407   120.8353 </r>
       <r>     8.6672     4.5813   122.2389 </r>
       <r>     8.9736     4.4712   123.6088 </r>
       <r>     9.2800     5.6278   125.3330 </r>
       <r>     9.5864     5.6939   127.0775 </r>
       <r>     9.8927     4.7720   128.5396 </r>
       <r>    10.1991     4.5077   129.9206 </r>
       <r>    10.5055     6.5072   131.9143 </r>
       <r>    10.8119     8.3146   134.4618 </r>
       <r>    11.1183     8.1910   136.9713 </r>
       <r>    11.4247     7.9841   139.4175 </r>
       <r>    11.7310     7.8980   141.8373 </r>
       <r>    12.0374     6.5552   143.8457 </r>
       <r>    12.3438     5.8898   145.6502 </r>
       <r>    12.6502     6.6330   147.6825 </r>
       <r>    12.9566     5.7939   149.4576 </r>
       <r>    13.2629     6.2043   151.3585 </r>
       <r>    13.5693     5.3224   152.9891 </r>
       <r>    13.8757     4.0972   154.2445 </r>
       <r>    14.1821     3.1651   155.2142 </r>
       <r>    14.4885     4.7179   156.6597 </r>
       <r>    14.7948     3.3467   157.6850 </r>
       <r>    15.1012     1.3885   158.1104 </r>
       <r>    15.4076     1.6005   158.6008 </r>
       <r>    15.7140     1.2300   158.9776 </r>
       <r>    16.0204     1.6800   159.4924 </r>
       <r>    16.3267     0.3333   159.5945 </r>
       <r>    16.6331     0.6688   159.7994 </r>
       <r>    16.9395     0.5401   159.9649 </r>
       <r>    17.2459     0.1147   160.0000 </r>
       <r>    17.5523    -0.0000   160.0000 </r>
       <r>    17.8587     0.0000   160.0000 </r>
       <r>    18.1650     0.0000   160.0000 </r>
       <r>    18.4714     0.0000   160.0000 </r>
       <r>    18.7778     0.0000   160.0000 </r>
       <r>    19.0842     0.0000   160.0000 </r>
      </set>
     </set>
    </array>
   </total>
  </dos>
 </calculation>
 <structure name="finalpos" >
  <crystal>
   <varray name="basis" >
    <v>       3.22479600      -5.64383000       0.03157200 </v>
    <v>       3.22479600       5.64383000       0.03157200 </v>
    <v>      -2.10194600       0.00000000       6.07553700 </v>
   </varray>
   <i name="volume">    221.90106089 </i>
   <varray name="rec_basis" >
    <v>       0.15452516      -0.08859232       0.05346088 </v>
    <v>       0.15452516       0.08859232       0.05346088 </v>
    <v>      -0.00160600       0.00000000       0.16403888 </v>
   </varray>
  </crystal>
  <varray name="positions" >
   <v>       0.61844300       0.12117100       0.11953300 </v>
   <v>       0.12117100       0.61844300       0.61953300 </v>
   <v>       0.96295700       0.79032200       0.11881300 </v>
   <v>       0.79032200       0.96295700       0.61881300 </v>
   <v>       0.43973200       0.26728100       0.59904700 </v>
   <v>       0.26728100       0.43973200       0.09904700 </v>
   <v>       0.07949800       0.91167500       0.49736300 </v>
   <v>       0.57140300       0.41390240       0.98018400 </v>
   <v>       0.73711100       0.25006200       0.49504900 </v>
   <v>       0.41236400       0.57140300       0.48018400 </v>
   <v>       0.91167500       0.07949800       0.99736300 </v>
   <v>       0.25006200       0.73711100       0.99504900 </v>
  </varray>
 </structure>
</modeling>
