<?xml version="1.0" encoding="ISO-8859-1"?>
<modeling>
 <generator>
  <i name="program" type="string">vasp </i>
  <i name="version" type="string">5.3.3  </i>
  <i name="subversion" type="string">18Dez12 (build Nov 13 2015 09:58:40) complex                          parallel </i>
  <i name="platform" type="string">LinuxIFC </i>
  <i name="date" type="string">2017 10 15 </i>
  <i name="time" type="string">21:25:53 </i>
 </generator>
 <incar>
  <i type="string" name="SYSTEM"> CGS</i>
  <i type="string" name="PREC">normal</i>
  <i type="string" name="ALGO"> D</i>
  <i type="logical" name="LDIAG"> T  </i>
  <i type="int" name="IBRION">     2</i>
  <i name="EDIFF">      0.00001000</i>
  <i type="int" name="NSW">   200</i>
  <i type="int" name="ISIF">     3</i>
  <i name="ENCUT">    400.00000000</i>
  <i name="TIME">      0.40000000</i>
  <i type="int" name="ISMEAR">     1</i>
  <i name="SIGMA">      0.10000000</i>
  <i type="logical" name="LHFCALC"> T  </i>
  <i type="string" name="GGA"> PE</i>
  <i name="HFSCREEN">      0.20000000</i>
  <i name="AEXX">      0.25000000</i>
  <i type="string" name="PRECFOCK">fast</i>
 </incar>
 <kpoints>
  <generation param="Gamma">
   <v type="int" name="divisions">       5        5        4 </v>
   <v name="usershift">      0.00000000       0.00000000       0.00000000 </v>
   <v name="genvec1">      0.20000000       0.00000000       0.00000000 </v>
   <v name="genvec2">      0.00000000       0.20000000       0.00000000 </v>
   <v name="genvec3">      0.00000000       0.00000000       0.25000000 </v>
   <v name="shift">      0.00000000       0.00000000       0.00000000 </v>
  </generation>
  <varray name="kpointlist" >
   <v>       0.00000000       0.00000000       0.00000000 </v>
   <v>       0.20000000      -0.00000000       0.00000000 </v>
   <v>       0.40000000      -0.00000000       0.00000000 </v>
   <v>       0.20000000       0.20000000       0.00000000 </v>
   <v>       0.40000000       0.20000000       0.00000000 </v>
   <v>      -0.40000000       0.20000000      -0.00000000 </v>
   <v>      -0.20000000       0.20000000       0.00000000 </v>
   <v>       0.40000000       0.40000000       0.00000000 </v>
   <v>      -0.40000000       0.40000000       0.00000000 </v>
   <v>       0.00000000       0.00000000       0.25000000 </v>
   <v>       0.20000000      -0.00000000       0.25000000 </v>
   <v>       0.40000000      -0.00000000       0.25000000 </v>
   <v>      -0.40000000       0.00000000       0.25000000 </v>
   <v>      -0.20000000       0.00000000       0.25000000 </v>
   <v>       0.20000000       0.20000000       0.25000000 </v>
   <v>       0.40000000       0.20000000       0.25000000 </v>
   <v>      -0.40000000       0.20000000       0.25000000 </v>
   <v>      -0.20000000       0.20000000       0.25000000 </v>
   <v>       0.40000000       0.40000000       0.25000000 </v>
   <v>      -0.40000000       0.40000000       0.25000000 </v>
   <v>      -0.20000000       0.40000000       0.25000000 </v>
   <v>      -0.40000000      -0.40000000       0.25000000 </v>
   <v>      -0.20000000      -0.40000000       0.25000000 </v>
   <v>      -0.20000000      -0.20000000       0.25000000 </v>
   <v>       0.00000000       0.00000000       0.50000000 </v>
   <v>       0.20000000      -0.00000000       0.50000000 </v>
   <v>       0.40000000      -0.00000000       0.50000000 </v>
   <v>       0.20000000       0.20000000       0.50000000 </v>
   <v>       0.40000000       0.20000000       0.50000000 </v>
   <v>      -0.40000000       0.20000000       0.50000000 </v>
   <v>      -0.20000000       0.20000000       0.50000000 </v>
   <v>       0.40000000       0.40000000       0.50000000 </v>
   <v>      -0.40000000       0.40000000       0.50000000 </v>
  </varray>
  <varray name="weights" >
   <v>       0.01000000 </v>
   <v>       0.04000000 </v>
   <v>       0.04000000 </v>
   <v>       0.02000000 </v>
   <v>       0.04000000 </v>
   <v>       0.04000000 </v>
   <v>       0.02000000 </v>
   <v>       0.02000000 </v>
   <v>       0.02000000 </v>
   <v>       0.02000000 </v>
   <v>       0.04000000 </v>
   <v>       0.04000000 </v>
   <v>       0.04000000 </v>
   <v>       0.04000000 </v>
   <v>       0.02000000 </v>
   <v>       0.04000000 </v>
   <v>       0.04000000 </v>
   <v>       0.04000000 </v>
   <v>       0.02000000 </v>
   <v>       0.04000000 </v>
   <v>       0.04000000 </v>
   <v>       0.02000000 </v>
   <v>       0.04000000 </v>
   <v>       0.02000000 </v>
   <v>       0.01000000 </v>
   <v>       0.04000000 </v>
   <v>       0.04000000 </v>
   <v>       0.02000000 </v>
   <v>       0.04000000 </v>
   <v>       0.04000000 </v>
   <v>       0.02000000 </v>
   <v>       0.02000000 </v>
   <v>       0.02000000 </v>
  </varray>
 </kpoints>
 <parameters>
  <separator name="general" >
   <i type="string" name="SYSTEM">CGS</i>
   <i type="logical" name="LCOMPAT"> F  </i>
  </separator>
  <separator name="electronic" >
   <i type="string" name="PREC">normal</i>
   <i name="ENMAX">    400.00000000</i>
   <i name="ENAUG">    758.23300000</i>
   <i name="EDIFF">      0.00001000</i>
   <i type="int" name="IALGO">    53</i>
   <i type="int" name="IWAVPR">    11</i>
   <i type="int" name="NBANDS">    96</i>
   <i name="NELECT">    112.00000000</i>
   <i type="int" name="TURBO">     0</i>
   <i type="int" name="IRESTART">     0</i>
   <i type="int" name="NREBOOT">     0</i>
   <i type="int" name="NMIN">     0</i>
   <i name="EREF">      0.00000000</i>
   <separator name="electronic smearing" >
    <i type="int" name="ISMEAR">     1</i>
    <i name="SIGMA">      0.10000000</i>
    <i name="KSPACING">      0.50000000</i>
    <i type="logical" name="KGAMMA"> T  </i>
   </separator>
   <separator name="electronic projectors" >
    <i type="logical" name="LREAL"> F  </i>
    <v name="ROPT">      0.00000000      0.00000000      0.00000000</v>
    <i type="int" name="LMAXPAW">  -100</i>
    <i type="int" name="LMAXMIX">     2</i>
    <i type="logical" name="NLSPLINE"> F  </i>
   </separator>
   <separator name="electronic startup" >
    <i type="int" name="ISTART">     1</i>
    <i type="int" name="ICHARG">     0</i>
    <i type="int" name="INIWAV">     1</i>
   </separator>
   <separator name="electronic spin" >
    <i type="int" name="ISPIN">     1</i>
    <i type="logical" name="LNONCOLLINEAR"> F  </i>
    <v name="MAGMOM">      1.00000000      1.00000000      1.00000000      1.00000000      1.00000000      1.00000000      1.00000000      1.00000000      1.00000000      1.00000000      1.00000000      1.00000000</v>
    <i name="NUPDOWN">     -1.00000000</i>
    <i type="logical" name="LSORBIT"> F  </i>
    <v name="SAXIS">      0.00000000      0.00000000      1.00000000</v>
    <i type="logical" name="LSPIRAL"> F  </i>
    <v name="QSPIRAL">      0.00000000      0.00000000      0.00000000</v>
    <i type="logical" name="LZEROZ"> F  </i>
   </separator>
   <separator name="electronic exchange-correlation" >
    <i type="logical" name="LASPH"> F  </i>
    <i type="logical" name="LMETAGGA"> F  </i>
   </separator>
   <separator name="electronic convergence" >
    <i type="int" name="NELM">    60</i>
    <i type="int" name="NELMDL">     0</i>
    <i type="int" name="NELMIN">     2</i>
    <i name="ENINI">    400.00000000</i>
    <separator name="electronic convergence detail" >
     <i type="logical" name="LDIAG"> T  </i>
     <i type="logical" name="LSUBROT"> T  </i>
     <i name="WEIMIN">      0.00100000</i>
     <i name="EBREAK">      0.00000003</i>
     <i name="DEPER">      0.30000000</i>
     <i type="int" name="NRMM">     4</i>
     <i name="TIME">      0.40000000</i>
    </separator>
   </separator>
   <separator name="electronic mixer" >
    <i name="AMIX">      0.40000000</i>
    <i name="BMIX">      1.00000000</i>
    <i name="AMIN">      0.10000000</i>
    <i name="AMIX_MAG">      1.60000000</i>
    <i name="BMIX_MAG">      1.00000000</i>
    <separator name="electronic mixer details" >
     <i type="int" name="IMIX">     4</i>
     <i type="int" name="MAXMIX">   -45</i>
     <i name="WC">    100.00000000</i>
     <i type="int" name="INIMIX">     1</i>
     <i type="int" name="MIXPRE">     1</i>
     <i type="int" name="MREMOVE">     5</i>
    </separator>
   </separator>
   <separator name="electronic dipolcorrection" >
    <i type="logical" name="LDIPOL"> F  </i>
    <i type="logical" name="LMONO"> F  </i>
    <i type="int" name="IDIPOL">     0</i>
    <i name="EPSILON">      1.00000000</i>
    <v name="DIPOL">   -100.00000000   -100.00000000   -100.00000000</v>
    <i name="EFIELD">      0.00000000</i>
   </separator>
  </separator>
  <separator name="grids" >
   <i type="int" name="NGX">    36</i>
   <i type="int" name="NGY">    36</i>
   <i type="int" name="NGZ">    36</i>
   <i type="int" name="NGXF">    72</i>
   <i type="int" name="NGYF">    72</i>
   <i type="int" name="NGZF">    72</i>
   <i type="logical" name="ADDGRID"> F  </i>
  </separator>
  <separator name="ionic" >
   <i type="int" name="NSW">   200</i>
   <i type="int" name="IBRION">     2</i>
   <i type="int" name="ISIF">     3</i>
   <i name="PSTRESS">      0.00000000</i>
   <i name="EDIFFG">      0.00010000</i>
   <i type="int" name="NFREE">     1</i>
   <i name="POTIM">      0.50000000</i>
   <i name="SMASS">     -3.00000000</i>
   <i name="SCALEE">      1.00000000</i>
  </separator>
  <separator name="ionic md" >
   <i name="TEBEG">      0.00010000</i>
   <i name="TEEND">      0.00010000</i>
   <i type="int" name="NBLOCK">     1</i>
   <i type="int" name="KBLOCK">   200</i>
   <i type="int" name="NPACO">   256</i>
   <i name="APACO">     16.00000000</i>
  </separator>
  <separator name="symmetry" >
   <i type="int" name="ISYM">     3</i>
   <i name="SYMPREC">      0.00001000</i>
  </separator>
  <separator name="dos" >
   <i type="logical" name="LORBIT"> F  </i>
   <v name="RWIGS">     -1.00000000     -1.00000000     -1.00000000</v>
   <i type="int" name="NEDOS">   301</i>
   <i name="EMIN">     10.00000000</i>
   <i name="EMAX">    -10.00000000</i>
   <i name="EFERMI">      0.00000000</i>
  </separator>
  <separator name="writing" >
   <i type="int" name="NWRITE">     2</i>
   <i type="logical" name="LWAVE"> T  </i>
   <i type="logical" name="LCHARG"> T  </i>
   <i type="logical" name="LPARD"> F  </i>
   <i type="logical" name="LVTOT"> F  </i>
   <i type="logical" name="LVHAR"> F  </i>
   <i type="logical" name="LELF"> F  </i>
   <i type="logical" name="LOPTICS"> F  </i>
   <v name="STM">      0.00000000      0.00000000      0.00000000      0.00000000      0.00000000      0.00000000      0.00000000</v>
  </separator>
  <separator name="performance" >
   <i type="int" name="NPAR">    32</i>
   <i type="int" name="NSIM">     4</i>
   <i type="int" name="NBLK">    -1</i>
   <i type="logical" name="LPLANE"> T  </i>
   <i type="logical" name="LSCALAPACK"> T  </i>
   <i type="logical" name="LSCAAWARE"> F  </i>
   <i type="logical" name="LSCALU"> F  </i>
   <i type="logical" name="LASYNC"> F  </i>
   <i type="logical" name="LORBITALREAL"> F  </i>
  </separator>
  <separator name="miscellaneous" >
   <i type="int" name="IDIOT">     3</i>
   <i type="logical" name="LMUSIC"> F  </i>
   <v name="POMASS">     63.54600000    118.71000000     32.06600000</v>
   <v name="DARWINR">      0.00000000      0.00000000      0.00000000</v>
   <v name="DARWINV">      1.00000000      1.00000000      1.00000000</v>
   <i type="logical" name="LCORR"> T  </i>
  </separator>
  <i type="logical" name="GGA_COMPAT"> T  </i>
  <i type="logical" name="LBERRY"> F  </i>
  <i type="int" name="ICORELEVEL">     0</i>
  <i type="logical" name="LDAU"> F  </i>
  <i type="int" name="I_CONSTRAINED_M">     0</i>
  <separator name="electronic exchange-correlation" >
   <i type="string" name="GGA">PE</i>
   <i type="int" name="VOSKOWN">     0</i>
   <i type="logical" name="LHFCALC"> T  </i>
   <i type="string" name="PRECFOCK">fast</i>
   <i type="logical" name="LSYMGRAD"> F  </i>
   <i type="logical" name="LHFONE"> F  </i>
   <i type="logical" name="LRHFCALC"> F  </i>
   <i type="logical" name="LTHOMAS"> F  </i>
   <i type="logical" name="LMODELHF"> F  </i>
   <i name="ENCUT4O">     -1.00000000</i>
   <i type="int" name="EXXOEP">     0</i>
   <i type="int" name="FOURORBIT">     0</i>
   <i name="AEXX">      0.25000000</i>
   <i name="HFALPHA">     -1.00000000</i>
   <i name="MCALPHA">      0.00000000</i>
   <i name="ALDAX">      0.75000000</i>
   <i name="AGGAX">      0.75000000</i>
   <i name="ALDAC">      1.00000000</i>
   <i name="AGGAC">      1.00000000</i>
   <i type="int" name="NKREDX">     1</i>
   <i type="int" name="NKREDY">     1</i>
   <i type="int" name="NKREDZ">     1</i>
   <i type="logical" name="SHIFTRED"> F  </i>
   <i type="logical" name="ODDONLY"> F  </i>
   <i type="logical" name="EVENONLY"> F  </i>
   <i type="int" name="LMAXFOCK">     4</i>
   <i type="int" name="NMAXFOCKAE">     1</i>
   <i type="logical" name="LFOCKAEDFT"> F  </i>
   <i name="HFSCREEN">      0.20000000</i>
   <i name="HFSCREENC">      0.20000000</i>
   <i type="int" name="NBANDSGWLOW">     1</i>
  </separator>
  <separator name="vdW DFT" >
   <i type="logical" name="LUSE_VDW"> F  </i>
   <i name="Zab_VDW">     -0.84910000</i>
   <i name="PARAM1">      0.12340000</i>
   <i name="PARAM2">      1.00000000</i>
   <i name="PARAM3">      0.00000000</i>
  </separator>
  <separator name="model GW" >
   <i type="int" name="MODEL_GW">     0</i>
   <i name="MODEL_EPS0">     12.13864954</i>
   <i name="MODEL_ALPHA">      1.00000000</i>
  </separator>
  <separator name="linear response parameters" >
   <i type="logical" name="LEPSILON"> F  </i>
   <i type="logical" name="LRPA"> F  </i>
   <i type="logical" name="LNABLA"> F  </i>
   <i type="logical" name="LVEL"> F  </i>
   <i type="int" name="KINTER">     0</i>
   <i name="CSHIFT">      0.10000000</i>
   <i name="OMEGAMAX">     -1.00000000</i>
   <i name="DEG_THRESHOLD">      0.00200000</i>
  </separator>
  <separator name="orbital magnetization" >
   <i type="logical" name="NUCIND"> F  </i>
   <v name="MAGPOS">      0.00000000      0.00000000      0.00000000</v>
   <i type="logical" name="LNICSALL"> T  </i>
   <i type="logical" name="ORBITALMAG"> F  </i>
   <i type="logical" name="LMAGBLOCH"> F  </i>
   <i type="logical" name="LCHIMAG"> F  </i>
   <i type="logical" name="LGAUGE"> T  </i>
   <i type="int" name="MAGATOM">     0</i>
   <v name="MAGDIPOL">      0.00000000      0.00000000      0.00000000</v>
   <v name="AVECCONST">      0.00000000      0.00000000      0.00000000</v>
  </separator>
  <separator name="response functions" >
   <i type="logical" name="LADDER"> F  </i>
   <i type="logical" name="LFXC"> F  </i>
   <i type="logical" name="LHARTREE"> T  </i>
   <i type="int" name="IBSE">     0</i>
   <i type="logical" name="LTCTE"> F  </i>
   <i type="logical" name="LTETE"> F  </i>
   <i type="logical" name="LTRIPLET"> F  </i>
   <i type="logical" name="LFXCEPS"> F  </i>
   <i type="logical" name="L2ORDER"> F  </i>
   <i type="logical" name="LUSEW"> F  </i>
   <i name="ENCUTGW">     -2.00000000</i>
   <i name="ENCUTGWSOFT">     -2.00000000</i>
   <i name="ENCUTLF">     -1.00000000</i>
   <i type="int" name="LMAXMP2">    -1</i>
   <i name="SCISSOR">      0.00000000</i>
   <i type="int" name="NOMEGA">     0</i>
   <i type="int" name="NOMEGAR">     0</i>
   <i type="int" name="NBANDSGW">    -1</i>
   <i type="int" name="NBANDSO">    -1</i>
   <i type="int" name="NBANDSV">    -1</i>
   <i type="int" name="NELM">     1</i>
   <i type="int" name="DIM">     3</i>
   <i type="int" name="ANTIRES">     0</i>
   <i name="OMEGAMAX">    -30.00000000</i>
   <i name="OMEGATL">   -200.00000000</i>
   <i type="int" name="OMEGAGRID">     0</i>
   <i name="CSHIFT">     -0.10000000</i>
   <i type="logical" name="SELFENERGY"> F  </i>
   <i type="logical" name="LSPECTRAL"> F  </i>
   <i type="logical" name="ODDONLYGW"> F  </i>
   <i type="logical" name="EVENONLYGW"> F  </i>
   <i type="int" name="NKREDLFX">     1</i>
   <i type="int" name="NKREDLFY">     1</i>
   <i type="int" name="NKREDLFZ">     1</i>
   <i type="int" name="MAXMEM">  1800</i>
   <i type="int" name="TELESCOPE">     0</i>
  </separator>
 </parameters>
 <atominfo>
  <atoms>      12 </atoms>
  <types>       3 </types>
  <array name="atoms" >
   <dimension dim="1">ion</dimension>
   <field type="string">element</field>
   <field type="int">atomtype</field>
   <set>
    <rc><c>Cu</c><c>   1</c></rc>
    <rc><c>Cu</c><c>   1</c></rc>
    <rc><c>Cu</c><c>   1</c></rc>
    <rc><c>Cu</c><c>   1</c></rc>
    <rc><c>Sn</c><c>   2</c></rc>
    <rc><c>Sn</c><c>   2</c></rc>
    <rc><c>S </c><c>   3</c></rc>
    <rc><c>S </c><c>   3</c></rc>
    <rc><c>S </c><c>   3</c></rc>
    <rc><c>S </c><c>   3</c></rc>
    <rc><c>S </c><c>   3</c></rc>
    <rc><c>S </c><c>   3</c></rc>
   </set>
  </array>
  <array name="atomtypes" >
   <dimension dim="1">type</dimension>
   <field type="int">atomspertype</field>
   <field type="string">element</field>
   <field>mass</field>
   <field>valence</field>
   <field type="string">pseudopotential</field>
   <set>
    <rc><c>   4</c><c>Cu</c><c>     63.54600000</c><c>     17.00000000</c><c> PAW_PBE Cu_pv 06Sep2000                </c></rc>
    <rc><c>   2</c><c>Sn</c><c>    118.71000000</c><c>      4.00000000</c><c> PAW_PBE Sn 08Apr2002                   </c></rc>
    <rc><c>   6</c><c>S </c><c>     32.06600000</c><c>      6.00000000</c><c>  PAW_PBE S 17Jan2003                   </c></rc>
   </set>
  </array>
 </atominfo>
 <structure name="initialpos" >
  <crystal>
   <varray name="basis" >
    <v>       3.33394010      -5.77238775       0.00000000 </v>
    <v>       3.33394010       5.77238775       0.00000000 </v>
    <v>      -2.23496518       0.00000000       6.30749745 </v>
   </varray>
   <i name="volume">    242.77299086 </i>
   <varray name="rec_basis" >
    <v>       0.14997270      -0.08661927       0.05314053 </v>
    <v>       0.14997270       0.08661927       0.05314053 </v>
    <v>       0.00000000       0.00000000       0.15854148 </v>
   </varray>
  </crystal>
  <varray name="positions" >
   <v>       0.61845968       0.11451779       0.12031443 </v>
   <v>       0.11451779       0.61845968       0.62031443 </v>
   <v>       0.96309413       0.79747671       0.12013890 </v>
   <v>       0.79747671       0.96309413       0.62013890 </v>
   <v>       0.44701810       0.26314864       0.60169509 </v>
   <v>       0.26314864       0.44701810       0.10169509 </v>
   <v>       0.06156009       0.89244888       0.48612349 </v>
   <v>       0.58986586       0.41540010       0.99636020 </v>
   <v>       0.75622500       0.24280460       0.48535604 </v>
   <v>       0.41540010       0.58986586       0.49636020 </v>
   <v>       0.89244888       0.06156009       0.98612349 </v>
   <v>       0.24280460       0.75622500       0.98535604 </v>
  </varray>
 </structure>
 <calculation>
  <scstep>
   <time name="total">  170.12  171.15</time>
   <energy>
    <i name="alphaZ">    294.87582626 </i>
    <i name="ewald">  -8661.39718138 </i>
    <i name="hartreedc">  -8467.39326368 </i>
    <i name="XCdc">    196.39917199 </i>
    <i name="pawpsdc">  14014.68406427 </i>
    <i name="pawaedc"> -14326.87988197 </i>
    <i name="eentropy">      0.00066800 </i>
    <i name="bandstr">  -1759.06766248 </i>
    <i name="atom">  18291.93303151 </i>
    <i name="e_fr_energy">    -72.86336885 </i>
    <i name="e_wo_entrp">    -72.86403686 </i>
    <i name="e_0_energy">    -72.86359152 </i>
   </energy>
  </scstep>
  <scstep>
   <time name="total">  176.26  178.20</time>
   <energy>
    <i name="e_fr_energy">    -72.88189934 </i>
    <i name="e_wo_entrp">    -72.88256894 </i>
    <i name="e_0_energy">    -72.88212254 </i>
   </energy>
  </scstep>
  <scstep>
   <time name="total">  176.21  177.35</time>
   <energy>
    <i name="e_fr_energy">    -72.92399471 </i>
    <i name="e_wo_entrp">    -72.92466276 </i>
    <i name="e_0_energy">    -72.92421740 </i>
   </energy>
  </scstep>
  <scstep>
   <time name="total">  176.17  177.29</time>
   <energy>
    <i name="e_fr_energy">    -72.93887276 </i>
    <i name="e_wo_entrp">    -72.93953932 </i>
    <i name="e_0_energy">    -72.93909495 </i>
   </energy>
  </scstep>
  <scstep>
   <time name="total">  176.08  177.20</time>
   <energy>
    <i name="e_fr_energy">    -72.93994957 </i>
    <i name="e_wo_entrp">    -72.94061652 </i>
    <i name="e_0_energy">    -72.94017189 </i>
   </energy>
  </scstep>
  <scstep>
   <time name="total">  176.85  178.02</time>
   <energy>
    <i name="e_fr_energy">    -72.94116471 </i>
    <i name="e_wo_entrp">    -72.94183150 </i>
    <i name="e_0_energy">    -72.94138698 </i>
   </energy>
  </scstep>
  <scstep>
   <time name="total">  175.58  176.83</time>
   <energy>
    <i name="e_fr_energy">    -72.94191939 </i>
    <i name="e_wo_entrp">    -72.94258618 </i>
    <i name="e_0_energy">    -72.94214165 </i>
   </energy>
  </scstep>
  <scstep>
   <time name="total">  175.77  176.74</time>
   <energy>
    <i name="e_fr_energy">    -72.94198450 </i>
    <i name="e_wo_entrp">    -72.94265170 </i>
    <i name="e_0_energy">    -72.94220690 </i>
   </energy>
  </scstep>
  <scstep>
   <time name="total">  176.18  177.19</time>
   <energy>
    <i name="e_fr_energy">    -72.94209561 </i>
    <i name="e_wo_entrp">    -72.94276301 </i>
    <i name="e_0_energy">    -72.94231807 </i>
   </energy>
  </scstep>
  <scstep>
   <time name="total">  174.91  179.38</time>
   <energy>
    <i name="e_fr_energy">    -72.94212278 </i>
    <i name="e_wo_entrp">    -72.94279018 </i>
    <i name="e_0_energy">    -72.94234524 </i>
   </energy>
  </scstep>
  <scstep>
   <time name="total">  175.58  176.62</time>
   <energy>
    <i name="e_fr_energy">    -72.94213161 </i>
    <i name="e_wo_entrp">    -72.94279902 </i>
    <i name="e_0_energy">    -72.94235408 </i>
   </energy>
  </scstep>
  <scstep>
   <time name="total">  174.84  175.97</time>
   <energy>
    <i name="alphaZ">    294.87582626 </i>
    <i name="ewald">  -8661.39718138 </i>
    <i name="hartreedc">  -8494.87387148 </i>
    <i name="XCdc">    197.04923281 </i>
    <i name="pawpsdc">  14043.65657930 </i>
    <i name="pawaedc"> -14360.66498129 </i>
    <i name="eentropy">      0.00066739 </i>
    <i name="bandstr">  -1727.97730847 </i>
    <i name="atom">  18291.93303151 </i>
    <i name="e_fr_energy">    -72.94213708 </i>
    <i name="e_wo_entrp">    -72.94280447 </i>
    <i name="e_0_energy">    -72.94235955 </i>
   </energy>
  </scstep>
  <structure>
   <crystal>
    <varray name="basis" >
     <v>       3.33394010      -5.77238775       0.00000000 </v>
     <v>       3.33394010       5.77238775       0.00000000 </v>
     <v>      -2.23496518       0.00000000       6.30749745 </v>
    </varray>
    <i name="volume">    242.77299086 </i>
    <varray name="rec_basis" >
     <v>       0.14997270      -0.08661927       0.05314053 </v>
     <v>       0.14997270       0.08661927       0.05314053 </v>
     <v>       0.00000000       0.00000000       0.15854148 </v>
    </varray>
   </crystal>
   <varray name="positions" >
    <v>       0.61845968       0.11451779       0.12031443 </v>
    <v>       0.11451779       0.61845968       0.62031443 </v>
    <v>       0.96309413       0.79747671       0.12013890 </v>
    <v>       0.79747671       0.96309413       0.62013890 </v>
    <v>       0.44701810       0.26314864       0.60169509 </v>
    <v>       0.26314864       0.44701810       0.10169509 </v>
    <v>       0.06156009       0.89244888       0.48612349 </v>
    <v>       0.58986586       0.41540010       0.99636020 </v>
    <v>       0.75622500       0.24280460       0.48535604 </v>
    <v>       0.41540010       0.58986586       0.49636020 </v>
    <v>       0.89244888       0.06156009       0.98612349 </v>
    <v>       0.24280460       0.75622500       0.98535604 </v>
   </varray>
  </structure>
  <varray name="forces" >
   <v>       0.02040179       0.00700415       0.01366955 </v>
   <v>       0.02040179      -0.00700415       0.01366955 </v>
   <v>       0.02195950      -0.00809978       0.01397495 </v>
   <v>       0.02195950       0.00809978       0.01397495 </v>
   <v>       0.01690476       0.01473304       0.00710283 </v>
   <v>       0.01690476      -0.01473304       0.00710283 </v>
   <v>      -0.00418336      -0.00667514       0.01002718 </v>
   <v>      -0.03539836       0.05598419      -0.05094065 </v>
   <v>      -0.01968433       0.01848537       0.00616614 </v>
   <v>      -0.03539836      -0.05598419      -0.05094065 </v>
   <v>      -0.00418336       0.00667514       0.01002718 </v>
   <v>      -0.01968433      -0.01848537       0.00616614 </v>
  </varray>
  <varray name="stress" >
   <v>      -1.08128234       0.00000000       1.21442049 </v>
   <v>       0.00000000      -3.99077244       0.00000000 </v>
   <v>       1.21442042       0.00000000      -2.91177472 </v>
  </varray>
  <energy>
   <i name="e_fr_energy">    -72.94213708 </i>
   <i name="e_wo_entrp">    -72.94235955 </i>
   <i name="e_0_energy">      0.00066739 </i>
  </energy>
  <time name="totalsc"> 2850.66 2874.49</time>
 </calculation>
 <calculation>
  <scstep>
   <time name="total">  175.72  176.91</time>
   <energy>
    <i name="alphaZ">    296.31502541 </i>
    <i name="ewald">  -8676.78553057 </i>
    <i name="hartreedc">  -8513.65558711 </i>
    <i name="XCdc">    197.82652218 </i>
    <i name="pawpsdc">  14077.83131512 </i>
    <i name="pawaedc"> -14400.09273234 </i>
    <i name="eentropy">      0.00067422 </i>
    <i name="bandstr">  -1691.26646641 </i>
    <i name="atom">  18291.93303151 </i>
    <i name="e_fr_energy">    -72.85434021 </i>
    <i name="e_wo_entrp">    -72.85501443 </i>
    <i name="e_0_energy">    -72.85456495 </i>
   </energy>
  </scstep>
  <scstep>
   <time name="total">  176.35  177.47</time>
   <energy>
    <i name="e_fr_energy">    -72.84776290 </i>
    <i name="e_wo_entrp">    -72.84843136 </i>
    <i name="e_0_energy">    -72.84798572 </i>
   </energy>
  </scstep>
  <scstep>
   <time name="total">  177.21  178.27</time>
   <energy>
    <i name="e_fr_energy">    -72.90780847 </i>
    <i name="e_wo_entrp">    -72.90847867 </i>
    <i name="e_0_energy">    -72.90803187 </i>
   </energy>
  </scstep>
  <scstep>
   <time name="total">  177.27  180.50</time>
   <energy>
    <i name="e_fr_energy">    -72.93638979 </i>
    <i name="e_wo_entrp">    -72.93706094 </i>
    <i name="e_0_energy">    -72.93661351 </i>
   </energy>
  </scstep>
  <scstep>
   <time name="total">  176.76  178.01</time>
   <energy>
    <i name="e_fr_energy">    -72.94117556 </i>
    <i name="e_wo_entrp">    -72.94184706 </i>
    <i name="e_0_energy">    -72.94139939 </i>
   </energy>
  </scstep>
  <scstep>
   <time name="total">  176.77  177.83</time>
   <energy>
    <i name="e_fr_energy">    -72.94139225 </i>
    <i name="e_wo_entrp">    -72.94206461 </i>
    <i name="e_0_energy">    -72.94161637 </i>
   </energy>
  </scstep>
  <scstep>
   <time name="total">  177.29  178.45</time>
   <energy>
    <i name="e_fr_energy">    -72.94252310 </i>
    <i name="e_wo_entrp">    -72.94319533 </i>
    <i name="e_0_energy">    -72.94274718 </i>
   </energy>
  </scstep>
  <scstep>
   <time name="total">  176.69  177.87</time>
   <energy>
    <i name="e_fr_energy">    -72.94277504 </i>
    <i name="e_wo_entrp">    -72.94344685 </i>
    <i name="e_0_energy">    -72.94299898 </i>
   </energy>
  </scstep>
  <scstep>
   <time name="total">  177.16  178.39</time>
   <energy>
    <i name="e_fr_energy">    -72.94281879 </i>
    <i name="e_wo_entrp">    -72.94349046 </i>
    <i name="e_0_energy">    -72.94304268 </i>
   </energy>
  </scstep>
  <scstep>
   <time name="total">  176.70  177.83</time>
   <energy>
    <i name="e_fr_energy">    -72.94288094 </i>
    <i name="e_wo_entrp">    -72.94355254 </i>
    <i name="e_0_energy">    -72.94310481 </i>
   </energy>
  </scstep>
  <scstep>
   <time name="total">  175.87  177.07</time>
   <energy>
    <i name="e_fr_energy">    -72.94288358 </i>
    <i name="e_wo_entrp">    -72.94355517 </i>
    <i name="e_0_energy">    -72.94310745 </i>
   </energy>
  </scstep>
  <scstep>
   <time name="total">  177.18  178.18</time>
   <energy>
    <i name="alphaZ">    296.31502541 </i>
    <i name="ewald">  -8676.78553057 </i>
    <i name="hartreedc">  -8484.75956484 </i>
    <i name="XCdc">    197.14027242 </i>
    <i name="pawpsdc">  14047.21056501 </i>
    <i name="pawaedc"> -14364.35595197 </i>
    <i name="eentropy">      0.00067167 </i>
    <i name="bandstr">  -1724.18099884 </i>
    <i name="atom">  18291.93303151 </i>
    <i name="e_fr_energy">    -72.94289074 </i>
    <i name="e_wo_entrp">    -72.94356242 </i>
    <i name="e_0_energy">    -72.94311463 </i>
   </energy>
  </scstep>
  <structure>
   <crystal>
    <varray name="basis" >
     <v>       3.33174408      -5.75835469       0.00246642 </v>
     <v>       3.33174408       5.75835469       0.00246642 </v>
     <v>      -2.22882681       0.00000000       6.29465599 </v>
    </varray>
    <i name="volume">    241.59384484 </i>
    <varray name="rec_basis" >
     <v>       0.15003222      -0.08683036       0.05312377 </v>
     <v>       0.15003222       0.08683036       0.05312377 </v>
     <v>      -0.00011757       0.00000000       0.15882329 </v>
    </varray>
   </crystal>
   <varray name="positions" >
    <v>       0.61861306       0.11472972       0.12041898 </v>
    <v>       0.11472972       0.61861306       0.62041898 </v>
    <v>       0.96332268       0.79763757       0.12024578 </v>
    <v>       0.79763757       0.96332268       0.62024578 </v>
    <v>       0.44709705       0.26335072       0.60174942 </v>
    <v>       0.26335072       0.44709705       0.10174942 </v>
    <v>       0.06158342       0.89241643       0.48620019 </v>
    <v>       0.58924521       0.41524734       0.99597058 </v>
    <v>       0.75602115       0.24275524       0.48540320 </v>
    <v>       0.41524734       0.58924521       0.49597058 </v>
    <v>       0.89241643       0.06158342       0.98620019 </v>
    <v>       0.24275524       0.75602115       0.98540320 </v>
   </varray>
  </structure>
  <varray name="forces" >
   <v>      -0.00001842       0.01329524       0.00272171 </v>
   <v>      -0.00001842      -0.01329524       0.00272171 </v>
   <v>       0.00767541      -0.00203281       0.00904542 </v>
   <v>       0.00767541       0.00203281       0.00904542 </v>
   <v>      -0.04640300       0.01308797      -0.00800352 </v>
   <v>      -0.04640300      -0.01308797      -0.00800352 </v>
   <v>       0.00667597      -0.00739741       0.01012105 </v>
   <v>       0.00788833       0.00663779      -0.01075730 </v>
   <v>       0.02418171      -0.01931304      -0.00312737 </v>
   <v>       0.00788833      -0.00663779      -0.01075730 </v>
   <v>       0.00667597       0.00739741       0.01012105 </v>
   <v>       0.02418171       0.01931304      -0.00312737 </v>
  </varray>
  <varray name="stress" >
   <v>       2.10245204       0.00000000      -0.13261606 </v>
   <v>       0.00000000       3.18033797       0.00000000 </v>
   <v>      -0.13261545       0.00000000       2.86992640 </v>
  </varray>
  <energy>
   <i name="e_fr_energy">    -72.94289074 </i>
   <i name="e_wo_entrp">    -72.94311463 </i>
   <i name="e_0_energy">      0.00067167 </i>
  </energy>
  <time name="totalsc"> 2870.79 2892.99</time>
 </calculation>
 <calculation>
  <scstep>
   <time name="total">  174.52  178.02</time>
   <energy>
    <i name="alphaZ">    295.78776892 </i>
    <i name="ewald">  -8671.15735488 </i>
    <i name="hartreedc">  -8477.76316967 </i>
    <i name="XCdc">    196.85320361 </i>
    <i name="pawpsdc">  14034.59025737 </i>
    <i name="pawaedc"> -14349.80606221 </i>
    <i name="eentropy">      0.00066933 </i>
    <i name="bandstr">  -1737.69346591 </i>
    <i name="atom">  18291.93303151 </i>
    <i name="e_fr_energy">    -72.93132541 </i>
    <i name="e_wo_entrp">    -72.93199474 </i>
    <i name="e_0_energy">    -72.93154852 </i>
   </energy>
  </scstep>
  <scstep>
   <time name="total">  174.59  175.80</time>
   <energy>
    <i name="e_fr_energy">    -72.93426840 </i>
    <i name="e_wo_entrp">    -72.93493954 </i>
    <i name="e_0_energy">    -72.93449212 </i>
   </energy>
  </scstep>
  <scstep>
   <time name="total">  174.88  176.07</time>
   <energy>
    <i name="e_fr_energy">    -72.94028954 </i>
    <i name="e_wo_entrp">    -72.94096048 </i>
    <i name="e_0_energy">    -72.94051319 </i>
   </energy>
  </scstep>
  <scstep>
   <time name="total">  174.41  175.58</time>
   <energy>
    <i name="e_fr_energy">    -72.94265487 </i>
    <i name="e_wo_entrp">    -72.94332519 </i>
    <i name="e_0_energy">    -72.94287831 </i>
   </energy>
  </scstep>
  <scstep>
   <time name="total">  174.73  175.89</time>
   <energy>
    <i name="e_fr_energy">    -72.94288810 </i>
    <i name="e_wo_entrp">    -72.94355833 </i>
    <i name="e_0_energy">    -72.94311151 </i>
   </energy>
  </scstep>
  <scstep>
   <time name="total">  174.51  175.76</time>
   <energy>
    <i name="e_fr_energy">    -72.94300303 </i>
    <i name="e_wo_entrp">    -72.94367308 </i>
    <i name="e_0_energy">    -72.94322638 </i>
   </energy>
  </scstep>
  <scstep>
   <time name="total">  174.27  175.43</time>
   <energy>
    <i name="e_fr_energy">    -72.94314930 </i>
    <i name="e_wo_entrp">    -72.94381940 </i>
    <i name="e_0_energy">    -72.94337266 </i>
   </energy>
  </scstep>
  <scstep>
   <time name="total">  174.15  175.42</time>
   <energy>
    <i name="e_fr_energy">    -72.94317139 </i>
    <i name="e_wo_entrp">    -72.94384166 </i>
    <i name="e_0_energy">    -72.94339482 </i>
   </energy>
  </scstep>
  <scstep>
   <time name="total">  174.36  175.47</time>
   <energy>
    <i name="e_fr_energy">    -72.94318023 </i>
    <i name="e_wo_entrp">    -72.94385055 </i>
    <i name="e_0_energy">    -72.94340367 </i>
   </energy>
  </scstep>
  <scstep>
   <time name="total">  173.79  174.89</time>
   <energy>
    <i name="alphaZ">    295.78776892 </i>
    <i name="ewald">  -8671.15735488 </i>
    <i name="hartreedc">  -8488.36647341 </i>
    <i name="XCdc">    197.10475968 </i>
    <i name="pawpsdc">  14045.78158916 </i>
    <i name="pawaedc"> -14362.86542907 </i>
    <i name="eentropy">      0.00067034 </i>
    <i name="bandstr">  -1725.66896013 </i>
    <i name="atom">  18291.93303151 </i>
    <i name="e_fr_energy">    -72.94318909 </i>
    <i name="e_wo_entrp">    -72.94385943 </i>
    <i name="e_0_energy">    -72.94341254 </i>
   </energy>
  </scstep>
  <structure>
   <crystal>
    <varray name="basis" >
     <v>       3.33254681      -5.76348428       0.00156485 </v>
     <v>       3.33254681       5.76348428       0.00156485 </v>
     <v>      -2.23107061       0.00000000       6.29935002 </v>
    </varray>
    <i name="volume">    242.02449795 </i>
    <varray name="rec_basis" >
     <v>       0.15001045      -0.08675308       0.05312991 </v>
     <v>       0.15001045       0.08675308       0.05312991 </v>
     <v>      -0.00007453       0.00000000       0.15872014 </v>
    </varray>
   </crystal>
   <varray name="positions" >
    <v>       0.61855700       0.11465221       0.12038074 </v>
    <v>       0.11465221       0.61855700       0.62038074 </v>
    <v>       0.96323909       0.79757878       0.12020669 </v>
    <v>       0.79757878       0.96323909       0.62020669 </v>
    <v>       0.44706823       0.26327678       0.60172956 </v>
    <v>       0.26327678       0.44706823       0.10172956 </v>
    <v>       0.06157487       0.89242832       0.48617210 </v>
    <v>       0.58947231       0.41530299       0.99611318 </v>
    <v>       0.75609575       0.24277324       0.48538589 </v>
    <v>       0.41530299       0.58947231       0.49611318 </v>
    <v>       0.89242832       0.06157487       0.98617210 </v>
    <v>       0.24277324       0.75609575       0.98538589 </v>
   </varray>
  </structure>
  <varray name="forces" >
   <v>       0.00592814       0.01004457       0.00570728 </v>
   <v>       0.00592814      -0.01004457       0.00570728 </v>
   <v>       0.01197833      -0.00258623       0.01003672 </v>
   <v>       0.01197833       0.00258623       0.01003672 </v>
   <v>      -0.02300357       0.01382974      -0.00253546 </v>
   <v>      -0.02300357      -0.01382974      -0.00253546 </v>
   <v>       0.00314518      -0.00663596       0.01034129 </v>
   <v>      -0.00710096       0.02374111      -0.02401708 </v>
   <v>       0.00905288      -0.00615439       0.00046725 </v>
   <v>      -0.00710096      -0.02374111      -0.02401708 </v>
   <v>       0.00314518       0.00663596       0.01034129 </v>
   <v>       0.00905288       0.00615439       0.00046725 </v>
  </varray>
  <varray name="stress" >
   <v>       1.11382135       0.00000000       0.38597012 </v>
   <v>       0.00000000       0.66971550       0.00000000 </v>
   <v>       0.38597086       0.00000000       0.88303488 </v>
  </varray>
  <energy>
   <i name="e_fr_energy">    -72.94318909 </i>
   <i name="e_wo_entrp">    -72.94341254 </i>
   <i name="e_0_energy">      0.00067034 </i>
  </energy>
  <time name="totalsc"> 2492.56 2514.96</time>
 </calculation>
 <calculation>
  <scstep>
   <time name="total">  175.50  176.67</time>
   <energy>
    <i name="alphaZ">    295.60826571 </i>
    <i name="ewald">  -8670.11708624 </i>
    <i name="hartreedc">  -8486.23465597 </i>
    <i name="XCdc">    197.00836490 </i>
    <i name="pawpsdc">  14041.66468983 </i>
    <i name="pawaedc"> -14358.10139159 </i>
    <i name="eentropy">      0.00067225 </i>
    <i name="bandstr">  -1729.12986785 </i>
    <i name="atom">  18291.93303151 </i>
    <i name="e_fr_energy">    -72.93298290 </i>
    <i name="e_wo_entrp">    -72.93365515 </i>
    <i name="e_0_energy">    -72.93320698 </i>
   </energy>
  </scstep>
  <scstep>
   <time name="total">  175.47  175.99</time>
   <energy>
    <i name="e_fr_energy">    -72.93923373 </i>
    <i name="e_wo_entrp">    -72.93990666 </i>
    <i name="e_0_energy">    -72.93945804 </i>
   </energy>
  </scstep>
  <scstep>
   <time name="total">  175.68  176.40</time>
   <energy>
    <i name="e_fr_energy">    -72.94223040 </i>
    <i name="e_wo_entrp">    -72.94290288 </i>
    <i name="e_0_energy">    -72.94245456 </i>
   </energy>
  </scstep>
  <scstep>
   <time name="total">  174.87  175.67</time>
   <energy>
    <i name="e_fr_energy">    -72.94308634 </i>
    <i name="e_wo_entrp">    -72.94375882 </i>
    <i name="e_0_energy">    -72.94331050 </i>
   </energy>
  </scstep>
  <scstep>
   <time name="total">  175.60  176.77</time>
   <energy>
    <i name="e_fr_energy">    -72.94338156 </i>
    <i name="e_wo_entrp">    -72.94405446 </i>
    <i name="e_0_energy">    -72.94360586 </i>
   </energy>
  </scstep>
  <scstep>
   <time name="total">  174.95  176.30</time>
   <energy>
    <i name="e_fr_energy">    -72.94342983 </i>
    <i name="e_wo_entrp">    -72.94410303 </i>
    <i name="e_0_energy">    -72.94365423 </i>
   </energy>
  </scstep>
  <scstep>
   <time name="total">  175.41  176.51</time>
   <energy>
    <i name="e_fr_energy">    -72.94347120 </i>
    <i name="e_wo_entrp">    -72.94414448 </i>
    <i name="e_0_energy">    -72.94369563 </i>
   </energy>
  </scstep>
  <scstep>
   <time name="total">  174.46  175.73</time>
   <energy>
    <i name="e_fr_energy">    -72.94349020 </i>
    <i name="e_wo_entrp">    -72.94416344 </i>
    <i name="e_0_energy">    -72.94371461 </i>
   </energy>
  </scstep>
  <scstep>
   <time name="total">  173.90  175.00</time>
   <energy>
    <i name="alphaZ">    295.60826571 </i>
    <i name="ewald">  -8670.11708624 </i>
    <i name="hartreedc">  -8488.77845704 </i>
    <i name="XCdc">    197.09515928 </i>
    <i name="pawpsdc">  14045.46866639 </i>
    <i name="pawaedc"> -14362.51619053 </i>
    <i name="eentropy">      0.00067311 </i>
    <i name="bandstr">  -1726.14049597 </i>
    <i name="atom">  18291.93303151 </i>
    <i name="e_fr_energy">    -72.94349676 </i>
    <i name="e_wo_entrp">    -72.94416987 </i>
    <i name="e_0_energy">    -72.94372113 </i>
   </energy>
  </scstep>
  <structure>
   <crystal>
    <varray name="basis" >
     <v>       3.33423340      -5.76308237       0.00274217 </v>
     <v>       3.33423340       5.76308237       0.00274217 </v>
     <v>      -2.22997444       0.00000000       6.29963996 </v>
    </varray>
    <i name="volume">    242.17146331 </i>
    <varray name="rec_basis" >
     <v>       0.14991586      -0.08675913       0.05306788 </v>
     <v>       0.14991586       0.08675913       0.05306788 </v>
     <v>      -0.00013051       0.00000000       0.15869303 </v>
    </varray>
   </crystal>
   <varray name="positions" >
    <v>       0.61859954       0.11478345       0.12044045 </v>
    <v>       0.11478345       0.61859954       0.62044045 </v>
    <v>       0.96339533       0.79770249       0.12029753 </v>
    <v>       0.79770249       0.96339533       0.62029753 </v>
    <v>       0.44686875       0.26320726       0.60172163 </v>
    <v>       0.26320726       0.44686875       0.10172163 </v>
    <v>       0.06165057       0.89244227       0.48625959 </v>
    <v>       0.58916140       0.41526239       0.99587110 </v>
    <v>       0.75614398       0.24280214       0.48539787 </v>
    <v>       0.41526239       0.58916140       0.49587110 </v>
    <v>       0.89244227       0.06165057       0.98625959 </v>
    <v>       0.24280214       0.75614398       0.98539787 </v>
   </varray>
  </structure>
  <varray name="forces" >
   <v>       0.01656471       0.02600282       0.01522048 </v>
   <v>       0.01656471      -0.02600282       0.01522048 </v>
   <v>       0.02812900      -0.01130647       0.02559141 </v>
   <v>       0.02812900       0.01130647       0.02559141 </v>
   <v>      -0.03026297      -0.00403174      -0.01771565 </v>
   <v>      -0.03026297       0.00403174      -0.01771565 </v>
   <v>      -0.00053179      -0.00847549       0.00581196 </v>
   <v>      -0.01200044       0.02052024      -0.02834976 </v>
   <v>      -0.00189852       0.00430524      -0.00055844 </v>
   <v>      -0.01200044      -0.02052024      -0.02834976 </v>
   <v>      -0.00053179       0.00847549       0.00581196 </v>
   <v>      -0.00189852      -0.00430524      -0.00055844 </v>
  </varray>
  <varray name="stress" >
   <v>      -0.08834582       0.00000000       0.13059666 </v>
   <v>       0.00000000       0.23240990       0.00000000 </v>
   <v>       0.13059637       0.00000000       0.37683890 </v>
  </varray>
  <energy>
   <i name="e_fr_energy">    -72.94349676 </i>
   <i name="e_wo_entrp">    -72.94372113 </i>
   <i name="e_0_energy">      0.00067311 </i>
  </energy>
  <time name="totalsc"> 2326.44 2342.13</time>
 </calculation>
 <calculation>
  <scstep>
   <time name="total">  176.80  177.94</time>
   <energy>
    <i name="alphaZ">    295.07136246 </i>
    <i name="ewald">  -8666.97172185 </i>
    <i name="hartreedc">  -8482.24978071 </i>
    <i name="XCdc">    196.80257929 </i>
    <i name="pawpsdc">  14033.10766437 </i>
    <i name="pawaedc"> -14348.18420810 </i>
    <i name="eentropy">      0.00067853 </i>
    <i name="bandstr">  -1736.64250785 </i>
    <i name="atom">  18291.93303151 </i>
    <i name="e_fr_energy">    -72.84883175 </i>
    <i name="e_wo_entrp">    -72.84951029 </i>
    <i name="e_0_energy">    -72.84905793 </i>
   </energy>
  </scstep>
  <scstep>
   <time name="total">  176.92  178.08</time>
   <energy>
    <i name="e_fr_energy">    -72.90343389 </i>
    <i name="e_wo_entrp">    -72.90411373 </i>
    <i name="e_0_energy">    -72.90366050 </i>
   </energy>
  </scstep>
  <scstep>
   <time name="total">  176.79  178.05</time>
   <energy>
    <i name="e_fr_energy">    -72.93139473 </i>
    <i name="e_wo_entrp">    -72.93207280 </i>
    <i name="e_0_energy">    -72.93162076 </i>
   </energy>
  </scstep>
  <scstep>
   <time name="total">  176.93  178.08</time>
   <energy>
    <i name="e_fr_energy">    -72.93927429 </i>
    <i name="e_wo_entrp">    -72.93995217 </i>
    <i name="e_0_energy">    -72.93950025 </i>
   </energy>
  </scstep>
  <scstep>
   <time name="total">  176.80  178.04</time>
   <energy>
    <i name="e_fr_energy">    -72.94191327 </i>
    <i name="e_wo_entrp">    -72.94259226 </i>
    <i name="e_0_energy">    -72.94213960 </i>
   </energy>
  </scstep>
  <scstep>
   <time name="total">  177.22  178.35</time>
   <energy>
    <i name="e_fr_energy">    -72.94245675 </i>
    <i name="e_wo_entrp">    -72.94313662 </i>
    <i name="e_0_energy">    -72.94268337 </i>
   </energy>
  </scstep>
  <scstep>
   <time name="total">  176.20  180.84</time>
   <energy>
    <i name="e_fr_energy">    -72.94278582 </i>
    <i name="e_wo_entrp">    -72.94346602 </i>
    <i name="e_0_energy">    -72.94301255 </i>
   </energy>
  </scstep>
  <scstep>
   <time name="total">  176.42  177.77</time>
   <energy>
    <i name="e_fr_energy">    -72.94294364 </i>
    <i name="e_wo_entrp">    -72.94362374 </i>
    <i name="e_0_energy">    -72.94317034 </i>
   </energy>
  </scstep>
  <scstep>
   <time name="total">  176.43  177.59</time>
   <energy>
    <i name="e_fr_energy">    -72.94301496 </i>
    <i name="e_wo_entrp">    -72.94369471 </i>
    <i name="e_0_energy">    -72.94324155 </i>
   </energy>
  </scstep>
  <scstep>
   <time name="total">  175.58  176.83</time>
   <energy>
    <i name="e_fr_energy">    -72.94304264 </i>
    <i name="e_wo_entrp">    -72.94372217 </i>
    <i name="e_0_energy">    -72.94326915 </i>
   </energy>
  </scstep>
  <scstep>
   <time name="total">  176.05  177.09</time>
   <energy>
    <i name="e_fr_energy">    -72.94305329 </i>
    <i name="e_wo_entrp">    -72.94373281 </i>
    <i name="e_0_energy">    -72.94327980 </i>
   </energy>
  </scstep>
  <scstep>
   <time name="total">  176.40  177.64</time>
   <energy>
    <i name="alphaZ">    295.07136246 </i>
    <i name="ewald">  -8666.97172185 </i>
    <i name="hartreedc">  -8490.35141975 </i>
    <i name="XCdc">    197.07138112 </i>
    <i name="pawpsdc">  14044.85626747 </i>
    <i name="pawaedc"> -14361.83230117 </i>
    <i name="eentropy">      0.00067960 </i>
    <i name="bandstr">  -1727.21334316 </i>
    <i name="atom">  18291.93303151 </i>
    <i name="e_fr_energy">    -72.94305738 </i>
    <i name="e_wo_entrp">    -72.94373697 </i>
    <i name="e_0_energy">    -72.94328391 </i>
   </energy>
  </scstep>
  <structure>
   <crystal>
    <varray name="basis" >
     <v>       3.33929316      -5.76187664       0.00627414 </v>
     <v>       3.33929316       5.76187664       0.00627414 </v>
     <v>      -2.22668596       0.00000000       6.30050980 </v>
    </varray>
    <i name="volume">    242.61211144 </i>
    <varray name="rec_basis" >
     <v>       0.14963293      -0.08677728       0.05288231 </v>
     <v>       0.14963293       0.08677728       0.05288231 </v>
     <v>      -0.00029801       0.00000000       0.15861199 </v>
    </varray>
   </crystal>
   <varray name="positions" >
    <v>       0.61872696       0.11517700       0.12061946 </v>
    <v>       0.11517700       0.61872696       0.62061946 </v>
    <v>       0.96386373       0.79807332       0.12056989 </v>
    <v>       0.79807332       0.96386373       0.62056989 </v>
    <v>       0.44627055       0.26299896       0.60169797 </v>
    <v>       0.26299896       0.44627055       0.10169797 </v>
    <v>       0.06187755       0.89248398       0.48652202 </v>
    <v>       0.58822912       0.41514107       0.99514508 </v>
    <v>       0.75628856       0.24288877       0.48543375 </v>
    <v>       0.41514107       0.58822912       0.49514508 </v>
    <v>       0.89248398       0.06187755       0.98652202 </v>
    <v>       0.24288877       0.75628856       0.98543375 </v>
   </varray>
  </structure>
  <varray name="forces" >
   <v>      -0.01535430       0.01204110       0.00300084 </v>
   <v>      -0.01535430      -0.01204110       0.00300084 </v>
   <v>      -0.00336654      -0.00222854       0.00492777 </v>
   <v>      -0.00336654       0.00222854       0.00492777 </v>
   <v>      -0.02115479      -0.06506977      -0.04232448 </v>
   <v>      -0.02115479       0.06506977      -0.04232448 </v>
   <v>       0.00812766      -0.00662456       0.00037418 </v>
   <v>       0.03546809      -0.02629783       0.01605652 </v>
   <v>      -0.00372012       0.03911820       0.01796516 </v>
   <v>       0.03546809       0.02629783       0.01605652 </v>
   <v>       0.00812766       0.00662456       0.00037418 </v>
   <v>      -0.00372012      -0.03911820       0.01796516 </v>
  </varray>
  <varray name="stress" >
   <v>      -3.13056860       0.00000000      -0.86291655 </v>
   <v>       0.00000000      -0.05752190       0.00000000 </v>
   <v>      -0.86291568       0.00000000      -0.15450221 </v>
  </varray>
  <energy>
   <i name="e_fr_energy">    -72.94305738 </i>
   <i name="e_wo_entrp">    -72.94328391 </i>
   <i name="e_0_energy">      0.00067960 </i>
  </energy>
  <time name="totalsc"> 2868.78 2893.26</time>
 </calculation>
 <calculation>
  <scstep>
   <time name="total">  176.59  177.73</time>
   <energy>
    <i name="alphaZ">    295.39676992 </i>
    <i name="ewald">  -8668.88529047 </i>
    <i name="hartreedc">  -8494.17369154 </i>
    <i name="XCdc">    197.24597524 </i>
    <i name="pawpsdc">  14052.39953723 </i>
    <i name="pawaedc"> -14370.55204508 </i>
    <i name="eentropy">      0.00067650 </i>
    <i name="bandstr">  -1720.89694714 </i>
    <i name="atom">  18291.93303151 </i>
    <i name="e_fr_energy">    -72.90906838 </i>
    <i name="e_wo_entrp">    -72.90974487 </i>
    <i name="e_0_energy">    -72.90929387 </i>
   </energy>
  </scstep>
  <scstep>
   <time name="total">  176.55  177.66</time>
   <energy>
    <i name="e_fr_energy">    -72.92856123 </i>
    <i name="e_wo_entrp">    -72.92923692 </i>
    <i name="e_0_energy">    -72.92878646 </i>
   </energy>
  </scstep>
  <scstep>
   <time name="total">  176.61  177.76</time>
   <energy>
    <i name="e_fr_energy">    -72.93893815 </i>
    <i name="e_wo_entrp">    -72.93961508 </i>
    <i name="e_0_energy">    -72.93916379 </i>
   </energy>
  </scstep>
  <scstep>
   <time name="total">  176.22  177.50</time>
   <energy>
    <i name="e_fr_energy">    -72.94213494 </i>
    <i name="e_wo_entrp">    -72.94281174 </i>
    <i name="e_0_energy">    -72.94236054 </i>
   </energy>
  </scstep>
  <scstep>
   <time name="total">  176.64  177.81</time>
   <energy>
    <i name="e_fr_energy">    -72.94319655 </i>
    <i name="e_wo_entrp">    -72.94387248 </i>
    <i name="e_0_energy">    -72.94342186 </i>
   </energy>
  </scstep>
  <scstep>
   <time name="total">  176.55  177.79</time>
   <energy>
    <i name="e_fr_energy">    -72.94331298 </i>
    <i name="e_wo_entrp">    -72.94398847 </i>
    <i name="e_0_energy">    -72.94353814 </i>
   </energy>
  </scstep>
  <scstep>
   <time name="total">  176.99  178.13</time>
   <energy>
    <i name="e_fr_energy">    -72.94346196 </i>
    <i name="e_wo_entrp">    -72.94413739 </i>
    <i name="e_0_energy">    -72.94368710 </i>
   </energy>
  </scstep>
  <scstep>
   <time name="total">  176.41  177.62</time>
   <energy>
    <i name="e_fr_energy">    -72.94354315 </i>
    <i name="e_wo_entrp">    -72.94421878 </i>
    <i name="e_0_energy">    -72.94376836 </i>
   </energy>
  </scstep>
  <scstep>
   <time name="total">  175.41  176.57</time>
   <energy>
    <i name="e_fr_energy">    -72.94356073 </i>
    <i name="e_wo_entrp">    -72.94423663 </i>
    <i name="e_0_energy">    -72.94378603 </i>
   </energy>
  </scstep>
  <scstep>
   <time name="total">  176.31  177.50</time>
   <energy>
    <i name="e_fr_energy">    -72.94357244 </i>
    <i name="e_wo_entrp">    -72.94424843 </i>
    <i name="e_0_energy">    -72.94379777 </i>
   </energy>
  </scstep>
  <scstep>
   <time name="total">  175.55  176.70</time>
   <energy>
    <i name="alphaZ">    295.39676992 </i>
    <i name="ewald">  -8668.88529047 </i>
    <i name="hartreedc">  -8489.40326970 </i>
    <i name="XCdc">    197.08597470 </i>
    <i name="pawpsdc">  14045.24724267 </i>
    <i name="pawaedc"> -14362.26760311 </i>
    <i name="eentropy">      0.00067597 </i>
    <i name="bandstr">  -1726.55021182 </i>
    <i name="atom">  18291.93303151 </i>
    <i name="e_fr_energy">    -72.94357600 </i>
    <i name="e_wo_entrp">    -72.94425197 </i>
    <i name="e_0_energy">    -72.94380132 </i>
   </energy>
  </scstep>
  <structure>
   <crystal>
    <varray name="basis" >
     <v>       3.33622382      -5.76260806       0.00413159 </v>
     <v>       3.33622382       5.76260806       0.00413159 </v>
     <v>      -2.22868081       0.00000000       6.29998214 </v>
    </varray>
    <i name="volume">    242.34485127 </i>
    <varray name="rec_basis" >
     <v>       0.14980441      -0.08676627       0.05299479 </v>
     <v>       0.14980441       0.08676627       0.05299479 </v>
     <v>      -0.00019649       0.00000000       0.15866110 </v>
    </varray>
   </crystal>
   <varray name="positions" >
    <v>       0.61865004       0.11493861       0.12051106 </v>
    <v>       0.11493861       0.61865004       0.62051106 </v>
    <v>       0.96358015       0.79784895       0.12040498 </v>
    <v>       0.79784895       0.96358015       0.62040498 </v>
    <v>       0.44663299       0.26312482       0.60171205 </v>
    <v>       0.26312482       0.44663299       0.10171205 </v>
    <v>       0.06174009       0.89245893       0.48636294 </v>
    <v>       0.58879387       0.41521377       0.99558507 </v>
    <v>       0.75620099       0.24283637       0.48541206 </v>
    <v>       0.41521377       0.58879387       0.49558507 </v>
    <v>       0.89245893       0.06174009       0.98636294 </v>
    <v>       0.24283637       0.75620099       0.98541206 </v>
   </varray>
  </structure>
  <varray name="forces" >
   <v>       0.00171322       0.01456281       0.00781471 </v>
   <v>       0.00171322      -0.01456281       0.00781471 </v>
   <v>       0.01293455      -0.00517313       0.01289328 </v>
   <v>       0.01293455       0.00517313       0.01289328 </v>
   <v>      -0.02588586      -0.02759460      -0.02623828 </v>
   <v>      -0.02588586       0.02759460      -0.02623828 </v>
   <v>       0.00622618      -0.00622359       0.00543596 </v>
   <v>       0.00605049       0.00048540      -0.00799135 </v>
   <v>      -0.00103859       0.01709176       0.00808568 </v>
   <v>       0.00605049      -0.00048540      -0.00799135 </v>
   <v>       0.00622618       0.00622359       0.00543596 </v>
   <v>      -0.00103859      -0.01709176       0.00808568 </v>
  </varray>
  <varray name="stress" >
   <v>      -0.99356200       0.00000000      -0.18746052 </v>
   <v>       0.00000000       0.27470079       0.00000000 </v>
   <v>      -0.18746178       0.00000000       0.37482223 </v>
  </varray>
  <energy>
   <i name="e_fr_energy">    -72.94357600 </i>
   <i name="e_wo_entrp">    -72.94380132 </i>
   <i name="e_0_energy">      0.00067597 </i>
  </energy>
  <time name="totalsc"> 2691.46 2710.54</time>
 </calculation>
 <calculation>
  <scstep>
   <time name="total">  177.80  178.91</time>
   <energy>
    <i name="alphaZ">    295.32052299 </i>
    <i name="ewald">  -8669.16127965 </i>
    <i name="hartreedc">  -8488.26548253 </i>
    <i name="XCdc">    197.04519128 </i>
    <i name="pawpsdc">  14043.65412485 </i>
    <i name="pawaedc"> -14360.40155773 </i>
    <i name="eentropy">      0.00067823 </i>
    <i name="bandstr">  -1727.52374211 </i>
    <i name="atom">  18291.93303151 </i>
    <i name="e_fr_energy">    -72.92963185 </i>
    <i name="e_wo_entrp">    -72.93031009 </i>
    <i name="e_0_energy">    -72.92985793 </i>
   </energy>
  </scstep>
  <scstep>
   <time name="total">  177.44  178.62</time>
   <energy>
    <i name="e_fr_energy">    -72.93750855 </i>
    <i name="e_wo_entrp">    -72.93818682 </i>
    <i name="e_0_energy">    -72.93773464 </i>
   </energy>
  </scstep>
  <scstep>
   <time name="total">  177.40  178.66</time>
   <energy>
    <i name="e_fr_energy">    -72.94210815 </i>
    <i name="e_wo_entrp">    -72.94278683 </i>
    <i name="e_0_energy">    -72.94233438 </i>
   </energy>
  </scstep>
  <scstep>
   <time name="total">  177.67  178.77</time>
   <energy>
    <i name="e_fr_energy">    -72.94323041 </i>
    <i name="e_wo_entrp">    -72.94391028 </i>
    <i name="e_0_energy">    -72.94345703 </i>
   </energy>
  </scstep>
  <scstep>
   <time name="total">  177.39  178.64</time>
   <energy>
    <i name="e_fr_energy">    -72.94361989 </i>
    <i name="e_wo_entrp">    -72.94430065 </i>
    <i name="e_0_energy">    -72.94384681 </i>
   </energy>
  </scstep>
  <scstep>
   <time name="total">  176.63  177.78</time>
   <energy>
    <i name="e_fr_energy">    -72.94369366 </i>
    <i name="e_wo_entrp">    -72.94437459 </i>
    <i name="e_0_energy">    -72.94392063 </i>
   </energy>
  </scstep>
  <scstep>
   <time name="total">  176.24  177.49</time>
   <energy>
    <i name="e_fr_energy">    -72.94372898 </i>
    <i name="e_wo_entrp">    -72.94440971 </i>
    <i name="e_0_energy">    -72.94395589 </i>
   </energy>
  </scstep>
  <scstep>
   <time name="total">  176.28  177.36</time>
   <energy>
    <i name="e_fr_energy">    -72.94375328 </i>
    <i name="e_wo_entrp">    -72.94443377 </i>
    <i name="e_0_energy">    -72.94398011 </i>
   </energy>
  </scstep>
  <scstep>
   <time name="total">  176.01  177.27</time>
   <energy>
    <i name="e_fr_energy">    -72.94376444 </i>
    <i name="e_wo_entrp">    -72.94444476 </i>
    <i name="e_0_energy">    -72.94399122 </i>
   </energy>
  </scstep>
  <scstep>
   <time name="total">  176.20  177.34</time>
   <energy>
    <i name="alphaZ">    295.32052299 </i>
    <i name="ewald">  -8669.16127965 </i>
    <i name="hartreedc">  -8488.92397076 </i>
    <i name="XCdc">    197.08536932 </i>
    <i name="pawpsdc">  14045.33894643 </i>
    <i name="pawaedc"> -14362.34069060 </i>
    <i name="eentropy">      0.00068026 </i>
    <i name="bandstr">  -1726.69984614 </i>
    <i name="atom">  18291.93303151 </i>
    <i name="e_fr_energy">    -72.94376914 </i>
    <i name="e_wo_entrp">    -72.94444940 </i>
    <i name="e_0_energy">    -72.94399589 </i>
   </energy>
  </scstep>
  <structure>
   <crystal>
    <varray name="basis" >
     <v>       3.33580798      -5.76308895       0.00465411 </v>
     <v>       3.33580798       5.76308895       0.00465411 </v>
     <v>      -2.22741822       0.00000000       6.30152150 </v>
    </varray>
    <i name="volume">    242.40742075 </i>
    <varray name="rec_basis" >
     <v>       0.14981484      -0.08675903       0.05295551 </v>
     <v>       0.14981484       0.08675903       0.05295551 </v>
     <v>      -0.00022130       0.00000000       0.15861361 </v>
    </varray>
   </crystal>
   <varray name="positions" >
    <v>       0.61865700       0.11510386       0.12059995 </v>
    <v>       0.11510386       0.61865700       0.62059995 </v>
    <v>       0.96380610       0.79801795       0.12054621 </v>
    <v>       0.79801795       0.96380610       0.62054621 </v>
    <v>       0.44638431       0.26278413       0.60154796 </v>
    <v>       0.26278413       0.44638431       0.10154796 </v>
    <v>       0.06186001       0.89249456       0.48645680 </v>
    <v>       0.58859401       0.41520572       0.99536790 </v>
    <v>       0.75618843       0.24292348       0.48546934 </v>
    <v>       0.41520572       0.58859401       0.49536790 </v>
    <v>       0.89249456       0.06186001       0.98645680 </v>
    <v>       0.24292348       0.75618843       0.98546934 </v>
   </varray>
  </structure>
  <varray name="forces" >
   <v>       0.00245310       0.02177746       0.01261827 </v>
   <v>       0.00245310      -0.02177746       0.01261827 </v>
   <v>       0.00619756      -0.00569765       0.01404237 </v>
   <v>       0.00619756       0.00569765       0.01404237 </v>
   <v>      -0.00006134      -0.02201496      -0.01460390 </v>
   <v>      -0.00006134       0.02201496      -0.01460390 </v>
   <v>      -0.02108554      -0.00552164      -0.00572077 </v>
   <v>       0.01118436       0.00024778      -0.00913721 </v>
   <v>       0.00131186       0.01315533       0.00280125 </v>
   <v>       0.01118436      -0.00024778      -0.00913721 </v>
   <v>      -0.02108554       0.00552164      -0.00572077 </v>
   <v>       0.00131186      -0.01315533       0.00280125 </v>
  </varray>
  <varray name="stress" >
   <v>      -0.68546331       0.00000000      -0.12907763 </v>
   <v>       0.00000000       0.07914826       0.00000000 </v>
   <v>      -0.12907599       0.00000000      -0.16268730 </v>
  </varray>
  <energy>
   <i name="e_fr_energy">    -72.94376914 </i>
   <i name="e_wo_entrp">    -72.94399589 </i>
   <i name="e_0_energy">      0.00068026 </i>
  </energy>
  <time name="totalsc"> 2515.64 2531.86</time>
 </calculation>
 <calculation>
  <scstep>
   <time name="total">  176.76  177.94</time>
   <energy>
    <i name="alphaZ">    295.24330771 </i>
    <i name="ewald">  -8669.43816039 </i>
    <i name="hartreedc">  -8487.74660400 </i>
    <i name="XCdc">    197.04305190 </i>
    <i name="pawpsdc">  14043.68599480 </i>
    <i name="pawaedc"> -14360.40478814 </i>
    <i name="eentropy">      0.00068258 </i>
    <i name="bandstr">  -1727.71782543 </i>
    <i name="atom">  18291.93303151 </i>
    <i name="e_fr_energy">    -72.92930794 </i>
    <i name="e_wo_entrp">    -72.92999052 </i>
    <i name="e_0_energy">    -72.92953547 </i>
   </energy>
  </scstep>
  <scstep>
   <time name="total">  176.10  177.26</time>
   <energy>
    <i name="e_fr_energy">    -72.93737130 </i>
    <i name="e_wo_entrp">    -72.93805394 </i>
    <i name="e_0_energy">    -72.93759884 </i>
   </energy>
  </scstep>
  <scstep>
   <time name="total">  176.16  177.40</time>
   <energy>
    <i name="e_fr_energy">    -72.94208090 </i>
    <i name="e_wo_entrp">    -72.94276394 </i>
    <i name="e_0_energy">    -72.94230858 </i>
   </energy>
  </scstep>
  <scstep>
   <time name="total">  176.40  177.56</time>
   <energy>
    <i name="e_fr_energy">    -72.94322324 </i>
    <i name="e_wo_entrp">    -72.94390746 </i>
    <i name="e_0_energy">    -72.94345131 </i>
   </energy>
  </scstep>
  <scstep>
   <time name="total">  176.02  177.14</time>
   <energy>
    <i name="e_fr_energy">    -72.94362156 </i>
    <i name="e_wo_entrp">    -72.94430666 </i>
    <i name="e_0_energy">    -72.94384993 </i>
   </energy>
  </scstep>
  <scstep>
   <time name="total">  175.58  176.72</time>
   <energy>
    <i name="e_fr_energy">    -72.94369749 </i>
    <i name="e_wo_entrp">    -72.94438276 </i>
    <i name="e_0_energy">    -72.94392591 </i>
   </energy>
  </scstep>
  <scstep>
   <time name="total">  175.08  176.12</time>
   <energy>
    <i name="e_fr_energy">    -72.94373384 </i>
    <i name="e_wo_entrp">    -72.94441891 </i>
    <i name="e_0_energy">    -72.94396220 </i>
   </energy>
  </scstep>
  <scstep>
   <time name="total">  175.36  176.63</time>
   <energy>
    <i name="e_fr_energy">    -72.94375889 </i>
    <i name="e_wo_entrp">    -72.94444373 </i>
    <i name="e_0_energy">    -72.94398717 </i>
   </energy>
  </scstep>
  <scstep>
   <time name="total">  174.75  175.91</time>
   <energy>
    <i name="e_fr_energy">    -72.94377023 </i>
    <i name="e_wo_entrp">    -72.94445489 </i>
    <i name="e_0_energy">    -72.94399845 </i>
   </energy>
  </scstep>
  <scstep>
   <time name="total">  175.01  176.28</time>
   <energy>
    <i name="alphaZ">    295.24330771 </i>
    <i name="ewald">  -8669.43816039 </i>
    <i name="hartreedc">  -8488.42594196 </i>
    <i name="XCdc">    197.08426906 </i>
    <i name="pawpsdc">  14045.42120987 </i>
    <i name="pawaedc"> -14362.40072461 </i>
    <i name="eentropy">      0.00068460 </i>
    <i name="bandstr">  -1726.86893823 </i>
    <i name="atom">  18291.93303151 </i>
    <i name="e_fr_energy">    -72.94377503 </i>
    <i name="e_wo_entrp">    -72.94445963 </i>
    <i name="e_0_energy">    -72.94400323 </i>
   </energy>
  </scstep>
  <structure>
   <crystal>
    <varray name="basis" >
     <v>       3.33538649      -5.76357638       0.00518374 </v>
     <v>       3.33538649       5.76357638       0.00518374 </v>
     <v>      -2.22613845       0.00000000       6.30308180 </v>
    </varray>
    <i name="volume">    242.47081781 </i>
    <varray name="rec_basis" >
     <v>       0.14982543      -0.08675169       0.05291572 </v>
     <v>       0.14982543       0.08675169       0.05291572 </v>
     <v>      -0.00024644       0.00000000       0.15856551 </v>
    </varray>
   </crystal>
   <varray name="positions" >
    <v>       0.61866404       0.11527134       0.12069001 </v>
    <v>       0.11527134       0.61866404       0.62069001 </v>
    <v>       0.96403509       0.79818924       0.12068929 </v>
    <v>       0.79818924       0.96403509       0.62068929 </v>
    <v>       0.44613227       0.26243884       0.60138174 </v>
    <v>       0.26243884       0.44613227       0.10138174 </v>
    <v>       0.06198154       0.89253066       0.48655190 </v>
    <v>       0.58839150       0.41519761       0.99514784 </v>
    <v>       0.75617569       0.24301176       0.48552738 </v>
    <v>       0.41519761       0.58839150       0.49514784 </v>
    <v>       0.89253066       0.06198154       0.98655190 </v>
    <v>       0.24301176       0.75617569       0.98552738 </v>
   </varray>
  </structure>
  <varray name="forces" >
   <v>       0.00233971       0.02208794       0.01330309 </v>
   <v>       0.00233971      -0.02208794       0.01330309 </v>
   <v>       0.00236536      -0.00460172       0.01160299 </v>
   <v>       0.00236536       0.00460172       0.01160299 </v>
   <v>       0.02591415      -0.01501605      -0.00092471 </v>
   <v>       0.02591415       0.01501605      -0.00092471 </v>
   <v>      -0.04567207      -0.00278313      -0.01476608 </v>
   <v>       0.01120404      -0.00063982      -0.00818612 </v>
   <v>       0.00384881       0.00676483      -0.00102916 </v>
   <v>       0.01120404       0.00063982      -0.00818612 </v>
   <v>      -0.04567207       0.00278313      -0.01476608 </v>
   <v>       0.00384881      -0.00676483      -0.00102916 </v>
  </varray>
  <varray name="stress" >
   <v>      -0.14698426       0.00000000      -0.00178413 </v>
   <v>       0.00000000      -0.03338121       0.00000000 </v>
   <v>      -0.00178418       0.00000000      -0.57333896 </v>
  </varray>
  <energy>
   <i name="e_fr_energy">    -72.94377503 </i>
   <i name="e_wo_entrp">    -72.94400323 </i>
   <i name="e_0_energy">      0.00068460 </i>
  </energy>
  <time name="totalsc"> 2499.11 2517.18</time>
 </calculation>
 <calculation>
  <scstep>
   <time name="total">  177.91  179.04</time>
   <energy>
    <i name="alphaZ">    295.27106341 </i>
    <i name="ewald">  -8670.22773862 </i>
    <i name="hartreedc">  -8488.58088010 </i>
    <i name="XCdc">    197.09842583 </i>
    <i name="pawpsdc">  14046.18756633 </i>
    <i name="pawaedc"> -14363.26348774 </i>
    <i name="eentropy">      0.00068824 </i>
    <i name="bandstr">  -1725.86004024 </i>
    <i name="atom">  18291.93303151 </i>
    <i name="e_fr_energy">    -72.92330804 </i>
    <i name="e_wo_entrp">    -72.92399628 </i>
    <i name="e_0_energy">    -72.92353745 </i>
   </energy>
  </scstep>
  <scstep>
   <time name="total">  177.38  178.65</time>
   <energy>
    <i name="e_fr_energy">    -72.93474221 </i>
    <i name="e_wo_entrp">    -72.93542805 </i>
    <i name="e_0_energy">    -72.93497082 </i>
   </energy>
  </scstep>
  <scstep>
   <time name="total">  177.61  178.70</time>
   <energy>
    <i name="e_fr_energy">    -72.94171748 </i>
    <i name="e_wo_entrp">    -72.94240122 </i>
    <i name="e_0_energy">    -72.94194539 </i>
   </energy>
  </scstep>
  <scstep>
   <time name="total">  177.48  178.69</time>
   <energy>
    <i name="e_fr_energy">    -72.94319342 </i>
    <i name="e_wo_entrp">    -72.94387724 </i>
    <i name="e_0_energy">    -72.94342136 </i>
   </energy>
  </scstep>
  <scstep>
   <time name="total">  178.08  178.78</time>
   <energy>
    <i name="e_fr_energy">    -72.94368330 </i>
    <i name="e_wo_entrp">    -72.94436816 </i>
    <i name="e_0_energy">    -72.94391158 </i>
   </energy>
  </scstep>
  <scstep>
   <time name="total">  176.83  178.03</time>
   <energy>
    <i name="e_fr_energy">    -72.94379181 </i>
    <i name="e_wo_entrp">    -72.94447751 </i>
    <i name="e_0_energy">    -72.94402038 </i>
   </energy>
  </scstep>
  <scstep>
   <time name="total">  176.65  177.72</time>
   <energy>
    <i name="e_fr_energy">    -72.94385013 </i>
    <i name="e_wo_entrp">    -72.94453604 </i>
    <i name="e_0_energy">    -72.94407877 </i>
   </energy>
  </scstep>
  <scstep>
   <time name="total">  176.65  177.90</time>
   <energy>
    <i name="e_fr_energy">    -72.94389206 </i>
    <i name="e_wo_entrp">    -72.94457777 </i>
    <i name="e_0_energy">    -72.94412063 </i>
   </energy>
  </scstep>
  <scstep>
   <time name="total">  176.22  177.27</time>
   <energy>
    <i name="e_fr_energy">    -72.94390971 </i>
    <i name="e_wo_entrp">    -72.94459514 </i>
    <i name="e_0_energy">    -72.94413819 </i>
   </energy>
  </scstep>
  <scstep>
   <time name="total">  176.74  178.00</time>
   <energy>
    <i name="alphaZ">    295.27106341 </i>
    <i name="ewald">  -8670.22773862 </i>
    <i name="hartreedc">  -8487.76209285 </i>
    <i name="XCdc">    197.08681849 </i>
    <i name="pawpsdc">  14045.57726957 </i>
    <i name="pawaedc"> -14362.55517700 </i>
    <i name="eentropy">      0.00068527 </i>
    <i name="bandstr">  -1726.77887902 </i>
    <i name="atom">  18291.93303151 </i>
    <i name="e_fr_energy">    -72.94391565 </i>
    <i name="e_wo_entrp">    -72.94460091 </i>
    <i name="e_0_energy">    -72.94414407 </i>
   </energy>
  </scstep>
  <structure>
   <crystal>
    <varray name="basis" >
     <v>       3.33484604      -5.76389331       0.00560946 </v>
     <v>       3.33484604       5.76389331       0.00560946 </v>
     <v>      -2.22497292       0.00000000       6.30288134 </v>
    </varray>
    <i name="volume">    242.44802537 </i>
    <varray name="rec_basis" >
     <v>       0.14984298      -0.08674692       0.05289590 </v>
     <v>       0.14984298       0.08674692       0.05289590 </v>
     <v>      -0.00026672       0.00000000       0.15856344 </v>
    </varray>
   </crystal>
   <varray name="positions" >
    <v>       0.61864199       0.11550270       0.12083086 </v>
    <v>       0.11550270       0.61864199       0.62083086 </v>
    <v>       0.96426468       0.79834635       0.12086441 </v>
    <v>       0.79834635       0.96426468       0.62086441 </v>
    <v>       0.44609343       0.26224055       0.60124219 </v>
    <v>       0.26224055       0.44609343       0.10124219 </v>
    <v>       0.06184227       0.89230662       0.48655391 </v>
    <v>       0.58826933       0.41522939       0.99492768 </v>
    <v>       0.75616327       0.24311899       0.48556911 </v>
    <v>       0.41522939       0.58826933       0.49492768 </v>
    <v>       0.89230662       0.06184227       0.98655391 </v>
    <v>       0.24311899       0.75616327       0.98556911 </v>
   </varray>
  </structure>
  <varray name="forces" >
   <v>       0.00282723       0.02449088       0.01153951 </v>
   <v>       0.00282723      -0.02449088       0.01153951 </v>
   <v>      -0.00009646      -0.00370407       0.00451800 </v>
   <v>      -0.00009646       0.00370407       0.00451800 </v>
   <v>       0.01891521       0.00100527       0.00305839 </v>
   <v>       0.01891521      -0.00100527       0.00305839 </v>
   <v>      -0.04085647      -0.00104090      -0.01125065 </v>
   <v>       0.00912080      -0.00185305      -0.00308891 </v>
   <v>       0.01008970      -0.00886154      -0.00477634 </v>
   <v>       0.00912080       0.00185305      -0.00308891 </v>
   <v>      -0.04085647       0.00104090      -0.01125065 </v>
   <v>       0.01008970       0.00886154      -0.00477634 </v>
  </varray>
  <varray name="stress" >
   <v>      -0.10011030       0.00000000      -0.12108244 </v>
   <v>       0.00000000       0.10729437       0.00000000 </v>
   <v>      -0.12108187       0.00000000      -0.42091427 </v>
  </varray>
  <energy>
   <i name="e_fr_energy">    -72.94391565 </i>
   <i name="e_wo_entrp">    -72.94414407 </i>
   <i name="e_0_energy">      0.00068527 </i>
  </energy>
  <time name="totalsc"> 2517.21 2534.91</time>
 </calculation>
 <calculation>
  <scstep>
   <time name="total">  177.21  178.41</time>
   <energy>
    <i name="alphaZ">    295.31971213 </i>
    <i name="ewald">  -8671.61308371 </i>
    <i name="hartreedc">  -8487.91815421 </i>
    <i name="XCdc">    197.10942495 </i>
    <i name="pawpsdc">  14046.92126756 </i>
    <i name="pawaedc"> -14364.05292654 </i>
    <i name="eentropy">      0.00069152 </i>
    <i name="bandstr">  -1725.10836060 </i>
    <i name="atom">  18291.93303151 </i>
    <i name="e_fr_energy">    -72.88054020 </i>
    <i name="e_wo_entrp">    -72.88123172 </i>
    <i name="e_0_energy">    -72.88077071 </i>
   </energy>
  </scstep>
  <scstep>
   <time name="total">  176.63  177.88</time>
   <energy>
    <i name="e_fr_energy">    -72.91554510 </i>
    <i name="e_wo_entrp">    -72.91623245 </i>
    <i name="e_0_energy">    -72.91577422 </i>
   </energy>
  </scstep>
  <scstep>
   <time name="total">  177.24  178.31</time>
   <energy>
    <i name="e_fr_energy">    -72.93702306 </i>
    <i name="e_wo_entrp">    -72.93770679 </i>
    <i name="e_0_energy">    -72.93725097 </i>
   </energy>
  </scstep>
  <scstep>
   <time name="total">  176.64  177.80</time>
   <energy>
    <i name="e_fr_energy">    -72.94166872 </i>
    <i name="e_wo_entrp">    -72.94235259 </i>
    <i name="e_0_energy">    -72.94189668 </i>
   </energy>
  </scstep>
  <scstep>
   <time name="total">  177.00  178.14</time>
   <energy>
    <i name="e_fr_energy">    -72.94320276 </i>
    <i name="e_wo_entrp">    -72.94388841 </i>
    <i name="e_0_energy">    -72.94343131 </i>
   </energy>
  </scstep>
  <scstep>
   <time name="total">  177.04  178.15</time>
   <energy>
    <i name="e_fr_energy">    -72.94353640 </i>
    <i name="e_wo_entrp">    -72.94422355 </i>
    <i name="e_0_energy">    -72.94376545 </i>
   </energy>
  </scstep>
  <scstep>
   <time name="total">  176.49  177.66</time>
   <energy>
    <i name="e_fr_energy">    -72.94370997 </i>
    <i name="e_wo_entrp">    -72.94439747 </i>
    <i name="e_0_energy">    -72.94393914 </i>
   </energy>
  </scstep>
  <scstep>
   <time name="total">  175.86  177.04</time>
   <energy>
    <i name="e_fr_energy">    -72.94383555 </i>
    <i name="e_wo_entrp">    -72.94452269 </i>
    <i name="e_0_energy">    -72.94406459 </i>
   </energy>
  </scstep>
  <scstep>
   <time name="total">  176.16  177.34</time>
   <energy>
    <i name="e_fr_energy">    -72.94388809 </i>
    <i name="e_wo_entrp">    -72.94457473 </i>
    <i name="e_0_energy">    -72.94411697 </i>
   </energy>
  </scstep>
  <scstep>
   <time name="total">  175.48  176.71</time>
   <energy>
    <i name="e_fr_energy">    -72.94390539 </i>
    <i name="e_wo_entrp">    -72.94459177 </i>
    <i name="e_0_energy">    -72.94413418 </i>
   </energy>
  </scstep>
  <scstep>
   <time name="total">  175.55  176.57</time>
   <energy>
    <i name="alphaZ">    295.31971213 </i>
    <i name="ewald">  -8671.61308371 </i>
    <i name="hartreedc">  -8486.56785270 </i>
    <i name="XCdc">    197.09099287 </i>
    <i name="pawpsdc">  14045.81489417 </i>
    <i name="pawaedc"> -14362.78856059 </i>
    <i name="eentropy">      0.00068639 </i>
    <i name="bandstr">  -1726.65098260 </i>
    <i name="atom">  18291.93303151 </i>
    <i name="e_fr_energy">    -72.94391220 </i>
    <i name="e_wo_entrp">    -72.94459859 </i>
    <i name="e_0_energy">    -72.94414099 </i>
   </energy>
  </scstep>
  <structure>
   <crystal>
    <varray name="basis" >
     <v>       3.33389977      -5.76444823       0.00635487 </v>
     <v>       3.33389977       5.76444823       0.00635487 </v>
     <v>      -2.22293216       0.00000000       6.30253035 </v>
    </varray>
    <i name="volume">    242.40808633 </i>
    <varray name="rec_basis" >
     <v>       0.14987375      -0.08673857       0.05286118 </v>
     <v>       0.14987375       0.08673857       0.05286118 </v>
     <v>      -0.00030224       0.00000000       0.15855983 </v>
    </varray>
   </crystal>
   <varray name="positions" >
    <v>       0.61860337       0.11590776       0.12107748 </v>
    <v>       0.11590776       0.61860337       0.62107748 </v>
    <v>       0.96466665       0.79862144       0.12117100 </v>
    <v>       0.79862144       0.96466665       0.62117100 </v>
    <v>       0.44602544       0.26189338       0.60099785 </v>
    <v>       0.26189338       0.44602544       0.10099785 </v>
    <v>       0.06159837       0.89191431       0.48655746 </v>
    <v>       0.58805549       0.41528508       0.99454219 </v>
    <v>       0.75614154       0.24330675       0.48564217 </v>
    <v>       0.41528508       0.58805549       0.49454219 </v>
    <v>       0.89191431       0.06159837       0.98655746 </v>
    <v>       0.24330675       0.75614154       0.98564217 </v>
   </varray>
  </structure>
  <varray name="forces" >
   <v>       0.00243983       0.01017081      -0.00060081 </v>
   <v>       0.00243983      -0.01017081      -0.00060081 </v>
   <v>      -0.01031208      -0.00004901      -0.00837882 </v>
   <v>      -0.01031208       0.00004901      -0.00837882 </v>
   <v>       0.00600743       0.02948856       0.01079432 </v>
   <v>       0.00600743      -0.02948856       0.01079432 </v>
   <v>      -0.02819663       0.00140251      -0.00189032 </v>
   <v>       0.00770458      -0.00333055       0.00996514 </v>
   <v>       0.02235688      -0.03707072      -0.00988951 </v>
   <v>       0.00770458       0.00333055       0.00996514 </v>
   <v>      -0.02819663      -0.00140251      -0.00189032 </v>
   <v>       0.02235688       0.03707072      -0.00988951 </v>
  </varray>
  <varray name="stress" >
   <v>       0.05398860       0.00000000      -0.33614750 </v>
   <v>       0.00000000       0.48107797       0.00000000 </v>
   <v>      -0.33614803       0.00000000      -0.01011078 </v>
  </varray>
  <energy>
   <i name="e_fr_energy">    -72.94391220 </i>
   <i name="e_wo_entrp">    -72.94414099 </i>
   <i name="e_0_energy">      0.00068639 </i>
  </energy>
  <time name="totalsc"> 2692.90 2710.78</time>
 </calculation>
 <calculation>
  <scstep>
   <time name="total">  177.08  178.30</time>
   <energy>
    <i name="alphaZ">    295.23476135 </i>
    <i name="ewald">  -8669.99618286 </i>
    <i name="hartreedc">  -8485.37397865 </i>
    <i name="XCdc">    197.04488807 </i>
    <i name="pawpsdc">  14043.63061733 </i>
    <i name="pawaedc"> -14360.28980361 </i>
    <i name="eentropy">      0.00068368 </i>
    <i name="bandstr">  -1729.60499191 </i>
    <i name="atom">  18291.93303151 </i>
    <i name="e_fr_energy">    -72.93877110 </i>
    <i name="e_wo_entrp">    -72.93945478 </i>
    <i name="e_0_energy">    -72.93899899 </i>
   </energy>
  </scstep>
  <scstep>
   <time name="total">  177.16  178.32</time>
   <energy>
    <i name="e_fr_energy">    -72.94246291 </i>
    <i name="e_wo_entrp">    -72.94314538 </i>
    <i name="e_0_energy">    -72.94269040 </i>
   </energy>
  </scstep>
  <scstep>
   <time name="total">  176.79  177.90</time>
   <energy>
    <i name="e_fr_energy">    -72.94355646 </i>
    <i name="e_wo_entrp">    -72.94423862 </i>
    <i name="e_0_energy">    -72.94378385 </i>
   </energy>
  </scstep>
  <scstep>
   <time name="total">  177.21  178.34</time>
   <energy>
    <i name="e_fr_energy">    -72.94389354 </i>
    <i name="e_wo_entrp">    -72.94457562 </i>
    <i name="e_0_energy">    -72.94412090 </i>
   </energy>
  </scstep>
  <scstep>
   <time name="total">  176.74  177.95</time>
   <energy>
    <i name="e_fr_energy">    -72.94407008 </i>
    <i name="e_wo_entrp">    -72.94475216 </i>
    <i name="e_0_energy">    -72.94429744 </i>
   </energy>
[...]
       <r>  -68.4735    1.0000 </r>
       <r>  -68.4586    1.0000 </r>
       <r>  -68.4586    1.0000 </r>
       <r>  -68.4480    1.0000 </r>
       <r>  -68.4480    1.0000 </r>
       <r>  -68.4322    1.0000 </r>
       <r>  -68.4322    1.0000 </r>
       <r>  -11.3002    1.0000 </r>
       <r>  -11.3002    1.0000 </r>
       <r>  -10.6193    1.0000 </r>
       <r>  -10.6193    1.0000 </r>
       <r>  -10.2532    1.0000 </r>
       <r>  -10.2532    1.0000 </r>
       <r>   -4.3025    1.0000 </r>
       <r>   -4.3025    1.0000 </r>
       <r>   -1.9484    1.0000 </r>
       <r>   -1.9484    1.0000 </r>
       <r>   -1.3593    1.0000 </r>
       <r>   -1.3593    1.0000 </r>
       <r>   -0.9139    1.0000 </r>
       <r>   -0.9139    1.0000 </r>
       <r>   -0.6623    1.0000 </r>
       <r>   -0.6623    1.0000 </r>
       <r>   -0.4380    1.0000 </r>
       <r>   -0.4380    1.0000 </r>
       <r>   -0.2193    1.0000 </r>
       <r>   -0.2193    1.0000 </r>
       <r>   -0.1127    1.0000 </r>
       <r>   -0.1127    1.0000 </r>
       <r>   -0.0187    1.0000 </r>
       <r>   -0.0187    1.0000 </r>
       <r>    1.3738    1.0000 </r>
       <r>    1.3738    1.0000 </r>
       <r>    1.4071    1.0000 </r>
       <r>    1.4071    1.0000 </r>
       <r>    1.5082    1.0000 </r>
       <r>    1.5082    1.0000 </r>
       <r>    1.5682    1.0000 </r>
       <r>    1.5682    1.0000 </r>
       <r>    1.9800    1.0000 </r>
       <r>    1.9800    1.0000 </r>
       <r>    2.1809    1.0000 </r>
       <r>    2.1809    1.0000 </r>
       <r>    2.4196    1.0000 </r>
       <r>    2.4196    1.0000 </r>
       <r>    2.6174    1.0000 </r>
       <r>    2.6174    1.0000 </r>
       <r>    2.7851    1.0000 </r>
       <r>    2.7851    1.0000 </r>
       <r>    3.1664    1.0000 </r>
       <r>    3.1664    1.0000 </r>
       <r>    6.4450   -0.0000 </r>
       <r>    6.4450   -0.0000 </r>
       <r>    7.6477    0.0000 </r>
       <r>    7.6477    0.0000 </r>
       <r>    8.3361    0.0000 </r>
       <r>    8.3361    0.0000 </r>
       <r>    9.2724    0.0000 </r>
       <r>    9.2724    0.0000 </r>
       <r>   10.1560    0.0000 </r>
       <r>   10.1560    0.0000 </r>
       <r>   10.4690    0.0000 </r>
       <r>   10.4690    0.0000 </r>
       <r>   10.7723    0.0000 </r>
       <r>   10.7723    0.0000 </r>
       <r>   11.5578    0.0000 </r>
       <r>   11.5578    0.0000 </r>
       <r>   12.0379    0.0000 </r>
       <r>   12.0379    0.0000 </r>
       <r>   12.3580    0.0000 </r>
       <r>   12.3580    0.0000 </r>
       <r>   13.0783    0.0000 </r>
       <r>   13.0783    0.0000 </r>
       <r>   13.5401    0.0000 </r>
       <r>   13.5401    0.0000 </r>
       <r>   14.1563    0.0000 </r>
       <r>   14.1563    0.0000 </r>
       <r>   15.3668    0.0000 </r>
       <r>   15.3668    0.0000 </r>
       <r>   15.7539    0.0000 </r>
       <r>   15.7539    0.0000 </r>
       <r>   16.8860    0.0000 </r>
       <r>   16.8860    0.0000 </r>
       <r>   17.5686    0.0000 </r>
       <r>   17.5686    0.0000 </r>
       <r>   17.6514    0.0000 </r>
       <r>   17.6514    0.0000 </r>
       <r>   18.2939    0.0000 </r>
       <r>   18.2974    0.0000 </r>
       <r>   18.7401    0.0000 </r>
       <r>   18.8174    0.0000 </r>
      </set>
     </set>
    </set>
   </array>
  </eigenvalues>
  <separator name="orbital magnetization" >
   <v name="MAGDIPOLOUT">      0.00000000      0.00000000      0.00000000</v>
  </separator>
  <dos>
   <i name="efermi">      4.19315713 </i>
   <total>
    <array>
     <dimension dim="1">gridpoints</dimension>
     <dimension dim="2">spin</dimension>
     <field>energy</field>
     <field>total</field>
     <field>integrated</field>
     <set>
      <set comment="spin 1">
       <r>   -72.9066     0.0000     0.0000 </r>
       <r>   -72.5824     0.0000     0.0000 </r>
       <r>   -72.2581     0.0000     0.0000 </r>
       <r>   -71.9338     0.0000     0.0000 </r>
       <r>   -71.6096     0.0000     0.0000 </r>
       <r>   -71.2853     0.0000     0.0000 </r>
       <r>   -70.9611     0.0000     0.0000 </r>
       <r>   -70.6368     0.0000     0.0000 </r>
       <r>   -70.3126     0.0000     0.0000 </r>
       <r>   -69.9883     0.0000     0.0000 </r>
       <r>   -69.6641     0.0000     0.0000 </r>
       <r>   -69.3398    -0.0000    -0.0000 </r>
       <r>   -69.0155    -0.0000    -0.0000 </r>
       <r>   -68.6913    -0.3674    -0.1191 </r>
       <r>   -68.3670    74.9873    24.1959 </r>
       <r>   -68.0428    -0.6041    24.0000 </r>
       <r>   -67.7185    -0.0000    24.0000 </r>
       <r>   -67.3943     0.0000    24.0000 </r>
       <r>   -67.0700     0.0000    24.0000 </r>
       <r>   -66.7458     0.0000    24.0000 </r>
       <r>   -66.4215     0.0000    24.0000 </r>
       <r>   -66.0972     0.0000    24.0000 </r>
       <r>   -65.7730     0.0000    24.0000 </r>
       <r>   -65.4487     0.0000    24.0000 </r>
       <r>   -65.1245     0.0000    24.0000 </r>
       <r>   -64.8002     0.0000    24.0000 </r>
       <r>   -64.4760     0.0000    24.0000 </r>
       <r>   -64.1517     0.0000    24.0000 </r>
       <r>   -63.8275     0.0000    24.0000 </r>
       <r>   -63.5032     0.0000    24.0000 </r>
       <r>   -63.1790     0.0000    24.0000 </r>
       <r>   -62.8547     0.0000    24.0000 </r>
       <r>   -62.5304     0.0000    24.0000 </r>
       <r>   -62.2062     0.0000    24.0000 </r>
       <r>   -61.8819     0.0000    24.0000 </r>
       <r>   -61.5577     0.0000    24.0000 </r>
       <r>   -61.2334     0.0000    24.0000 </r>
       <r>   -60.9092     0.0000    24.0000 </r>
       <r>   -60.5849     0.0000    24.0000 </r>
       <r>   -60.2607     0.0000    24.0000 </r>
       <r>   -59.9364     0.0000    24.0000 </r>
       <r>   -59.6121     0.0000    24.0000 </r>
       <r>   -59.2879     0.0000    24.0000 </r>
       <r>   -58.9636     0.0000    24.0000 </r>
       <r>   -58.6394     0.0000    24.0000 </r>
       <r>   -58.3151     0.0000    24.0000 </r>
       <r>   -57.9909     0.0000    24.0000 </r>
       <r>   -57.6666     0.0000    24.0000 </r>
       <r>   -57.3424     0.0000    24.0000 </r>
       <r>   -57.0181     0.0000    24.0000 </r>
       <r>   -56.6938     0.0000    24.0000 </r>
       <r>   -56.3696     0.0000    24.0000 </r>
       <r>   -56.0453     0.0000    24.0000 </r>
       <r>   -55.7211     0.0000    24.0000 </r>
       <r>   -55.3968     0.0000    24.0000 </r>
       <r>   -55.0726     0.0000    24.0000 </r>
       <r>   -54.7483     0.0000    24.0000 </r>
       <r>   -54.4241     0.0000    24.0000 </r>
       <r>   -54.0998     0.0000    24.0000 </r>
       <r>   -53.7756     0.0000    24.0000 </r>
       <r>   -53.4513     0.0000    24.0000 </r>
       <r>   -53.1270     0.0000    24.0000 </r>
       <r>   -52.8028     0.0000    24.0000 </r>
       <r>   -52.4785     0.0000    24.0000 </r>
       <r>   -52.1543     0.0000    24.0000 </r>
       <r>   -51.8300     0.0000    24.0000 </r>
       <r>   -51.5058     0.0000    24.0000 </r>
       <r>   -51.1815     0.0000    24.0000 </r>
       <r>   -50.8573     0.0000    24.0000 </r>
       <r>   -50.5330     0.0000    24.0000 </r>
       <r>   -50.2087     0.0000    24.0000 </r>
       <r>   -49.8845     0.0000    24.0000 </r>
       <r>   -49.5602     0.0000    24.0000 </r>
       <r>   -49.2360     0.0000    24.0000 </r>
       <r>   -48.9117     0.0000    24.0000 </r>
       <r>   -48.5875     0.0000    24.0000 </r>
       <r>   -48.2632     0.0000    24.0000 </r>
       <r>   -47.9390     0.0000    24.0000 </r>
       <r>   -47.6147     0.0000    24.0000 </r>
       <r>   -47.2904     0.0000    24.0000 </r>
       <r>   -46.9662     0.0000    24.0000 </r>
       <r>   -46.6419     0.0000    24.0000 </r>
       <r>   -46.3177     0.0000    24.0000 </r>
       <r>   -45.9934     0.0000    24.0000 </r>
       <r>   -45.6692     0.0000    24.0000 </r>
       <r>   -45.3449     0.0000    24.0000 </r>
       <r>   -45.0207     0.0000    24.0000 </r>
       <r>   -44.6964     0.0000    24.0000 </r>
       <r>   -44.3721     0.0000    24.0000 </r>
       <r>   -44.0479     0.0000    24.0000 </r>
       <r>   -43.7236     0.0000    24.0000 </r>
       <r>   -43.3994     0.0000    24.0000 </r>
       <r>   -43.0751     0.0000    24.0000 </r>
       <r>   -42.7509     0.0000    24.0000 </r>
       <r>   -42.4266     0.0000    24.0000 </r>
       <r>   -42.1024     0.0000    24.0000 </r>
       <r>   -41.7781     0.0000    24.0000 </r>
       <r>   -41.4539     0.0000    24.0000 </r>
       <r>   -41.1296     0.0000    24.0000 </r>
       <r>   -40.8053     0.0000    24.0000 </r>
       <r>   -40.4811     0.0000    24.0000 </r>
       <r>   -40.1568     0.0000    24.0000 </r>
       <r>   -39.8326     0.0000    24.0000 </r>
       <r>   -39.5083     0.0000    24.0000 </r>
       <r>   -39.1841     0.0000    24.0000 </r>
       <r>   -38.8598     0.0000    24.0000 </r>
       <r>   -38.5356     0.0000    24.0000 </r>
       <r>   -38.2113     0.0000    24.0000 </r>
       <r>   -37.8870     0.0000    24.0000 </r>
       <r>   -37.5628     0.0000    24.0000 </r>
       <r>   -37.2385     0.0000    24.0000 </r>
       <r>   -36.9143     0.0000    24.0000 </r>
       <r>   -36.5900     0.0000    24.0000 </r>
       <r>   -36.2658     0.0000    24.0000 </r>
       <r>   -35.9415     0.0000    24.0000 </r>
       <r>   -35.6173     0.0000    24.0000 </r>
       <r>   -35.2930     0.0000    24.0000 </r>
       <r>   -34.9687     0.0000    24.0000 </r>
       <r>   -34.6445     0.0000    24.0000 </r>
       <r>   -34.3202     0.0000    24.0000 </r>
       <r>   -33.9960     0.0000    24.0000 </r>
       <r>   -33.6717     0.0000    24.0000 </r>
       <r>   -33.3475     0.0000    24.0000 </r>
       <r>   -33.0232     0.0000    24.0000 </r>
       <r>   -32.6990     0.0000    24.0000 </r>
       <r>   -32.3747     0.0000    24.0000 </r>
       <r>   -32.0504     0.0000    24.0000 </r>
       <r>   -31.7262     0.0000    24.0000 </r>
       <r>   -31.4019     0.0000    24.0000 </r>
       <r>   -31.0777     0.0000    24.0000 </r>
       <r>   -30.7534     0.0000    24.0000 </r>
       <r>   -30.4292     0.0000    24.0000 </r>
       <r>   -30.1049     0.0000    24.0000 </r>
       <r>   -29.7807     0.0000    24.0000 </r>
       <r>   -29.4564     0.0000    24.0000 </r>
       <r>   -29.1322     0.0000    24.0000 </r>
       <r>   -28.8079     0.0000    24.0000 </r>
       <r>   -28.4836     0.0000    24.0000 </r>
       <r>   -28.1594     0.0000    24.0000 </r>
       <r>   -27.8351     0.0000    24.0000 </r>
       <r>   -27.5109     0.0000    24.0000 </r>
       <r>   -27.1866     0.0000    24.0000 </r>
       <r>   -26.8624     0.0000    24.0000 </r>
       <r>   -26.5381     0.0000    24.0000 </r>
       <r>   -26.2139     0.0000    24.0000 </r>
       <r>   -25.8896     0.0000    24.0000 </r>
       <r>   -25.5653     0.0000    24.0000 </r>
       <r>   -25.2411     0.0000    24.0000 </r>
       <r>   -24.9168     0.0000    24.0000 </r>
       <r>   -24.5926     0.0000    24.0000 </r>
       <r>   -24.2683     0.0000    24.0000 </r>
       <r>   -23.9441     0.0000    24.0000 </r>
       <r>   -23.6198     0.0000    24.0000 </r>
       <r>   -23.2956     0.0000    24.0000 </r>
       <r>   -22.9713     0.0000    24.0000 </r>
       <r>   -22.6470     0.0000    24.0000 </r>
       <r>   -22.3228     0.0000    24.0000 </r>
       <r>   -21.9985     0.0000    24.0000 </r>
       <r>   -21.6743     0.0000    24.0000 </r>
       <r>   -21.3500     0.0000    24.0000 </r>
       <r>   -21.0258     0.0000    24.0000 </r>
       <r>   -20.7015     0.0000    24.0000 </r>
       <r>   -20.3773     0.0000    24.0000 </r>
       <r>   -20.0530     0.0000    24.0000 </r>
       <r>   -19.7287     0.0000    24.0000 </r>
       <r>   -19.4045     0.0000    24.0000 </r>
       <r>   -19.0802     0.0000    24.0000 </r>
       <r>   -18.7560     0.0000    24.0000 </r>
       <r>   -18.4317     0.0000    24.0000 </r>
       <r>   -18.1075     0.0000    24.0000 </r>
       <r>   -17.7832     0.0000    24.0000 </r>
       <r>   -17.4590     0.0000    24.0000 </r>
       <r>   -17.1347     0.0000    24.0000 </r>
       <r>   -16.8105     0.0000    24.0000 </r>
       <r>   -16.4862     0.0000    24.0000 </r>
       <r>   -16.1619     0.0000    24.0000 </r>
       <r>   -15.8377     0.0000    24.0000 </r>
       <r>   -15.5134     0.0000    24.0000 </r>
       <r>   -15.1892     0.0000    24.0000 </r>
       <r>   -14.8649     0.0000    24.0000 </r>
       <r>   -14.5407     0.0000    24.0000 </r>
       <r>   -14.2164     0.0000    24.0000 </r>
       <r>   -13.8922     0.0000    24.0000 </r>
       <r>   -13.5679     0.0000    24.0000 </r>
       <r>   -13.2436     0.0000    24.0000 </r>
       <r>   -12.9194    -0.0000    24.0000 </r>
       <r>   -12.5951    -0.0000    24.0000 </r>
       <r>   -12.2709    -0.0001    24.0000 </r>
       <r>   -11.9466     0.2196    24.0712 </r>
       <r>   -11.6224     3.2221    25.1159 </r>
       <r>   -11.2981     3.4300    26.2282 </r>
       <r>   -10.9739     3.2779    27.2910 </r>
       <r>   -10.6496     4.6961    28.8138 </r>
       <r>   -10.3253    11.3453    32.4926 </r>
       <r>   -10.0011    10.9462    36.0419 </r>
       <r>    -9.6768    -0.1293    36.0000 </r>
       <r>    -9.3526    -0.0000    36.0000 </r>
       <r>    -9.0283     0.0000    36.0000 </r>
       <r>    -8.7041     0.0000    36.0000 </r>
       <r>    -8.3798     0.0000    36.0000 </r>
       <r>    -8.0556     0.0000    36.0000 </r>
       <r>    -7.7313     0.0000    36.0000 </r>
       <r>    -7.4070     0.0000    36.0000 </r>
       <r>    -7.0828     0.0000    36.0000 </r>
       <r>    -6.7585     0.0000    36.0000 </r>
       <r>    -6.4343     0.0000    36.0000 </r>
       <r>    -6.1100     0.0000    36.0000 </r>
       <r>    -5.7858    -0.0000    36.0000 </r>
       <r>    -5.4615    -0.0000    36.0000 </r>
       <r>    -5.1373    -0.0003    35.9999 </r>
       <r>    -4.8130     0.7256    36.2352 </r>
       <r>    -4.4888     4.0115    37.5359 </r>
       <r>    -4.1645     3.8377    38.7803 </r>
       <r>    -3.8402     3.6378    39.9599 </r>
       <r>    -3.5160     0.1237    40.0000 </r>
       <r>    -3.1917    -0.0000    40.0000 </r>
       <r>    -2.8675    -0.0000    40.0000 </r>
       <r>    -2.5432    -0.0009    39.9997 </r>
       <r>    -2.2190     1.1552    40.3743 </r>
       <r>    -1.8947     6.9117    42.6154 </r>
       <r>    -1.5705     9.2033    45.5997 </r>
       <r>    -1.2462     6.2724    47.6335 </r>
       <r>    -0.9219     9.0935    50.5821 </r>
       <r>    -0.5977    10.9558    54.1346 </r>
       <r>    -0.2734    18.2336    60.0469 </r>
       <r>     0.0508    33.6081    70.9445 </r>
       <r>     0.3751     3.2577    72.0008 </r>
       <r>     0.6993    -0.0026    72.0000 </r>
       <r>     1.0236    -0.0022    71.9993 </r>
       <r>     1.3478     5.4998    73.7826 </r>
       <r>     1.6721    44.1763    88.1070 </r>
       <r>     1.9964    14.0541    92.6641 </r>
       <r>     2.3206    14.6063    97.4003 </r>
       <r>     2.6449    13.1093   101.6511 </r>
       <r>     2.9691    11.4388   105.3602 </r>
       <r>     3.2934     8.4612   108.1038 </r>
       <r>     3.6176     6.4179   110.1848 </r>
       <r>     3.9419     4.9820   111.8002 </r>
       <r>     4.2661     0.6214   112.0017 </r>
       <r>     4.5904    -0.0053   112.0000 </r>
       <r>     4.9147     0.0164   112.0053 </r>
       <r>     5.2389     0.0452   112.0200 </r>
       <r>     5.5632     0.1772   112.0774 </r>
       <r>     5.8874     2.1704   112.7812 </r>
       <r>     6.2117     3.9280   114.0549 </r>
       <r>     6.5359     4.5311   115.5241 </r>
       <r>     6.8602     1.7537   116.0928 </r>
       <r>     7.1844     1.2852   116.5095 </r>
       <r>     7.5087     3.4031   117.6130 </r>
       <r>     7.8329     4.4381   119.0521 </r>
       <r>     8.1572     5.8101   120.9360 </r>
       <r>     8.4815     4.7329   122.4707 </r>
       <r>     8.8057     4.8032   124.0281 </r>
       <r>     9.1300     4.8332   125.5953 </r>
       <r>     9.4542     5.3483   127.3295 </r>
       <r>     9.7785     5.0566   128.9692 </r>
       <r>    10.1027     4.9931   130.5882 </r>
       <r>    10.4270     8.1940   133.2452 </r>
       <r>    10.7512     8.0507   135.8556 </r>
       <r>    11.0755     6.7351   138.0395 </r>
       <r>    11.3998     9.4540   141.1050 </r>
       <r>    11.7240     7.0633   143.3954 </r>
       <r>    12.0483     8.2184   146.0602 </r>
       <r>    12.3725     6.2699   148.0933 </r>
       <r>    12.6968     7.2789   150.4535 </r>
       <r>    13.0210     6.9291   152.7003 </r>
       <r>    13.3453     7.8338   155.2404 </r>
       <r>    13.6695     6.1537   157.2358 </r>
       <r>    13.9938     5.2281   158.9310 </r>
       <r>    14.3181     6.0551   160.8944 </r>
       <r>    14.6423     5.4484   162.6611 </r>
       <r>    14.9666     6.5156   164.7738 </r>
       <r>    15.2908     6.7152   166.9512 </r>
       <r>    15.6151     6.3735   169.0179 </r>
       <r>    15.9393     7.5342   171.4609 </r>
       <r>    16.2636     7.7709   173.9806 </r>
       <r>    16.5878     5.6231   175.8039 </r>
       <r>    16.9121     6.9922   178.0712 </r>
       <r>    17.2363     7.4049   180.4722 </r>
       <r>    17.5606     8.7607   183.3130 </r>
       <r>    17.8849     8.4720   186.0600 </r>
       <r>    18.2091     7.8627   188.6096 </r>
       <r>    18.5334     4.9865   190.2265 </r>
       <r>    18.8576     3.2166   191.2695 </r>
       <r>    19.1819     1.8511   191.8697 </r>
       <r>    19.5061     0.4061   192.0014 </r>
       <r>    19.8304    -0.0043   192.0000 </r>
       <r>    20.1546     0.0000   192.0000 </r>
       <r>    20.4789     0.0000   192.0000 </r>
       <r>    20.8032     0.0000   192.0000 </r>
       <r>    21.1274     0.0000   192.0000 </r>
       <r>    21.4517     0.0000   192.0000 </r>
       <r>    21.7759     0.0000   192.0000 </r>
       <r>    22.1002     0.0000   192.0000 </r>
       <r>    22.4244     0.0000   192.0000 </r>
       <r>    22.7487     0.0000   192.0000 </r>
       <r>    23.0729     0.0000   192.0000 </r>
       <r>    23.3972     0.0000   192.0000 </r>
       <r>    23.7215     0.0000   192.0000 </r>
       <r>    24.0457     0.0000   192.0000 </r>
       <r>    24.3700     0.0000   192.0000 </r>
      </set>
     </set>
    </array>
   </total>
  </dos>
 </calculation>
 <structure name="finalpos" >
  <crystal>
   <varray name="basis" >
    <v>       3.33288503      -5.76477870       0.00538691 </v>
    <v>       3.33288503       5.76477870       0.00538691 </v>
    <v>      -2.22408501       0.00000000       6.30254375 </v>
   </varray>
   <i name="volume">    242.32402581 </i>
   <varray name="rec_basis" >
    <v>       0.14993466      -0.08673360       0.05290997 </v>
    <v>       0.14993466       0.08673360       0.05290997 </v>
    <v>      -0.00025630       0.00000000       0.15857565 </v>
   </varray>
  </crystal>
  <varray name="positions" >
   <v>       0.61855843       0.11606556       0.12107449 </v>
   <v>       0.11606556       0.61855843       0.62107449 </v>
   <v>       0.96442133       0.79840574       0.12101404 </v>
   <v>       0.79840574       0.96442133       0.62101404 </v>
   <v>       0.44604770       0.26213298       0.60104595 </v>
   <v>       0.26213298       0.44604770       0.10104595 </v>
   <v>       0.06133491       0.89165594       0.48656274 </v>
   <v>       0.58824129       0.41540939       0.99469152 </v>
   <v>       0.75645486       0.24329146       0.48559942 </v>
   <v>       0.41540939       0.58824129       0.49469152 </v>
   <v>       0.89165594       0.06133491       0.98656274 </v>
   <v>       0.24329146       0.75645486       0.98559942 </v>
  </varray>
 </structure>
</modeling>
