 vasp.5.3.3 18Dez12 (build Nov 13 2015 09:58:40) complex                        
  
 executed on             LinuxIFC date 2017.10.18  13:17:39
 running on   48 total cores
 distrk:  each k-point on   16 cores,    3 groups
 distr:  one band on NCORES_PER_BAND=   1 cores,   16 groups


--------------------------------------------------------------------------------------------------------


 INCAR:
 POTCAR:    PAW_PBE Cu_pv 06Sep2000               
 POTCAR:    PAW_PBE Ge 05Jan2001                  
 POTCAR:    PAW_PBE S 17Jan2003                   

 ----------------------------------------------------------------------------- 
|                                                                             |
|           W    W    AA    RRRRR   N    N  II  N    N   GGGG   !!!           |
|           W    W   A  A   R    R  NN   N  II  NN   N  G    G  !!!           |
|           W    W  A    A  R    R  N N  N  II  N N  N  G       !!!           |
|           W WW W  AAAAAA  RRRRR   N  N N  II  N  N N  G  GGG   !            |
|           WW  WW  A    A  R   R   N   NN  II  N   NN  G    G                |
|           W    W  A    A  R    R  N    N  II  N    N   GGGG   !!!           |
|                                                                             |
|      For optimal performance we recommend that you set                      |
|        NPAR = 4 - approx SQRT( number of cores)                             |
|      (number of cores/NPAR must be integer)                                 |
|      This setting will greatly improve the performance of VASP for DFT.     |
|      The default NPAR=number of cores might be grossly inefficient          |
|      on modern multi-core architectures or massively parallel machines.     |
|      Do your own testing.                                                   |
|      Unfortunately you need to use the default for hybrid, GW and RPA       |
|      calculations.                                                          |
|                                                                             |
 ----------------------------------------------------------------------------- 


 ----------------------------------------------------------------------------- 
|                                                                             |
|           W    W    AA    RRRRR   N    N  II  N    N   GGGG   !!!           |
|           W    W   A  A   R    R  NN   N  II  NN   N  G    G  !!!           |
|           W    W  A    A  R    R  N N  N  II  N N  N  G       !!!           |
|           W WW W  AAAAAA  RRRRR   N  N N  II  N  N N  G  GGG   !            |
|           WW  WW  A    A  R   R   N   NN  II  N   NN  G    G                |
|           W    W  A    A  R    R  N    N  II  N    N   GGGG   !!!           |
|                                                                             |
|      You have enabled k-point parallelism (KPAR>1).                         |
|      This developmental code was originally  written by Paul Kent at ORNL,  |
|      and carefully double checked in Vienna.                                |
|      GW as well as linear response parallelism added by Martijn Marsman     |
|      and Georg Kresse.                                                      |
|      Carefully verify results versus KPAR=1.                                |
|      Report problems to Paul Kent and Vienna.                               |
|                                                                             |
 ----------------------------------------------------------------------------- 

 POTCAR:    PAW_PBE Cu_pv 06Sep2000               
   VRHFIN =Cu: d10 p1                                                           
   LEXCH  = PE                                                                  
   EATOM  =  4120.1201 eV,  302.8203 Ry                                         
                                                                                
   TITEL  = PAW_PBE Cu_pv 06Sep2000                                             
   LULTRA =        F    use ultrasoft PP ?                                      
   IUNSCR =        1    unscreen: 0-lin 1-nonlin 2-no                           
   RPACOR =    1.500    partial core radius                                     
   POMASS =   63.546; ZVAL   =   17.000    mass and valenz                      
   RCORE  =    2.000    outmost cutoff radius                                   
   RWIGS  =    2.000; RWIGS  =    1.058    wigner-seitz radius (au A)           
   ENMAX  =  368.648; ENMIN  =  276.486 eV                                      
   RCLOC  =    1.304    cutoff for local pot                                    
   LCOR   =        T    correct aug charges                                     
   LPAW   =        T    paw PP                                                  
   EAUG   =  758.233                                                            
   DEXC   =    0.000                                                            
   RMAX   =    2.046    core radius for proj-oper                               
   RAUG   =    1.300    factor for augmentation sphere                          
   RDEP   =    2.025    radius for radial grids                                 
   RDEPT  =    1.558    core radius for aug-charge                              
                                                                                
   Atomic configuration                                                         
    8 entries                                                                   
     n  l   j            E        occ.                                          
     1  0  0.50     -8850.2467   2.0000                                         
     2  0  0.50     -1062.3498   2.0000                                         
     2  1  1.50      -916.8226   6.0000                                         
     3  0  0.50      -114.6929   2.0000                                         
     3  1  1.50       -72.1325   6.0000                                         
     3  2  2.50        -5.0394  10.0000                                         
     4  0  0.50        -4.6097   1.0000                                         
     4  3  2.50        -1.3606   0.0000                                         
   Description                                                                  
     l       E           TYP  RCUT    TYP  RCUT                                 
     1    -72.1324777     23  1.700                                             
     1     -1.3605826     23  1.700                                             
     2     -5.0393776     23  2.000                                             
     2     -6.3999602     23  2.000                                             
     0     -4.6097062     23  1.800                                             
     0     14.1620818     23  1.800                                             
  local pseudopotential read in
  partial core-charges read in
  partial kinetic energy density read in
  atomic valenz-charges read in
  non local Contribution for L=           1  read in
    real space projection operators read in
  non local Contribution for L=           1  read in
    real space projection operators read in
  non local Contribution for L=           2  read in
    real space projection operators read in
  non local Contribution for L=           2  read in
    real space projection operators read in
  non local Contribution for L=           0  read in
    real space projection operators read in
  non local Contribution for L=           0  read in
    real space projection operators read in
    PAW grid and wavefunctions read in
 
   number of l-projection  operators is LMAX  =           6
   number of lm-projection operators is LMMAX =          18
 
 POTCAR:    PAW_PBE Ge 05Jan2001                  
   VRHFIN =Ge: s2p2                                                             
   LEXCH  = PE                                                                  
   EATOM  =   104.9960 eV,    7.7170 Ry                                         
                                                                                
   TITEL  = PAW_PBE Ge 05Jan2001                                                
   LULTRA =        F    use ultrasoft PP ?                                      
   IUNSCR =        1    unscreen: 0-lin 1-nonlin 2-no                           
   RPACOR =    2.170    partial core radius                                     
   POMASS =   72.610; ZVAL   =    4.000    mass and valenz                      
   RCORE  =    2.300    outmost cutoff radius                                   
   RWIGS  =    2.300; RWIGS  =    1.217    wigner-seitz radius (au A)           
   ENMAX  =  173.807; ENMIN  =  130.355 eV                                      
   ICORE  =        3    local potential                                         
   LCOR   =        T    correct aug charges                                     
   LPAW   =        T    paw PP                                                  
   EAUG   =  385.843                                                            
   DEXC   =    0.000                                                            
   RMAX   =    2.342    core radius for proj-oper                               
   RAUG   =    1.300    factor for augmentation sphere                          
   RDEP   =    2.318    radius for radial grids                                 
   RDEPT  =    2.103    core radius for aug-charge                              
                                                                                
   Atomic configuration                                                         
   10 entries                                                                   
     n  l   j            E        occ.                                          
     1  0  0.50    -10959.8463   2.0000                                         
     2  0  0.50     -1371.6056   2.0000                                         
     2  1  1.50     -1198.4791   6.0000                                         
     3  0  0.50      -168.4733   2.0000                                         
     3  1  1.50      -115.6019   6.0000                                         
     3  2  2.50       -29.3106  10.0000                                         
     4  0  0.50       -11.7309   2.0000                                         
     4  1  0.50        -3.8952   2.0000                                         
     4  2  1.50        -4.0817   0.0000                                         
     4  3  2.50        -4.0817   0.0000                                         
   Description                                                                  
     l       E           TYP  RCUT    TYP  RCUT                                 
     0    -11.7309493     23  2.300                                             
     0     -7.4578696     23  2.300                                             
     1     -3.8952261     23  2.300                                             
     1      6.1178114     23  2.300                                             
     2     -4.0817478     23  2.300                                             
     3     -1.3605826      7  2.300                                             
  local pseudopotential read in
  partial core-charges read in
  partial kinetic energy density read in
  atomic valenz-charges read in
  non local Contribution for L=           0  read in
    real space projection operators read in
  non local Contribution for L=           0  read in
    real space projection operators read in
  non local Contribution for L=           1  read in
    real space projection operators read in
  non local Contribution for L=           1  read in
    real space projection operators read in
  non local Contribution for L=           2  read in
    real space projection operators read in
    PAW grid and wavefunctions read in
 
   number of l-projection  operators is LMAX  =           5
   number of lm-projection operators is LMMAX =          13
 
 POTCAR:    PAW_PBE S 17Jan2003                   
   VRHFIN =S : s2p4                                                             
   LEXCH  = PE                                                                  
   EATOM  =   276.8230 eV,   20.3459 Ry                                         
                                                                                
   TITEL  = PAW_PBE S 17Jan2003                                                 
   LULTRA =        F    use ultrasoft PP ?                                      
   IUNSCR =        1    unscreen: 0-lin 1-nonlin 2-no                           
   RPACOR =    1.500    partial core radius                                     
   POMASS =   32.066; ZVAL   =    6.000    mass and valenz                      
   RCORE  =    1.900    outmost cutoff radius                                   
   RWIGS  =    2.200; RWIGS  =    1.164    wigner-seitz radius (au A)           
   ENMAX  =  280.000; ENMIN  =  194.016 eV                                      
   ICORE  =        2    local potential                                         
   LCOR   =        T    correct aug charges                                     
   LPAW   =        T    paw PP                                                  
   EAUG   =  335.092                                                            
   DEXC   =     .000                                                            
   RMAX   =    2.867    core radius for proj-oper                               
   RAUG   =    1.300    factor for augmentation sphere                          
   RDEP   =    1.954    radius for radial grids                                 
   QCUT   =   -4.360; QGAM   =    8.721    optimization parameters              
                                                                                
   Description                                                                  
     l     E      TYP  RCUT    TYP  RCUT                                        
     0   .000     23  1.900                                                     
     0   .000     23  1.900                                                     
     1   .000     23  1.900                                                     
     1   .000     23  1.900                                                     
     2   .000     23  1.900                                                     
  local pseudopotential read in
  partial core-charges read in
  atomic valenz-charges read in
  non local Contribution for L=           0  read in
    real space projection operators read in
  non local Contribution for L=           0  read in
    real space projection operators read in
  non local Contribution for L=           1  read in
    real space projection operators read in
  non local Contribution for L=           1  read in
    real space projection operators read in
    PAW grid and wavefunctions read in
 
   number of l-projection  operators is LMAX  =           4
   number of lm-projection operators is LMMAX =           8
 
  PAW_PBE Cu_pv 06Sep2000               :
 energy of atom  1       EATOM=-4120.1201
 kinetic energy error for atom=    0.0996 (will be added to EATOM!!)
  PAW_PBE Ge 05Jan2001                  :
 energy of atom  2       EATOM= -104.9960
 kinetic energy error for atom=    0.0003 (will be added to EATOM!!)
  PAW_PBE S 17Jan2003                   :
 energy of atom  3       EATOM= -276.8230
 kinetic energy error for atom=    0.0046 (will be added to EATOM!!)
 
 
 POSCAR: Cu Ge S                                 
  positions in direct lattice
  No initial velocities read in
 exchange correlation table for  LEXCH =        8
   RHO(1)=    0.500       N(1)  =     2000
   RHO(2)=  100.500       N(2)  =     4000
 


--------------------------------------------------------------------------------------------------------


 ion  position               nearest neighbor table
   1  0.618  0.121  0.120-   9 2.29  11 2.29  12 2.30   8 2.35
   2  0.121  0.618  0.620-  12 2.29   7 2.29   9 2.30  10 2.35
   3  0.963  0.790  0.119-  11 2.30  12 2.30   7 2.31   8 2.36
   4  0.790  0.963  0.619-   7 2.30   9 2.30  11 2.31  10 2.36
   5  0.440  0.267  0.599-   7 2.19   9 2.19  10 2.31   8 2.32
   6  0.267  0.440  0.099-  11 2.19  12 2.19   8 2.31  10 2.33
   7  0.079  0.912  0.497-   5 2.19   2 2.29   4 2.30   3 2.31
   8  0.571  0.412  0.979-   6 2.31   5 2.32   1 2.35   3 2.36
   9  0.737  0.250  0.495-   5 2.19   1 2.29   4 2.30   2 2.30
  10  0.412  0.571  0.480-   5 2.31   6 2.33   2 2.35   4 2.36
  11  0.912  0.079  0.997-   6 2.19   1 2.29   3 2.30   4 2.31
  12  0.250  0.737  0.995-   6 2.19   2 2.29   3 2.30   1 2.30
 
  Warning from LATTYP: Got some problem with cell dimensions!
  Tried to take original basis but could not verify dimensions!
  LATTYP: Found a base centered monoclinic cell.
 ALAT       =     6.4499010947
 B/A-ratio  =     1.7500516418
 C/A-ratio  =     1.9305142024
 COS(beta)  =    -0.4326083233
  
  Lattice vectors:
  
 A1 = (   3.2247960000,   5.6438300000,   0.0315720000)
 A2 = (   3.2247960000,  -5.6438300000,   0.0315720000)
 A3 = ( -10.7972380000,   0.0000000000,  -6.2018250000)


Analysis of symmetry for initial positions (statically):
=====================================================================
 Subroutine PRICEL returns:
 Original cell was already a primitive cell.
 

 Routine SETGRP: Setting up the symmetry group for a 
 base centered monoclinic supercell.


 Subroutine GETGRP returns: Found  1 space group operations
 (whereof  1 operations were pure point group operations)
 out of a pool of  4 trial point group operations.


The static configuration has the point symmetry C_1 .


Analysis of symmetry for dynamics (positions and initial velocities):
=====================================================================
 Subroutine PRICEL returns:
 Original cell was already a primitive cell.
 

 Routine SETGRP: Setting up the symmetry group for a 
 base centered monoclinic supercell.


 Subroutine GETGRP returns: Found  1 space group operations
 (whereof  1 operations were pure point group operations)
 out of a pool of  4 trial point group operations.


The dynamic configuration has the point symmetry C_1 .


 irot  :   1
 --------------------------------------------------------------------
 isymop:   1   0   0
           0   1   0
           0   0   1

 gtrans:     0.0000000     0.0000000     0.0000000

 ptrans:     0.0000000     0.0000000     0.0000000
 rotmap:
 (   1->   1)  (   2->   2)  (   3->   3)  (   4->   4)  (   5->   5) 
 (   6->   6)  (   7->   7)  (   8->   8)  (   9->   9)  (  10->  10) 
 (  11->  11)  (  12->  12) 
 
 
 KPOINTS: pymatgen 4.7.6+ generated KPOINTS with g

Automatic generation of k-mesh.
Space group operators:
 irot       det(A)        alpha          n_x          n_y          n_z        tau_x        tau_y        tau_z
    1     1.000000     0.000000     1.000000     0.000000     0.000000     0.000000     0.000000     0.000000
 
 Subroutine IBZKPT returns following result:
 ===========================================
 
 Found     42 irreducible k-points:
 
 Following reciprocal coordinates:
            Coordinates               Weight
  0.000000  0.000000  0.000000      1.000000
  0.250000  0.000000  0.000000      2.000000
  0.500000  0.000000  0.000000      1.000000
  0.000000  0.250000  0.000000      2.000000
  0.250000  0.250000  0.000000      2.000000
  0.500000  0.250000 -0.000000      2.000000
 -0.250000  0.250000  0.000000      2.000000
  0.000000  0.500000  0.000000      1.000000
  0.250000  0.500000 -0.000000      2.000000
  0.500000  0.500000  0.000000      1.000000
 -0.000000 -0.000000  0.200000      2.000000
  0.250000  0.000000  0.200000      2.000000
  0.500000  0.000000  0.200000      2.000000
 -0.250000 -0.000000  0.200000      2.000000
  0.000000  0.250000  0.200000      2.000000
  0.250000  0.250000  0.200000      2.000000
  0.500000  0.250000  0.200000      2.000000
 -0.250000  0.250000  0.200000      2.000000
  0.000000  0.500000  0.200000      2.000000
  0.250000  0.500000  0.200000      2.000000
  0.500000  0.500000  0.200000      2.000000
 -0.250000  0.500000  0.200000      2.000000
 -0.000000 -0.250000  0.200000      2.000000
  0.250000 -0.250000  0.200000      2.000000
  0.500000 -0.250000  0.200000      2.000000
 -0.250000 -0.250000  0.200000      2.000000
 -0.000000 -0.000000  0.400000      2.000000
  0.250000  0.000000  0.400000      2.000000
  0.500000  0.000000  0.400000      2.000000
 -0.250000  0.000000  0.400000      2.000000
  0.000000  0.250000  0.400000      2.000000
  0.250000  0.250000  0.400000      2.000000
  0.500000  0.250000  0.400000      2.000000
 -0.250000  0.250000  0.400000      2.000000
  0.000000  0.500000  0.400000      2.000000
  0.250000  0.500000  0.400000      2.000000
  0.500000  0.500000  0.400000      2.000000
 -0.250000  0.500000  0.400000      2.000000
  0.000000 -0.250000  0.400000      2.000000
  0.250000 -0.250000  0.400000      2.000000
  0.500000 -0.250000  0.400000      2.000000
 -0.250000 -0.250000  0.400000      2.000000
 
 Following cartesian coordinates:
            Coordinates               Weight
  0.000000  0.000000  0.000000      1.000000
  0.038631 -0.022148  0.013365      2.000000
  0.077263 -0.044296  0.026730      1.000000
  0.038631  0.022148  0.013365      2.000000
  0.077263  0.000000  0.026730      2.000000
  0.115894 -0.022148  0.040096      2.000000
  0.000000  0.044296  0.000000      2.000000
  0.077263  0.044296  0.026730      1.000000
  0.115894  0.022148  0.040096      2.000000
  0.154525  0.000000  0.053461      1.000000
 -0.000321  0.000000  0.032808      2.000000
  0.038310 -0.022148  0.046173      2.000000
  0.076941 -0.044296  0.059538      2.000000
 -0.038952  0.022148  0.019443      2.000000
  0.038310  0.022148  0.046173      2.000000
  0.076941  0.000000  0.059538      2.000000
  0.115573 -0.022148  0.072903      2.000000
 -0.000321  0.044296  0.032808      2.000000
  0.076941  0.044296  0.059538      2.000000
  0.115573  0.022148  0.072903      2.000000
  0.154204  0.000000  0.086269      2.000000
  0.038310  0.066444  0.046173      2.000000
 -0.038952 -0.022148  0.019443      2.000000
 -0.000321 -0.044296  0.032808      2.000000
  0.038310 -0.066444  0.046173      2.000000
 -0.077584  0.000000  0.006077      2.000000
 -0.000642  0.000000  0.065616      2.000000
  0.037989 -0.022148  0.078981      2.000000
  0.076620 -0.044296  0.092346      2.000000
 -0.039274  0.022148  0.052250      2.000000
  0.037989  0.022148  0.078981      2.000000
  0.076620  0.000000  0.092346      2.000000
  0.115251 -0.022148  0.105711      2.000000
 -0.000642  0.044296  0.065616      2.000000
  0.076620  0.044296  0.092346      2.000000
  0.115251  0.022148  0.105711      2.000000
  0.153883  0.000000  0.119076      2.000000
  0.037989  0.066444  0.078981      2.000000
 -0.039274 -0.022148  0.052250      2.000000
 -0.000642 -0.044296  0.065616      2.000000
  0.037989 -0.066444  0.078981      2.000000
 -0.077905  0.000000  0.038885      2.000000
 
 
 Subroutine IBZKPT_HF returns following result:
 ==============================================
 
 Found     80 k-points in 1st BZ
 the following     80 k-points will be used (e.g. in the exchange kernel)
 Following reciprocal coordinates:   # in IRBZ
  0.000000  0.000000  0.000000       1 t-inv F
  0.250000  0.000000  0.000000       2 t-inv F
  0.500000  0.000000  0.000000       3 t-inv F
  0.000000  0.250000  0.000000       4 t-inv F
  0.250000  0.250000  0.000000       5 t-inv F
  0.500000  0.250000 -0.000000       6 t-inv F
 -0.250000  0.250000  0.000000       7 t-inv F
  0.000000  0.500000  0.000000       8 t-inv F
  0.250000  0.500000 -0.000000       9 t-inv F
  0.500000  0.500000  0.000000      10 t-inv F
 -0.000000 -0.000000  0.200000      11 t-inv F
  0.250000  0.000000  0.200000      12 t-inv F
  0.500000  0.000000  0.200000      13 t-inv F
 -0.250000 -0.000000  0.200000      14 t-inv F
  0.000000  0.250000  0.200000      15 t-inv F
  0.250000  0.250000  0.200000      16 t-inv F
  0.500000  0.250000  0.200000      17 t-inv F
 -0.250000  0.250000  0.200000      18 t-inv F
  0.000000  0.500000  0.200000      19 t-inv F
  0.250000  0.500000  0.200000      20 t-inv F
  0.500000  0.500000  0.200000      21 t-inv F
 -0.250000  0.500000  0.200000      22 t-inv F
 -0.000000 -0.250000  0.200000      23 t-inv F
  0.250000 -0.250000  0.200000      24 t-inv F
  0.500000 -0.250000  0.200000      25 t-inv F
 -0.250000 -0.250000  0.200000      26 t-inv F
 -0.000000 -0.000000  0.400000      27 t-inv F
  0.250000  0.000000  0.400000      28 t-inv F
  0.500000  0.000000  0.400000      29 t-inv F
 -0.250000  0.000000  0.400000      30 t-inv F
  0.000000  0.250000  0.400000      31 t-inv F
  0.250000  0.250000  0.400000      32 t-inv F
  0.500000  0.250000  0.400000      33 t-inv F
 -0.250000  0.250000  0.400000      34 t-inv F
  0.000000  0.500000  0.400000      35 t-inv F
  0.250000  0.500000  0.400000      36 t-inv F
  0.500000  0.500000  0.400000      37 t-inv F
 -0.250000  0.500000  0.400000      38 t-inv F
  0.000000 -0.250000  0.400000      39 t-inv F
  0.250000 -0.250000  0.400000      40 t-inv F
  0.500000 -0.250000  0.400000      41 t-inv F
 -0.250000 -0.250000  0.400000      42 t-inv F
 -0.250000 -0.000000 -0.000000       2 t-inv T
 -0.000000 -0.250000 -0.000000       4 t-inv T
 -0.250000 -0.250000  0.000000       5 t-inv T
 -0.500000 -0.250000  0.000000       6 t-inv T
  0.250000 -0.250000  0.000000       7 t-inv T
 -0.250000 -0.500000  0.000000       9 t-inv T
  0.000000  0.000000 -0.200000      11 t-inv T
 -0.250000 -0.000000 -0.200000      12 t-inv T
 -0.500000 -0.000000 -0.200000      13 t-inv T
  0.250000  0.000000 -0.200000      14 t-inv T
 -0.000000 -0.250000 -0.200000      15 t-inv T
 -0.250000 -0.250000 -0.200000      16 t-inv T
 -0.500000 -0.250000 -0.200000      17 t-inv T
  0.250000 -0.250000 -0.200000      18 t-inv T
 -0.000000 -0.500000 -0.200000      19 t-inv T
 -0.250000 -0.500000 -0.200000      20 t-inv T
 -0.500000 -0.500000 -0.200000      21 t-inv T
  0.250000 -0.500000 -0.200000      22 t-inv T
  0.000000  0.250000 -0.200000      23 t-inv T
 -0.250000  0.250000 -0.200000      24 t-inv T
 -0.500000  0.250000 -0.200000      25 t-inv T
  0.250000  0.250000 -0.200000      26 t-inv T
  0.000000  0.000000 -0.400000      27 t-inv T
 -0.250000 -0.000000 -0.400000      28 t-inv T
 -0.500000 -0.000000 -0.400000      29 t-inv T
  0.250000 -0.000000 -0.400000      30 t-inv T
 -0.000000 -0.250000 -0.400000      31 t-inv T
 -0.250000 -0.250000 -0.400000      32 t-inv T
 -0.500000 -0.250000 -0.400000      33 t-inv T
  0.250000 -0.250000 -0.400000      34 t-inv T
 -0.000000 -0.500000 -0.400000      35 t-inv T
 -0.250000 -0.500000 -0.400000      36 t-inv T
 -0.500000 -0.500000 -0.400000      37 t-inv T
  0.250000 -0.500000 -0.400000      38 t-inv T
 -0.000000  0.250000 -0.400000      39 t-inv T
 -0.250000  0.250000 -0.400000      40 t-inv T
 -0.500000  0.250000 -0.400000      41 t-inv T
  0.250000  0.250000 -0.400000      42 t-inv T


--------------------------------------------------------------------------------------------------------




 Dimension of arrays:
   k-points           NKPTS =     42   k-points in BZ     NKDIM =     80   number of bands    NBANDS=     80
   number of dos      NEDOS =    301   number of ions     NIONS =     12
   non local maximal  LDIM  =      6   non local SUM 2l+1 LMDIM =     18
   total plane-waves  NPLWV =  32768
   max r-space proj   IRMAX =      1   max aug-charges    IRDMAX=   8224
   dimension x,y,z NGX =    32 NGY =   32 NGZ =   32
   dimension x,y,z NGXF=    64 NGYF=   64 NGZF=   64
   support grid    NGXF=    64 NGYF=   64 NGZF=   64
   ions per type =               4   2   6
 NGX,Y,Z   is equivalent  to a cutoff of   8.18,  8.18,  8.27 a.u.
 NGXF,Y,Z  is equivalent  to a cutoff of  16.37, 16.37, 16.55 a.u.


 I would recommend the setting:
   dimension x,y,z NGX =    32 NGY =   32 NGZ =   31
 SYSTEM =  CGS                                     
 POSCAR =  Cu Ge S                                 

 Startparameter for this run:
   NWRITE =      2    write-flag & timer
   PREC   = normal    normal or accurate (medium, high low for compatibility)
   ISTART =      1    job   : 0-new  1-cont  2-samecut
   ICHARG =      0    charge: 1-file 2-atom 10-const
   ISPIN  =      1    spin polarized calculation?
   LNONCOLLINEAR =      F non collinear calculations
   LSORBIT =      F    spin-orbit coupling
   INIWAV =      1    electr: 0-lowe 1-rand  2-diag
   LASPH  =      F    aspherical Exc in radial PAW
   METAGGA=      F    non-selfconsistent MetaGGA calc.

 Electronic Relaxation 1
   ENCUT  =  400.0 eV  29.40 Ry    5.42 a.u.  10.60 10.60 10.48*2*pi/ulx,y,z
   ENINI  =  400.0     initial cutoff
   ENAUG  =  758.2 eV  augmentation charge cutoff
   NELM   =     60;   NELMIN=  2; NELMDL=  0     # of ELM steps 
   EDIFF  = 0.1E-04   stopping-criterion for ELM
   LREAL  =      F    real-space projection
   NLSPLINE    = F    spline interpolate recip. space projectors
   LCOMPAT=      F    compatible to vasp.4.4
   GGA_COMPAT  = T    GGA compatible to vasp.4.4-vasp.4.6
   LMAXPAW     = -100 max onsite density
   LMAXMIX     =    2 max onsite mixed and CHGCAR
   VOSKOWN=      0    Vosko Wilk Nusair interpolation
   ROPT   =    0.00000   0.00000   0.00000
 Ionic relaxation
   EDIFFG = 0.1E-03   stopping-criterion for IOM
   NSW    =      0    number of steps for IOM
   NBLOCK =      1;   KBLOCK =      1    inner block; outer block 
   IBRION =     -1    ionic relax: 0-MD 1-quasi-New 2-CG
   NFREE  =      0    steps in history (QN), initial steepest desc. (CG)
   ISIF   =      0    stress and relaxation
   IWAVPR =     10    prediction:  0-non 1-charg 2-wave 3-comb
   ISYM   =      3    0-nonsym 1-usesym 2-fastsym
   LCORR  =      T    Harris-Foulkes like correction to forces

   POTIM  = 0.5000    time-step for ionic-motion
   TEIN   =    0.0    initial temperature
   TEBEG  =    0.0;   TEEND  =   0.0 temperature during run
   SMASS  =  -3.00    Nose mass-parameter (am)
   estimated Nose-frequenzy (Omega)   =  0.10E-29 period in steps =****** mass=  -0.966E-27a.u.
   SCALEE = 1.0000    scale energy and forces
   NPACO  =    256;   APACO  = 16.0  distance and # of slots for P.C.
   PSTRESS=    0.0 pullay stress

  Mass of Ions in am
   POMASS =  63.55 72.61 32.07
  Ionic Valenz
   ZVAL   =  17.00  4.00  6.00
  Atomic Wigner-Seitz radii
   RWIGS  =  -1.00 -1.00 -1.00
  virtual crystal weights 
   VCA    =   1.00  1.00  1.00
   NELECT =     112.0000    total number of electrons
   NUPDOWN=      -1.0000    fix difference up-down

 DOS related values:
   EMIN   =  10.00;   EMAX   =-10.00  energy-range for DOS
   EFERMI =   0.00
   ISMEAR =     1;   SIGMA  =   0.10  broadening in eV -4-tet -1-fermi 0-gaus

 Electronic relaxation 2 (details)
   IALGO  =     53    algorithm
   LDIAG  =      T    sub-space diagonalisation (order eigenvalues)
   LSUBROT=      T    optimize rotation matrix (better conditioning)
   TURBO    =      0    0=normal 1=particle mesh
   IRESTART =      0    0=no restart 2=restart with 2 vectors
   NREBOOT  =      0    no. of reboots
   NMIN     =      0    reboot dimension
   EREF     =   0.00    reference energy to select bands
   IMIX   =      4    mixing-type and parameters
     AMIX     =   0.40;   BMIX     =  1.00
     AMIX_MAG =   1.60;   BMIX_MAG =  1.00
     AMIN     =   0.10
     WC   =   100.;   INIMIX=   1;  MIXPRE=   1;  MAXMIX= -45

 Intra band minimization:
   WEIMIN = 0.0000     energy-eigenvalue tresh-hold
   EBREAK =  0.31E-07  absolut break condition
   DEPER  =   0.30     relativ break condition  

   TIME   =   0.40     timestep for ELM

  volume/ion in A,a.u.               =      18.49       124.79
  Fermi-wavevector in a.u.,A,eV,Ry     =   1.303450  2.463163 23.116052  1.698982
  Thomas-Fermi vector in A             =   2.434451
 
 Write flags
   LWAVE  =      T    write WAVECAR
   LCHARG =      T    write CHGCAR
   LVTOT  =      F    write LOCPOT, total local potential
   LVHAR  =      F    write LOCPOT, Hartree potential only
   LELF   =      F    write electronic localiz. function (ELF)
   LORBIT =      0    0 simple, 1 ext, 2 COOP (PROOUT)


 Dipole corrections
   LMONO  =      F    monopole corrections only (constant potential shift)
   LDIPOL =      F    correct potential (dipole corrections)
   IDIPOL =      0    1-x, 2-y, 3-z, 4-all directions 
   EPSILON=  1.0000000 bulk dielectric constant

 Exchange correlation treatment:
   GGA     =    PE    GGA type
   LEXCH   =     8    internal setting for exchange type
   VOSKOWN=      0    Vosko Wilk Nusair interpolation
   EXXOEP  =     0    0=HF, 1=EXX-LHF (local Hartree Fock) 2=EXX OEP
   LHFCALC =     T    Hartree Fock is set to
   LSYMGRAD=     F    symmetrize gradient (conserves proper symmetry)
   PRECFOCK=fast      Normal, Fast or Accurate (Low or Medium for compatibility)
   LRHFCALC=     F    long range Hartree Fock
   LRSCOR  =     F    long range correlation only (use DFT for short range part)
   LTHOMAS =     F    Thomas Fermi screening in HF
   LMODELHF=     F    short range full HF, long range fraction AEXX
   ENCUT4O =  -1.0   cutoff for four orbital integrals eV
   LMAXFOCK=     4    L truncation for augmentation on plane wave grid
   LMAXFOCKAE=  -1    L truncation for all-electron charge restoration on plane wave grid
   NMAXFOCKAE=   1    number of basis functions for all-electron charge restoration
   LFOCKAEDFT=     F  apply the AE augmentation even for DFT
   NKREDX  =     1    reduce k-point grid by
   NKREDY  =     1    reduce k-point grid by
   NKREDZ  =     1    reduce k-point grid by
   SHIFTRED=     F    shift reduced grid of Gamma
   HFKIDENT=     F    idential grid for each k-point
   ODDONLY =     F    use only odd q-grid points
   EVENONLY=     F    use only even q-grid points
   HFALPHA =   -1.0000 decay constant for conv. correction
   MCALPHA =    0.0000 extent of test-charge in conv. correction in multipole expansion
   AEXX    =    0.2500 exact exchange contribution
   HFSCREEN=    0.2000 screening length (either q_TF or 0.3 A-1)
   HFSCREENC=   0.2000 screening length for correlation (either q_TF or 0.3 A-1)
   HFRCUT  =    0.0000 spherical cutoff for potential kernel
   ALDAX   =    0.7500 LDA exchange part
   AGGAX   =    0.7500 GGA exchange part
   ALDAC   =    1.0000 LDA correlation
   AGGAC   =    1.0000 GGA correlation
   NBANDSGWLOW=     1    first orbital included in HF term
 Linear response parameters
   LEPSILON=     F    determine dielectric tensor
   LRPA    =     F    only Hartree local field effects (RPA)
   LNABLA  =     F    use nabla operator in PAW spheres
   LVEL    =     F    velocity operator in full k-point grid
   LINTERFAST=   F  fast interpolation
   KINTER  =     0    interpolate to denser k-point grid
   CSHIFT  =0.1000    complex shift for real part using Kramers Kronig
   OMEGAMAX=  -1.0    maximum frequency
   DEG_THRESHOLD= 0.2000000E-02 threshold for treating states as degnerate
   RTIME   =    0.100 relaxation time in fs

 Orbital magnetization related:
   ORBITALMAG=     F  switch on orbital magnetization
   LCHIMAG   =     F  perturbation theory with respect to B field
   DQ        =  0.001000  dq finite difference perturbation B field



--------------------------------------------------------------------------------------------------------


 Static calculation
 charge density and potential will be updated during run
 non-spin polarized calculation
 Conjugate gradient for all bands, subspace preconditioning
 perform sub-space diagonalisation
    before iterative eigenvector-optimisation
 modified Broyden-mixing scheme, WC =      100.0
 initial mixing is a Kerker type mixing with AMIX =  0.4000 and BMIX =      1.0000
 Hartree-type preconditioning will be used
 using additional bands           24
 reciprocal scheme for non local part
 use partial core corrections
 no Harris-corrections to forces 
 use gradient corrections 
 use of overlap-Matrix (Vanderbilt PP)
 Methfessel and Paxton  Order N= 1 SIGMA  =   0.10


--------------------------------------------------------------------------------------------------------


  energy-cutoff  :      400.00
  volume of cell :      221.90
      direct lattice vectors                 reciprocal lattice vectors
     3.224796000 -5.643830000  0.031572000     0.154525165 -0.088592321  0.053460880
     3.224796000  5.643830000  0.031572000     0.154525165  0.088592321  0.053460880
    -2.101946000  0.000000000  6.075537000    -0.001606004  0.000000000  0.164038877

  length of vectors
     6.500240234  6.500240234  6.428866683     0.185969598  0.185969598  0.164046738


 
 old parameters found on file WAVECAR:
  energy-cutoff  :      400.00
  volume of cell :      222.35
      direct lattice vectors                 reciprocal lattice vectors
     3.227235519 -5.642745207  0.030241751     0.154430495 -0.088609353  0.053450002
     3.227235519  5.642745207  0.030241751     0.154430495  0.088609353  0.053450002
    -2.106135241  0.000000000  6.085154262    -0.001534965  0.000000000  0.163803104

  length of vectors

 
 k-points in units of 2pi/SCALE and weight: pymatgen 4.7.6+ generated KPOINTS with g
   0.00000000  0.00000000  0.00000000       0.013
   0.03863129 -0.02214808  0.01336522       0.025
   0.07726258 -0.04429616  0.02673044       0.013
   0.03863129  0.02214808  0.01336522       0.025
   0.07726258  0.00000000  0.02673044       0.025
   0.11589387 -0.02214808  0.04009566       0.025
   0.00000000  0.04429616  0.00000000       0.025
   0.07726258  0.04429616  0.02673044       0.013
   0.11589387  0.02214808  0.04009566       0.025
   0.15452516  0.00000000  0.05346088       0.013
  -0.00032120  0.00000000  0.03280778       0.025
   0.03831009 -0.02214808  0.04617300       0.025
   0.07694138 -0.04429616  0.05953822       0.025
  -0.03895249  0.02214808  0.01944256       0.025
   0.03831009  0.02214808  0.04617300       0.025
   0.07694138  0.00000000  0.05953822       0.025
   0.11557267 -0.02214808  0.07290344       0.025
  -0.00032120  0.04429616  0.03280778       0.025
   0.07694138  0.04429616  0.05953822       0.025
   0.11557267  0.02214808  0.07290344       0.025
   0.15420396  0.00000000  0.08626865       0.025
   0.03831009  0.06644424  0.04617300       0.025
  -0.03895249 -0.02214808  0.01944256       0.025
  -0.00032120 -0.04429616  0.03280778       0.025
   0.03831009 -0.06644424  0.04617300       0.025
  -0.07758378  0.00000000  0.00607734       0.025
  -0.00064240  0.00000000  0.06561555       0.025
   0.03798889 -0.02214808  0.07898077       0.025
   0.07662018 -0.04429616  0.09234599       0.025
  -0.03927369  0.02214808  0.05225033       0.025
   0.03798889  0.02214808  0.07898077       0.025
   0.07662018  0.00000000  0.09234599       0.025
   0.11525147 -0.02214808  0.10571121       0.025
  -0.00064240  0.04429616  0.06561555       0.025
   0.07662018  0.04429616  0.09234599       0.025
   0.11525147  0.02214808  0.10571121       0.025
   0.15388276  0.00000000  0.11907643       0.025
   0.03798889  0.06644424  0.07898077       0.025
  -0.03927369 -0.02214808  0.05225033       0.025
  -0.00064240 -0.04429616  0.06561555       0.025
   0.03798889 -0.06644424  0.07898077       0.025
  -0.07790498  0.00000000  0.03888511       0.025
 
 k-points in reciprocal lattice and weights: pymatgen 4.7.6+ generated KPOINTS with g
   0.00000000  0.00000000  0.00000000       0.013
   0.25000000  0.00000000  0.00000000       0.025
   0.50000000  0.00000000  0.00000000       0.013
   0.00000000  0.25000000  0.00000000       0.025
   0.25000000  0.25000000  0.00000000       0.025
   0.50000000  0.25000000 -0.00000000       0.025
  -0.25000000  0.25000000  0.00000000       0.025
   0.00000000  0.50000000  0.00000000       0.013
   0.25000000  0.50000000 -0.00000000       0.025
   0.50000000  0.50000000  0.00000000       0.013
  -0.00000000 -0.00000000  0.20000000       0.025
   0.25000000  0.00000000  0.20000000       0.025
   0.50000000  0.00000000  0.20000000       0.025
  -0.25000000 -0.00000000  0.20000000       0.025
   0.00000000  0.25000000  0.20000000       0.025
   0.25000000  0.25000000  0.20000000       0.025
   0.50000000  0.25000000  0.20000000       0.025
  -0.25000000  0.25000000  0.20000000       0.025
   0.00000000  0.50000000  0.20000000       0.025
   0.25000000  0.50000000  0.20000000       0.025
   0.50000000  0.50000000  0.20000000       0.025
  -0.25000000  0.50000000  0.20000000       0.025
  -0.00000000 -0.25000000  0.20000000       0.025
   0.25000000 -0.25000000  0.20000000       0.025
   0.50000000 -0.25000000  0.20000000       0.025
  -0.25000000 -0.25000000  0.20000000       0.025
  -0.00000000 -0.00000000  0.40000000       0.025
   0.25000000  0.00000000  0.40000000       0.025
   0.50000000  0.00000000  0.40000000       0.025
  -0.25000000  0.00000000  0.40000000       0.025
   0.00000000  0.25000000  0.40000000       0.025
   0.25000000  0.25000000  0.40000000       0.025
   0.50000000  0.25000000  0.40000000       0.025
  -0.25000000  0.25000000  0.40000000       0.025
   0.00000000  0.50000000  0.40000000       0.025
   0.25000000  0.50000000  0.40000000       0.025
   0.50000000  0.50000000  0.40000000       0.025
  -0.25000000  0.50000000  0.40000000       0.025
   0.00000000 -0.25000000  0.40000000       0.025
   0.25000000 -0.25000000  0.40000000       0.025
   0.50000000 -0.25000000  0.40000000       0.025
  -0.25000000 -0.25000000  0.40000000       0.025
 
 position of ions in fractional coordinates (direct lattice) 
   0.61844300  0.12117100  0.11953300
   0.12117100  0.61844300  0.61953300
   0.96295700  0.79032200  0.11881300
   0.79032200  0.96295700  0.61881300
   0.43973200  0.26728100  0.59904700
   0.26728100  0.43973200  0.09904700
   0.07949800  0.91167500  0.49736300
   0.57140300  0.41236400  0.97862852
   0.73711100  0.25006200  0.49504900
   0.41236400  0.57140300  0.48018400
   0.91167500  0.07949800  0.99736300
   0.25006200  0.73711100  0.99504900
 
 position of ions in cartesian coordinates  (Angst):
   2.13385236 -2.80651863  0.74957826
   1.08287936  2.80651863  3.78734676
   5.40422860 -0.97432259  0.77720730
   4.35325560  0.97432259  3.81497580
   1.02080825 -0.97328413  3.66185403
   2.07178125  0.97328413  0.62408553
   2.15090056  4.69666552  3.05304062
   1.11542359 -0.89758908  5.97675325
   2.14286528 -2.74882176  3.03885554
   2.16312705  0.89758908  2.94843515
   1.09992756 -4.69666552  6.09080912
   1.09189228  2.74882176  6.07662404
 


--------------------------------------------------------------------------------------------------------


 k-point  1 :   0.0000 0.0000 0.0000  plane waves:    4051
 k-point  2 :   0.2500 0.0000 0.0000  plane waves:    4032
 k-point  3 :   0.5000 0.0000 0.0000  plane waves:    4030
 k-point  4 :   0.0000 0.2500 0.0000  plane waves:    4032
 k-point  5 :   0.2500 0.2500 0.0000  plane waves:    4038
 k-point  6 :   0.5000 0.2500-0.0000  plane waves:    4037
 k-point  7 :  -0.2500 0.2500 0.0000  plane waves:    4042
 k-point  8 :   0.0000 0.5000 0.0000  plane waves:    4030
 k-point  9 :   0.2500 0.5000-0.0000  plane waves:    4037
 k-point 10 :   0.5000 0.5000 0.0000  plane waves:    4026
 k-point 11 :  -0.0000-0.0000 0.2000  plane waves:    4046
 k-point 12 :   0.2500 0.0000 0.2000  plane waves:    4034
 k-point 13 :   0.5000 0.0000 0.2000  plane waves:    4025
 k-point 14 :  -0.2500-0.0000 0.2000  plane waves:    4044
 k-point 15 :   0.0000 0.2500 0.2000  plane waves:    4034
 k-point 16 :   0.2500 0.2500 0.2000  plane waves:    4017
 k-point 17 :   0.5000 0.2500 0.2000  plane waves:    4039
 k-point 18 :  -0.2500 0.2500 0.2000  plane waves:    4042
 k-point 19 :   0.0000 0.5000 0.2000  plane waves:    4025
 k-point 20 :   0.2500 0.5000 0.2000  plane waves:    4039
 k-point 21 :   0.5000 0.5000 0.2000  plane waves:    4030
 k-point 22 :  -0.2500 0.5000 0.2000  plane waves:    4030
 k-point 23 :  -0.0000-0.2500 0.2000  plane waves:    4044
 k-point 24 :   0.2500-0.2500 0.2000  plane waves:    4042
 k-point 25 :   0.5000-0.2500 0.2000  plane waves:    4030
 k-point 26 :  -0.2500-0.2500 0.2000  plane waves:    4020
 k-point 27 :  -0.0000-0.0000 0.4000  plane waves:    4027
 k-point 28 :   0.2500 0.0000 0.4000  plane waves:    4034
 k-point 29 :   0.5000 0.0000 0.4000  plane waves:    4013
 k-point 30 :  -0.2500 0.0000 0.4000  plane waves:    4042
 k-point 31 :   0.0000 0.2500 0.4000  plane waves:    4034
 k-point 32 :   0.2500 0.2500 0.4000  plane waves:    4009
 k-point 33 :   0.5000 0.2500 0.4000  plane waves:    4026
 k-point 34 :  -0.2500 0.2500 0.4000  plane waves:    4027
 k-point 35 :   0.0000 0.5000 0.4000  plane waves:    4013
 k-point 36 :   0.2500 0.5000 0.4000  plane waves:    4026
 k-point 37 :   0.5000 0.5000 0.4000  plane waves:    4037
 k-point 38 :  -0.2500 0.5000 0.4000  plane waves:    4022
 k-point 39 :   0.0000-0.2500 0.4000  plane waves:    4042
 k-point 40 :   0.2500-0.2500 0.4000  plane waves:    4027
 k-point 41 :   0.5000-0.2500 0.4000  plane waves:    4022
 k-point 42 :  -0.2500-0.2500 0.4000  plane waves:    4015

 maximum and minimum number of plane-waves per node :      4051     4009

 maximum number of plane-waves:      4051
 maximum index in each direction: 
   IXMAX=   10   IYMAX=   10   IZMAX=   10
   IXMIN=  -11   IYMIN=  -11   IZMIN=  -10

 WARNING: aliasing errors must be expected set NGX to  44 to avoid them
 WARNING: aliasing errors must be expected set NGY to  44 to avoid them
 WARNING: aliasing errors must be expected set NGZ to  42 to avoid them
 aliasing errors are usually negligible using standard VASP settings
 and one can safely disregard these warnings

 serial   3D FFT for wavefunctions
 parallel 3D FFT for charge:
    minimum data exchange during FFTs selected (reduces bandwidth)


 FFT grid for exact exchange (Hartree Fock) 
  NGX = 24; NGY = 24; NGZ = 24

 
 Radii for the augmentation spheres in the non-local exchange
 for species   1 augmentation radius   1.120 (default was   0.830)
       energy cutoff for augmentation   1600.0
 for species   2 augmentation radius   1.570 (default was   1.163)
       energy cutoff for augmentation   1600.0
 for species   3 augmentation radius   1.034 (default was   0.970)
       energy cutoff for augmentation   1600.0

 total amount of memory used by VASP on root node   151697. kBytes
========================================================================

   base      :      30000. kBytes
   nonl-proj :      74517. kBytes
   fftplans  :        702. kBytes
   grid      :       2400. kBytes
   one-center:        186. kBytes
   HF        :        194. kBytes
   nonlr-proj:       1122. kBytes
   wavefun   :      42576. kBytes
 
 Broyden mixing: mesh for mixing (old mesh)
   NGX = 21   NGY = 21   NGZ = 21
  (NGX  = 64   NGY  = 64   NGZ  = 64)
  gives a total of   9261 points

 charge density for first step will be calculated from the start-wavefunctions


--------------------------------------------------------------------------------------------------------


 Maximum index for augmentation-charges          485 (set IRDMAX)


--------------------------------------------------------------------------------------------------------


 initial charge from wavefunction
 First call to EWALD:  gamma=   0.293
 Maximum number of real-space cells 3x 3x 3
 Maximum number of reciprocal cells 3x 3x 3

 FEWALD executed in parallel
    FEWALD:  cpu time    0.00: real time    0.00


----------------------------------------- Iteration    1(   1)  ---------------------------------------


    POTLOK:  cpu time    0.06: real time    0.06
    SETDIJ:  cpu time    2.03: real time    2.03
 
    SUBROT:  cpu time    0.75: real time    0.75
    SUBROT:  cpu time    0.35: real time    0.35
    SUBROT:  cpu time    0.36: real time    0.36
    SUBROT:  cpu time    0.37: real time    0.37
    --------------------------------------------
    SUBRT+:  cpu time    1.83: real time    1.84

 Broyden mixing:
  rms(total) = 0.10785E-01    rms(broyden)= 0.10779E-01
  rms(prec ) = 0.19472E-01
  weight for this iteration     100.00

 eigenvalues of (default mixing * dielectric matrix)
  average eigenvalue GAMMA=   1.5967
  2.4478  1.5047  0.8375
 
    TRIAL :  cpu time  242.07: real time  241.87
    CORREC:  cpu time    0.00: real time    0.00
    CHARGE:  cpu time    0.05: real time    0.05
    --------------------------------------------
      LOOP:  cpu time  244.22: real time  244.02

 eigenvalue-minimisations  :     0
 total energy-change (2. order) : 0.7554145E+02  (-0.2131930E+03)
 number of electron     112.0001481 magnetization 
 augmentation part       38.9112448 magnetization 

 Free energy of the ion-electron system (eV)
  ---------------------------------------------------
  alpha Z        PSCENC =       339.31929130
  Ewald energy   TEWEN  =     -9065.31038255
  -1/2 Hartree   DENC   =     -8067.43588876
  -exchange  EXHF       =       327.45032861
  -V(xc)+E(xc)   XCENC  =       369.90466441
  PAW double counting   =     16899.53156270   -17392.34663318
  entropy T*S    EENTRO =        -0.00141841
  eigenvalues    EBANDS =     -1656.55517984
  atomic energy  EATOM  =     18320.98302006
  ---------------------------------------------------
  free energy    TOTEN  =        75.54144603 eV

  energy without entropy =       75.54286444  energy(sigma->0) =       75.54191884


--------------------------------------------------------------------------------------------------------




----------------------------------------- Iteration    1(   2)  ---------------------------------------


    POTLOK:  cpu time    0.05: real time    0.05
    SETDIJ:  cpu time    1.97: real time    1.96
 
    SUBROT:  cpu time    0.75: real time    0.75
    SUBROT:  cpu time    0.37: real time    0.37
    SUBROT:  cpu time    0.37: real time    0.37
    SUBROT:  cpu time    0.37: real time    0.37
    --------------------------------------------
    SUBRT+:  cpu time    1.86: real time    1.90

 Broyden mixing:
  rms(total) = 0.27589E-01    rms(broyden)= 0.27579E-01
  rms(prec ) = 0.50704E-01
  weight for this iteration     100.00

 eigenvalues of (default mixing * dielectric matrix)
  average eigenvalue GAMMA=   1.5549
  2.5452  1.2613  0.8582
 
    TRIAL :  cpu time  247.09: real time  246.91
    CORREC:  cpu time    0.00: real time    0.00
    CHARGE:  cpu time    0.06: real time    0.06
    --------------------------------------------
      LOOP:  cpu time  249.17: real time  248.99

 eigenvalue-minimisations  :     0
 total energy-change (2. order) :-0.8392202E+02  (-0.1468828E+03)
 number of electron     112.0001387 magnetization 
 augmentation part       35.4576521 magnetization 

 Free energy of the ion-electron system (eV)
  ---------------------------------------------------
  alpha Z        PSCENC =       339.31929130
  Ewald energy   TEWEN  =     -9065.31038255
  -1/2 Hartree   DENC   =     -8369.71736884
  -exchange  EXHF       =       338.96079277
  -V(xc)+E(xc)   XCENC  =       377.32068663
  PAW double counting   =     17400.41375703   -17939.53478397
  entropy T*S    EENTRO =        -0.00118620
  eigenvalues    EBANDS =     -1410.81417206
  atomic energy  EATOM  =     18320.98302006
  ---------------------------------------------------
  free energy    TOTEN  =        -8.38057803 eV

  energy without entropy =       -8.37939183  energy(sigma->0) =       -8.38018263


--------------------------------------------------------------------------------------------------------




----------------------------------------- Iteration    1(   3)  ---------------------------------------


    POTLOK:  cpu time    0.06: real time    0.06
    SETDIJ:  cpu time    2.03: real time    2.02
 
    SUBROT:  cpu time    0.76: real time    0.76
    SUBROT:  cpu time    0.36: real time    0.36
    SUBROT:  cpu time    0.36: real time    0.36
    SUBROT:  cpu time    0.34: real time    0.35
    --------------------------------------------
    SUBRT+:  cpu time    1.82: real time    1.83

 Broyden mixing:
  rms(total) = 0.28109E-01    rms(broyden)= 0.28098E-01
  rms(prec ) = 0.52389E-01
  weight for this iteration     100.00

 eigenvalues of (default mixing * dielectric matrix)
  average eigenvalue GAMMA=   1.7739
  1.0116  2.4994  1.8108
 
    TRIAL :  cpu time  244.84: real time  244.63
    CORREC:  cpu time    0.00: real time    0.00
    CHARGE:  cpu time    0.06: real time    0.06
    --------------------------------------------
      LOOP:  cpu time  246.99: real time  246.78

 eigenvalue-minimisations  :     0
 total energy-change (2. order) :-0.6833734E+01  (-0.2037401E+03)
 number of electron     112.0001512 magnetization 
 augmentation part       39.6823700 magnetization 

 Free energy of the ion-electron system (eV)
  ---------------------------------------------------
  alpha Z        PSCENC =       339.31929130
  Ewald energy   TEWEN  =     -9065.31038255
  -1/2 Hartree   DENC   =     -7477.97811148
  -exchange  EXHF       =       325.01084602
  -V(xc)+E(xc)   XCENC  =       357.41282921
  PAW double counting   =     15150.62719294   -15580.10647827
  entropy T*S    EENTRO =        -0.00000501
  eigenvalues    EBANDS =     -2385.17133326
  atomic energy  EATOM  =     18320.98302006
  ---------------------------------------------------
  free energy    TOTEN  =       -15.21431224 eV

  energy without entropy =      -15.21430722  energy(sigma->0) =      -15.21431057


--------------------------------------------------------------------------------------------------------




----------------------------------------- Iteration    1(   4)  ---------------------------------------


    POTLOK:  cpu time    0.05: real time    0.05
    SETDIJ:  cpu time    2.04: real time    2.04
 
    SUBROT:  cpu time    0.76: real time    0.76
    SUBROT:  cpu time    0.37: real time    0.37
    SUBROT:  cpu time    0.37: real time    0.37
    SUBROT:  cpu time    0.37: real time    0.37
    SUBROT:  cpu time    0.38: real time    0.38
    --------------------------------------------
    SUBRT+:  cpu time    2.25: real time    2.26

 Broyden mixing:
  rms(total) = 0.11320E+00    rms(broyden)= 0.11302E+00
  rms(prec ) = 0.19950E+00
  weight for this iteration     100.00

 eigenvalues of (default mixing * dielectric matrix)
  average eigenvalue GAMMA=   1.2199
  2.5567  1.2846  0.6519  0.3863
 
    TRIAL :  cpu time  246.33: real time  246.12
    CORREC:  cpu time    0.00: real time    0.00
    CHARGE:  cpu time    0.06: real time    0.06
    --------------------------------------------
      LOOP:  cpu time  248.49: real time  248.28

 eigenvalue-minimisations  :     0
 total energy-change (2. order) :-0.7489105E+01  (-0.1072707E+03)
 number of electron     112.0001432 magnetization 
 augmentation part       37.2463317 magnetization 

 Free energy of the ion-electron system (eV)
  ---------------------------------------------------
  alpha Z        PSCENC =       339.31929130
  Ewald energy   TEWEN  =     -9065.31038255
  -1/2 Hartree   DENC   =     -8542.17397411
  -exchange  EXHF       =       342.99688044
  -V(xc)+E(xc)   XCENC  =       381.64618548
  PAW double counting   =     17629.18969811   -18209.75756224
  entropy T*S    EENTRO =         0.00034033
  eigenvalues    EBANDS =     -1219.59656896
  atomic energy  EATOM  =     18320.98302006
  ---------------------------------------------------
  free energy    TOTEN  =       -22.70341747 eV

  energy without entropy =      -22.70375780  energy(sigma->0) =      -22.70353091


--------------------------------------------------------------------------------------------------------




----------------------------------------- Iteration    1(   5)  ---------------------------------------


    POTLOK:  cpu time    0.05: real time    0.05
    SETDIJ:  cpu time    2.03: real time    2.03
 
    SUBROT:  cpu time    0.77: real time    0.77
    SUBROT:  cpu time    0.37: real time    0.37
    SUBROT:  cpu time    0.37: real time    0.37
    SUBROT:  cpu time    0.37: real time    0.37
    --------------------------------------------
    SUBRT+:  cpu time    1.88: real time    1.88

 Broyden mixing:
  rms(total) = 0.45526E-01    rms(broyden)= 0.45516E-01
  rms(prec ) = 0.92484E-01
  weight for this iteration     100.00

 eigenvalues of (default mixing * dielectric matrix)
  average eigenvalue GAMMA=   1.6842
  2.4600  0.9363  1.6564
 
    TRIAL :  cpu time  245.97: real time  245.76
    CORREC:  cpu time    0.00: real time    0.00
    CHARGE:  cpu time    0.05: real time    0.06
    --------------------------------------------
      LOOP:  cpu time  248.11: real time  247.90

 eigenvalue-minimisations  :     0
 total energy-change (2. order) :-0.3812375E+02  (-0.1504015E+02)
 number of electron     112.0001431 magnetization 
 augmentation part       37.2463443 magnetization 

 Free energy of the ion-electron system (eV)
  ---------------------------------------------------
  alpha Z        PSCENC =       339.31929130
  Ewald energy   TEWEN  =     -9065.31038255
  -1/2 Hartree   DENC   =     -8008.47486023
  -exchange  EXHF       =       336.40428283
  -V(xc)+E(xc)   XCENC  =       368.41371299
  PAW double counting   =     15870.28250429   -16339.72114085
  entropy T*S    EENTRO =         0.00064934
  eigenvalues    EBANDS =     -1882.72393314
  atomic energy  EATOM  =     18320.98302006
  ---------------------------------------------------
  free energy    TOTEN  =       -60.82716498 eV

  energy without entropy =      -60.82781432  energy(sigma->0) =      -60.82738142


--------------------------------------------------------------------------------------------------------




----------------------------------------- Iteration    1(   6)  ---------------------------------------


    POTLOK:  cpu time    0.05: real time    0.05
    SETDIJ:  cpu time    2.01: real time    2.01
 
    SUBROT:  cpu time    0.79: real time    0.79
    SUBROT:  cpu time    0.38: real time    0.38
    SUBROT:  cpu time    0.38: real time    0.38
    SUBROT:  cpu time    0.37: real time    0.38
    --------------------------------------------
    SUBRT+:  cpu time    1.93: real time    1.94

 Broyden mixing:
  rms(total) = 0.27336E-02    rms(broyden)= 0.27330E-02
  rms(prec ) = 0.45457E-02
  weight for this iteration     100.00

 eigenvalues of (default mixing * dielectric matrix)
  average eigenvalue GAMMA=   1.8195
  1.0150  1.9180  2.5257
 
    TRIAL :  cpu time  245.47: real time  245.26
    CORREC:  cpu time    0.00: real time    0.00
    CHARGE:  cpu time    0.05: real time    0.06
    --------------------------------------------
      LOOP:  cpu time  247.59: real time  247.38

 eigenvalue-minimisations  :     0
 total energy-change (2. order) :-0.5109855E+01  (-0.8170004E+01)
 number of electron     112.0001462 magnetization 
 augmentation part       38.2282410 magnetization 

 Free energy of the ion-electron system (eV)
  ---------------------------------------------------
  alpha Z        PSCENC =       339.31929130
  Ewald energy   TEWEN  =     -9065.31038255
  -1/2 Hartree   DENC   =     -8000.99079845
  -exchange  EXHF       =       337.15437867
  -V(xc)+E(xc)   XCENC  =       368.78558359
  PAW double counting   =     15770.81150005   -16239.79161826
  entropy T*S    EENTRO =         0.00065069
  eigenvalues    EBANDS =     -1896.89864366
  atomic energy  EATOM  =     18320.98302006
  ---------------------------------------------------
  free energy    TOTEN  =       -65.93701992 eV

  energy without entropy =      -65.93767060  energy(sigma->0) =      -65.93723681


--------------------------------------------------------------------------------------------------------




----------------------------------------- Iteration    1(   7)  ---------------------------------------


    POTLOK:  cpu time    0.05: real time    0.05
    SETDIJ:  cpu time    2.01: real time    2.01
 
    SUBROT:  cpu time    0.75: real time    0.75
    SUBROT:  cpu time    0.36: real time    0.36
    SUBROT:  cpu time    0.36: real time    0.36
    SUBROT:  cpu time    0.36: real time    0.36
    --------------------------------------------
    SUBRT+:  cpu time    1.83: real time    1.83

 Broyden mixing:
  rms(total) = 0.13232E-01    rms(broyden)= 0.13228E-01
  rms(prec ) = 0.23412E-01
  weight for this iteration     100.00

 eigenvalues of (default mixing * dielectric matrix)
  average eigenvalue GAMMA=   1.6072
  2.5017  0.8924  1.4274
 
    TRIAL :  cpu time  244.58: real time  244.36
    CORREC:  cpu time    0.00: real time    0.00
    CHARGE:  cpu time    0.05: real time    0.05
    --------------------------------------------
      LOOP:  cpu time  246.70: real time  246.49

 eigenvalue-minimisations  :     0
 total energy-change (2. order) :-0.1537869E+01  (-0.4133043E+01)
 number of electron     112.0001445 magnetization 
 augmentation part       37.7063362 magnetization 

 Free energy of the ion-electron system (eV)
  ---------------------------------------------------
  alpha Z        PSCENC =       339.31929130
  Ewald energy   TEWEN  =     -9065.31038255
  -1/2 Hartree   DENC   =     -8242.96923081
  -exchange  EXHF       =       341.62743535
  -V(xc)+E(xc)   XCENC  =       374.56206801
  PAW double counting   =     16207.00977764   -16710.34220779
  entropy T*S    EENTRO =         0.00042442
  eigenvalues    EBANDS =     -1632.35531031
  atomic energy  EATOM  =     18320.98302006
  ---------------------------------------------------
  free energy    TOTEN  =       -67.47488843 eV

  energy without entropy =      -67.47531284  energy(sigma->0) =      -67.47502990


--------------------------------------------------------------------------------------------------------




----------------------------------------- Iteration    1(   8)  ---------------------------------------


    POTLOK:  cpu time    0.06: real time    0.06
    SETDIJ:  cpu time    1.99: real time    1.99
 
    SUBROT:  cpu time    0.75: real time    0.75
    SUBROT:  cpu time    0.37: real time    0.37
    SUBROT:  cpu time    0.38: real time    0.38
    SUBROT:  cpu time    0.38: real time    0.38
    --------------------------------------------
    SUBRT+:  cpu time    1.88: real time    1.89

 Broyden mixing:
  rms(total) = 0.83690E-02    rms(broyden)= 0.83666E-02
  rms(prec ) = 0.14020E-01
  weight for this iteration     100.00

 eigenvalues of (default mixing * dielectric matrix)
  average eigenvalue GAMMA=   1.6730
  2.4572  0.9475  1.6143
 
    TRIAL :  cpu time  248.40: real time  248.19
    CORREC:  cpu time    0.00: real time    0.00
    CHARGE:  cpu time    0.08: real time    0.08
    --------------------------------------------
      LOOP:  cpu time  250.53: real time  250.32

 eigenvalue-minimisations  :     0
 total energy-change (2. order) :-0.1610614E+01  (-0.7700839E+00)
 number of electron     112.0001445 magnetization 
 augmentation part       37.7249825 magnetization 

 Free energy of the ion-electron system (eV)
  ---------------------------------------------------
  alpha Z        PSCENC =       339.31929130
  Ewald energy   TEWEN  =     -9065.31038255
  -1/2 Hartree   DENC   =     -8116.30963364
  -exchange  EXHF       =       339.52825139
  -V(xc)+E(xc)   XCENC  =       371.38561320
  PAW double counting   =     15916.02291865   -16397.37242313
  entropy T*S    EENTRO =         0.00071111
  eigenvalues    EBANDS =     -1777.33258222
  atomic energy  EATOM  =     18320.98302006
  ---------------------------------------------------
  free energy    TOTEN  =       -69.08550253 eV

  energy without entropy =      -69.08621364  energy(sigma->0) =      -69.08573956


--------------------------------------------------------------------------------------------------------




----------------------------------------- Iteration    1(   9)  ---------------------------------------


    POTLOK:  cpu time    0.05: real time    0.05
    SETDIJ:  cpu time    2.11: real time    2.11
 
    SUBROT:  cpu time    0.81: real time    0.81
    SUBROT:  cpu time    0.39: real time    0.39
    SUBROT:  cpu time    0.38: real time    0.39
    SUBROT:  cpu time    0.38: real time    0.38
    --------------------------------------------
    SUBRT+:  cpu time    1.97: real time    1.98

 Broyden mixing:
  rms(total) = 0.52093E-03    rms(broyden)= 0.52032E-03
  rms(prec ) = 0.82817E-03
  weight for this iteration     100.00

 eigenvalues of (default mixing * dielectric matrix)
  average eigenvalue GAMMA=   1.7007
  2.5253  1.0022  1.5745
 
    TRIAL :  cpu time  251.82: real time  251.62
    CORREC:  cpu time    0.00: real time    0.00
    CHARGE:  cpu time    0.06: real time    0.06
    --------------------------------------------
      LOOP:  cpu time  254.04: real time  253.84

 eigenvalue-minimisations  :     0
 total energy-change (2. order) :-0.3095871E+00  (-0.3862962E+00)
 number of electron     112.0001451 magnetization 
 augmentation part       37.9060555 magnetization 

 Free energy of the ion-electron system (eV)
  ---------------------------------------------------
  alpha Z        PSCENC =       339.31929130
  Ewald energy   TEWEN  =     -9065.31038255
  -1/2 Hartree   DENC   =     -8123.84181259
  -exchange  EXHF       =       339.59988797
  -V(xc)+E(xc)   XCENC  =       371.44642264
  PAW double counting   =     15912.20551796   -16393.44619879
  entropy T*S    EENTRO =         0.00084224
  eigenvalues    EBANDS =     -1770.35154678
  atomic energy  EATOM  =     18320.98302006
  ---------------------------------------------------
  free energy    TOTEN  =       -69.39508966 eV

  energy without entropy =      -69.39593191  energy(sigma->0) =      -69.39537041


--------------------------------------------------------------------------------------------------------




----------------------------------------- Iteration    1(  10)  ---------------------------------------


    POTLOK:  cpu time    0.06: real time    0.06
    SETDIJ:  cpu time    2.14: real time    2.14
 
    SUBROT:  cpu time    0.78: real time    0.78
    SUBROT:  cpu time    0.39: real time    0.39
    SUBROT:  cpu time    0.39: real time    0.39
    SUBROT:  cpu time    0.39: real time    0.39
    --------------------------------------------
    SUBRT+:  cpu time    1.95: real time    1.96

 Broyden mixing:
  rms(total) = 0.22908E-02    rms(broyden)= 0.22903E-02
  rms(prec ) = 0.38553E-02
  weight for this iteration     100.00

 eigenvalues of (default mixing * dielectric matrix)
  average eigenvalue GAMMA=   1.6862
  2.4752  0.9894  1.5942
 
    TRIAL :  cpu time  253.90: real time  253.70
    CORREC:  cpu time    0.00: real time    0.00
    CHARGE:  cpu time    0.07: real time    0.07
    --------------------------------------------
      LOOP:  cpu time  256.18: real time  255.98

 eigenvalue-minimisations  :     0
 total energy-change (2. order) :-0.1037757E+00  (-0.1521502E+00)
 number of electron     112.0001448 magnetization 
 augmentation part       37.8190634 magnetization 

 Free energy of the ion-electron system (eV)
  ---------------------------------------------------
  alpha Z        PSCENC =       339.31929130
  Ewald energy   TEWEN  =     -9065.31038255
  -1/2 Hartree   DENC   =     -8171.16255164
  -exchange  EXHF       =       340.40213167
  -V(xc)+E(xc)   XCENC  =       372.54224034
  PAW double counting   =     15993.96113280   -16481.92820438
  entropy T*S    EENTRO =         0.00069490
  eigenvalues    EBANDS =     -1718.30638517
  atomic energy  EATOM  =     18320.98302006
  ---------------------------------------------------
  free energy    TOTEN  =       -69.49886533 eV

  energy without entropy =      -69.49956023  energy(sigma->0) =      -69.49909696


--------------------------------------------------------------------------------------------------------




----------------------------------------- Iteration    1(  11)  ---------------------------------------


    POTLOK:  cpu time    0.06: real time    0.06
    SETDIJ:  cpu time    2.14: real time    2.14
 
    SUBROT:  cpu time    0.81: real time    0.81
    SUBROT:  cpu time    0.39: real time    0.39
    SUBROT:  cpu time    0.39: real time    0.39
    SUBROT:  cpu time    0.39: real time    0.39
    --------------------------------------------
    SUBRT+:  cpu time    1.98: real time    1.98

 Broyden mixing:
  rms(total) = 0.77878E-03    rms(broyden)= 0.77854E-03
  rms(prec ) = 0.15588E-02
  weight for this iteration     100.00

 eigenvalues of (default mixing * dielectric matrix)
  average eigenvalue GAMMA=   1.6706
  2.4947  0.9847  1.5322
 
    TRIAL :  cpu time  252.13: real time  251.91
    CORREC:  cpu time    0.00: real time    0.00
    CHARGE:  cpu time    0.08: real time    0.08
    --------------------------------------------
      LOOP:  cpu time  254.42: real time  254.21

 eigenvalue-minimisations  :     0
 total energy-change (2. order) :-0.6955693E-01  (-0.3689559E-01)
 number of electron     112.0001447 magnetization 
 augmentation part       37.7862452 magnetization 

 Free energy of the ion-electron system (eV)
  ---------------------------------------------------
  alpha Z        PSCENC =       339.31929130
  Ewald energy   TEWEN  =     -9065.31038255
  -1/2 Hartree   DENC   =     -8149.83161741
  -exchange  EXHF       =       340.07427036
  -V(xc)+E(xc)   XCENC  =       372.06983347
  PAW double counting   =     15942.07020876   -16427.00346539
  entropy T*S    EENTRO =         0.00058351
  eigenvalues    EBANDS =     -1741.94027577
  atomic energy  EATOM  =     18320.98302006
  ---------------------------------------------------
  free energy    TOTEN  =       -69.56842226 eV

  energy without entropy =      -69.56900577  energy(sigma->0) =      -69.56861676


--------------------------------------------------------------------------------------------------------




----------------------------------------- Iteration    1(  12)  ---------------------------------------


    POTLOK:  cpu time    0.05: real time    0.05
    SETDIJ:  cpu time    2.09: real time    2.09
 
    SUBROT:  cpu time    0.82: real time    0.82
    SUBROT:  cpu time    0.39: real time    0.39
    SUBROT:  cpu time    0.38: real time    0.38
    SUBROT:  cpu time    0.39: real time    0.39
    --------------------------------------------
    SUBRT+:  cpu time    1.98: real time    1.98

 Broyden mixing:
  rms(total) = 0.20847E-03    rms(broyden)= 0.20838E-03
  rms(prec ) = 0.45575E-03
  weight for this iteration     100.00

 eigenvalues of (default mixing * dielectric matrix)
  average eigenvalue GAMMA=   1.6504
  2.5058  0.9997  1.4458
 
    TRIAL :  cpu time  252.03: real time  251.81
    CORREC:  cpu time    0.00: real time    0.00
    CHARGE:  cpu time    0.07: real time    0.08
    --------------------------------------------
      LOOP:  cpu time  254.25: real time  254.03

 eigenvalue-minimisations  :     0
 total energy-change (2. order) :-0.1233933E-01  (-0.2283312E-01)
 number of electron     112.0001449 magnetization 
 augmentation part       37.8265080 magnetization 

 Free energy of the ion-electron system (eV)
  ---------------------------------------------------
  alpha Z        PSCENC =       339.31929130
  Ewald energy   TEWEN  =     -9065.31038255
  -1/2 Hartree   DENC   =     -8141.45396838
  -exchange  EXHF       =       339.95827487
  -V(xc)+E(xc)   XCENC  =       371.89490915
  PAW double counting   =     15920.28413013   -16404.13127725
  entropy T*S    EENTRO =         0.00053417
  eigenvalues    EBANDS =     -1751.12534243
  atomic energy  EATOM  =     18320.98302006
  ---------------------------------------------------
  free energy    TOTEN  =       -69.58076159 eV

  energy without entropy =      -69.58129576  energy(sigma->0) =      -69.58093964


--------------------------------------------------------------------------------------------------------




----------------------------------------- Iteration    1(  13)  ---------------------------------------


    POTLOK:  cpu time    0.06: real time    0.06
    SETDIJ:  cpu time    2.09: real time    2.09
 
    SUBROT:  cpu time    0.82: real time    0.82
    SUBROT:  cpu time    0.41: real time    0.41
    SUBROT:  cpu time    0.40: real time    0.40
    SUBROT:  cpu time    0.41: real time    0.41
    --------------------------------------------
    SUBRT+:  cpu time    2.04: real time    2.05

 Broyden mixing:
  rms(total) = 0.55372E-03    rms(broyden)= 0.55361E-03
  rms(prec ) = 0.94156E-03
  weight for this iteration     100.00

 eigenvalues of (default mixing * dielectric matrix)
  average eigenvalue GAMMA=   1.6954
  2.4801  0.9967  1.6093
 
    TRIAL :  cpu time  251.00: real time  250.78
    CORREC:  cpu time    0.00: real time    0.00
    CHARGE:  cpu time    0.08: real time    0.08
    --------------------------------------------
      LOOP:  cpu time  253.24: real time  253.03

 eigenvalue-minimisations  :     0
 total energy-change (2. order) :-0.9652818E-02  (-0.5114096E-02)
 number of electron     112.0001449 magnetization 
 augmentation part       37.8304128 magnetization 

 Free energy of the ion-electron system (eV)
  ---------------------------------------------------
  alpha Z        PSCENC =       339.31929130
  Ewald energy   TEWEN  =     -9065.31038255
  -1/2 Hartree   DENC   =     -8151.33932325
  -exchange  EXHF       =       340.13068418
  -V(xc)+E(xc)   XCENC  =       372.12873039
  PAW double counting   =     15936.51226050   -16421.85036047
  entropy T*S    EENTRO =         0.00052308
  eigenvalues    EBANDS =     -1740.16486873
  atomic energy  EATOM  =     18320.98302006
  ---------------------------------------------------
  free energy    TOTEN  =       -69.59041440 eV

  energy without entropy =      -69.59093749  energy(sigma->0) =      -69.59058876


--------------------------------------------------------------------------------------------------------




----------------------------------------- Iteration    1(  14)  ---------------------------------------


    POTLOK:  cpu time    0.07: real time    0.07
    SETDIJ:  cpu time    2.09: real time    2.09
 
    SUBROT:  cpu time    0.83: real time    0.83
    SUBROT:  cpu time    0.40: real time    0.40
    SUBROT:  cpu time    0.40: real time    0.40
    SUBROT:  cpu time    0.40: real time    0.40
    --------------------------------------------
    SUBRT+:  cpu time    2.03: real time    2.04

 Broyden mixing:
  rms(total) = 0.68266E-04    rms(broyden)= 0.68252E-04
  rms(prec ) = 0.14012E-03
  weight for this iteration     100.00

 eigenvalues of (default mixing * dielectric matrix)
  average eigenvalue GAMMA=   1.6732
  2.5153  0.9911  1.5134
 
    TRIAL :  cpu time  253.16: real time  252.95
    CORREC:  cpu time    0.00: real time    0.00
    CHARGE:  cpu time    0.09: real time    0.09
    --------------------------------------------
      LOOP:  cpu time  255.40: real time  255.19

 eigenvalue-minimisations  :     0
 total energy-change (2. order) :-0.2450096E-02  (-0.3776680E-02)
 number of electron     112.0001448 magnetization 
 augmentation part       37.8128780 magnetization 

 Free energy of the ion-electron system (eV)
  ---------------------------------------------------
  alpha Z        PSCENC =       339.31929130
  Ewald energy   TEWEN  =     -9065.31038255
  -1/2 Hartree   DENC   =     -8151.87684419
  -exchange  EXHF       =       340.12891412
  -V(xc)+E(xc)   XCENC  =       372.13823722
  PAW double counting   =     15934.48802614   -16419.98928968
  entropy T*S    EENTRO =         0.00054015
  eigenvalues    EBANDS =     -1739.47436001
  atomic energy  EATOM  =     18320.98302006
  ---------------------------------------------------
  free energy    TOTEN  =       -69.59286450 eV

  energy without entropy =      -69.59340465  energy(sigma->0) =      -69.59304455


--------------------------------------------------------------------------------------------------------




----------------------------------------- Iteration    1(  15)  ---------------------------------------


    POTLOK:  cpu time    0.05: real time    0.05
    SETDIJ:  cpu time    2.11: real time    2.11
 
    SUBROT:  cpu time    0.83: real time    0.83
    SUBROT:  cpu time    0.40: real time    0.40
    SUBROT:  cpu time    0.40: real time    0.39
    SUBROT:  cpu time    0.40: real time    0.41
    --------------------------------------------
    SUBRT+:  cpu time    2.03: real time    2.05

 Broyden mixing:
  rms(total) = 0.19376E-03    rms(broyden)= 0.19370E-03
  rms(prec ) = 0.33104E-03
  weight for this iteration     100.00

 eigenvalues of (default mixing * dielectric matrix)
  average eigenvalue GAMMA=   1.6875
  2.4719  0.9897  1.6007
 
    TRIAL :  cpu time  253.55: real time  253.34
    CORREC:  cpu time    0.00: real time    0.00
    CHARGE:  cpu time    0.08: real time    0.08
    --------------------------------------------
      LOOP:  cpu time  255.80: real time  255.59

 eigenvalue-minimisations  :     0
 total energy-change (2. order) :-0.1503273E-02  (-0.1036040E-02)
 number of electron     112.0001448 magnetization 
 augmentation part       37.8172074 magnetization 

 Free energy of the ion-electron system (eV)
  ---------------------------------------------------
  alpha Z        PSCENC =       339.31929130
  Ewald energy   TEWEN  =     -9065.31038255
  -1/2 Hartree   DENC   =     -8147.16980743
  -exchange  EXHF       =       340.03984057
  -V(xc)+E(xc)   XCENC  =       372.02704977
  PAW double counting   =     15922.45001689   -16407.34025592
  entropy T*S    EENTRO =         0.00055250
  eigenvalues    EBANDS =     -1744.59368061
  atomic energy  EATOM  =     18320.98302006
  ---------------------------------------------------
  free energy    TOTEN  =       -69.59436777 eV

  energy without entropy =      -69.59492027  energy(sigma->0) =      -69.59455194


--------------------------------------------------------------------------------------------------------




----------------------------------------- Iteration    1(  16)  ---------------------------------------


    POTLOK:  cpu time    0.05: real time    0.05
    SETDIJ:  cpu time    2.08: real time    2.08
 
    SUBROT:  cpu time    0.84: real time    0.84
    SUBROT:  cpu time    0.41: real time    0.41
    SUBROT:  cpu time    0.39: real time    0.39
    SUBROT:  cpu time    0.39: real time    0.40
    --------------------------------------------
    SUBRT+:  cpu time    2.04: real time    2.05

 Broyden mixing:
  rms(total) = 0.83880E-04    rms(broyden)= 0.83862E-04
  rms(prec ) = 0.14016E-03
  weight for this iteration     100.00

 eigenvalues of (default mixing * dielectric matrix)
  average eigenvalue GAMMA=   1.6868
  2.4863  0.9900  1.5842
 
    TRIAL :  cpu time  252.68: real time  252.47
    CORREC:  cpu time    0.00: real time    0.00
    CHARGE:  cpu time    0.08: real time    0.09
    --------------------------------------------
      LOOP:  cpu time  254.91: real time  254.69

 eigenvalue-minimisations  :     0
 total energy-change (2. order) :-0.5695935E-03  (-0.4086318E-03)
 number of electron     112.0001448 magnetization 
 augmentation part       37.8220158 magnetization 

 Free energy of the ion-electron system (eV)
  ---------------------------------------------------
  alpha Z        PSCENC =       339.31929130
  Ewald energy   TEWEN  =     -9065.31038255
  -1/2 Hartree   DENC   =     -8148.29025031
  -exchange  EXHF       =       340.05844448
  -V(xc)+E(xc)   XCENC  =       372.05426235
  PAW double counting   =     15923.32025904   -16408.39895887
  entropy T*S    EENTRO =         0.00055329
  eigenvalues    EBANDS =     -1743.33117537
  atomic energy  EATOM  =     18320.98302006
  ---------------------------------------------------
  free energy    TOTEN  =       -69.59493737 eV

[...]
     22      -2.2902      2.00000
     23      -1.9495      2.00000
     24      -1.6226      2.00000
     25      -1.2175      2.00000
     26      -1.0071      2.00000
     27      -0.9752      2.00000
     28      -0.7110      2.00000
     29      -0.5473      2.00000
     30      -0.3886      2.00000
     31      -0.2862      2.00000
     32      -0.1968      2.00000
     33      -0.1803      2.00000
     34      -0.1396      2.00000
     35      -0.0165      2.00000
     36       0.0196      2.00000
     37       1.2972      2.00000
     38       1.3089      2.00000
     39       1.3708      2.00000
     40       1.4124      2.00000
     41       1.4531      2.00000
     42       1.4682      2.00000
     43       1.5069      2.00000
     44       1.5513      2.00000
     45       1.7671      2.00000
     46       1.8959      2.00000
     47       1.9837      2.00000
     48       2.1519      2.00000
     49       2.3723      2.00000
     50       2.5756      2.00000
     51       2.7024      2.00000
     52       2.9086      2.00000
     53       3.0130      2.00000
     54       3.2211      2.00000
     55       3.4017      2.00000
     56       3.6565      2.00000
     57       6.3763     -0.00000
     58       6.5269     -0.00000
     59       7.7208      0.00000
     60       7.8974      0.00000
     61       8.2969      0.00000
     62       8.5711      0.00000
     63       9.3256      0.00000
     64       9.8415      0.00000
     65      10.0244      0.00000
     66      10.3541      0.00000
     67      10.5863      0.00000
     68      10.7871      0.00000
     69      10.9795      0.00000
     70      11.2594      0.00000
     71      11.3092      0.00000
     72      11.7022      0.00000
     73      12.2528      0.00000
     74      12.4641      0.00000
     75      13.0922      0.00000
     76      13.4766      0.00000
     77      13.8256      0.00000
     78      14.6849      0.00000
     79      15.0026      0.00000
     80      15.7273      0.00000

 k-point  40 :       0.2500   -0.2500    0.4000
  band No.  band energies     occupation 
      1     -68.6453      2.00000
      2     -68.6401      2.00000
      3     -68.6330      2.00000
      4     -68.6332      2.00000
      5     -68.6130      2.00000
      6     -68.6083      2.00000
      7     -68.5958      2.00000
      8     -68.5907      2.00000
      9     -68.5770      2.00000
     10     -68.5770      2.00000
     11     -68.5603      2.00000
     12     -68.5600      2.00000
     13     -12.2238      2.00000
     14     -11.8220      2.00000
     15     -10.8224      2.00000
     16     -10.6709      2.00000
     17     -10.3493      2.00000
     18     -10.2763      2.00000
     19      -5.4488      2.00000
     20      -5.1161      2.00000
     21      -2.4319      2.00000
     22      -2.1566      2.00000
     23      -2.0177      2.00000
     24      -1.5268      2.00000
     25      -1.3541      2.00000
     26      -1.1641      2.00000
     27      -0.9369      2.00000
     28      -0.8134      2.00000
     29      -0.5833      2.00000
     30      -0.5338      2.00000
     31      -0.2782      2.00000
     32      -0.2356      2.00000
     33      -0.1344      2.00000
     34      -0.0885      2.00000
     35      -0.0228      2.00000
     36       0.0346      2.00000
     37       1.3140      2.00000
     38       1.3471      2.00000
     39       1.3656      2.00000
     40       1.3997      2.00000
     41       1.4528      2.00000
     42       1.4825      2.00000
     43       1.4996      2.00000
     44       1.5658      2.00000
     45       1.8034      2.00000
     46       1.8474      2.00000
     47       1.9608      2.00000
     48       2.1089      2.00000
     49       2.2967      2.00000
     50       2.5317      2.00000
     51       2.6395      2.00000
     52       2.7700      2.00000
     53       2.9290      2.00000
     54       3.1608      2.00000
     55       3.3040      2.00000
     56       3.5756      2.00000
     57       6.5654     -0.00000
     58       6.7164     -0.00000
     59       7.9680      0.00000
     60       8.0023      0.00000
     61       8.7327      0.00000
     62       9.0896      0.00000
     63       9.4624      0.00000
     64       9.8297      0.00000
     65      10.2960      0.00000
     66      10.3677      0.00000
     67      10.7734      0.00000
     68      10.8482      0.00000
     69      11.1132      0.00000
     70      11.2727      0.00000
     71      11.3702      0.00000
     72      11.6202      0.00000
     73      12.0461      0.00000
     74      12.2942      0.00000
     75      12.6512      0.00000
     76      13.1240      0.00000
     77      13.2869      0.00000
     78      14.2373      0.00000
     79      15.6300      0.00000
     80      15.8298      0.00000

 k-point  41 :       0.5000   -0.2500    0.4000
  band No.  band energies     occupation 
      1     -68.6452      2.00000
      2     -68.6400      2.00000
      3     -68.6329      2.00000
      4     -68.6329      2.00000
      5     -68.6130      2.00000
      6     -68.6083      2.00000
      7     -68.5956      2.00000
      8     -68.5906      2.00000
      9     -68.5770      2.00000
     10     -68.5770      2.00000
     11     -68.5599      2.00000
     12     -68.5603      2.00000
     13     -12.0840      2.00000
     14     -11.7801      2.00000
     15     -10.8467      2.00000
     16     -10.7572      2.00000
     17     -10.5321      2.00000
     18     -10.3157      2.00000
     19      -5.4220      2.00000
     20      -4.9405      2.00000
     21      -2.4021      2.00000
     22      -2.1338      2.00000
     23      -1.8625      2.00000
     24      -1.7217      2.00000
     25      -1.4508      2.00000
     26      -1.1211      2.00000
     27      -0.8821      2.00000
     28      -0.6474      2.00000
     29      -0.6006      2.00000
     30      -0.4477      2.00000
     31      -0.2616      2.00000
     32      -0.1813      2.00000
     33      -0.1192      2.00000
     34      -0.0522      2.00000
     35      -0.0195      2.00000
     36       0.0248      2.00000
     37       1.2633      2.00000
     38       1.3182      2.00000
     39       1.4121      2.00000
     40       1.4379      2.00000
     41       1.4852      2.00000
     42       1.4943      2.00000
     43       1.5156      2.00000
     44       1.5758      2.00000
     45       1.7618      2.00000
     46       1.8431      2.00000
     47       2.1186      2.00000
     48       2.1825      2.00000
     49       2.3670      2.00000
     50       2.4616      2.00000
     51       2.4932      2.00000
     52       2.6964      2.00000
     53       2.8237      2.00000
     54       3.0897      2.00000
     55       3.2910      2.00000
     56       3.5263      2.00000
     57       6.5020     -0.00000
     58       6.5811     -0.00000
     59       7.4529      0.00000
     60       7.7210      0.00000
     61       8.5964      0.00000
     62       8.7460      0.00000
     63       9.2985      0.00000
     64       9.5375      0.00000
     65       9.9495      0.00000
     66      10.1837      0.00000
     67      10.6783      0.00000
     68      11.1094      0.00000
     69      11.2500      0.00000
     70      11.5619      0.00000
     71      11.7050      0.00000
     72      11.8932      0.00000
     73      12.3013      0.00000
     74      12.6582      0.00000
     75      13.0079      0.00000
     76      13.2299      0.00000
     77      13.6638      0.00000
     78      14.0647      0.00000
     79      14.3884      0.00000
     80      16.5211      0.00000

 k-point  42 :      -0.2500   -0.2500    0.4000
  band No.  band energies     occupation 
      1     -68.6453      2.00000
      2     -68.6402      2.00000
      3     -68.6328      2.00000
      4     -68.6330      2.00000
      5     -68.6129      2.00000
      6     -68.6084      2.00000
      7     -68.5956      2.00000
      8     -68.5906      2.00000
      9     -68.5770      2.00000
     10     -68.5770      2.00000
     11     -68.5605      2.00000
     12     -68.5601      2.00000
     13     -12.1831      2.00000
     14     -11.7097      2.00000
     15     -10.7169      2.00000
     16     -10.6921      2.00000
     17     -10.5863      2.00000
     18     -10.3914      2.00000
     19      -5.4487      2.00000
     20      -5.0726      2.00000
     21      -2.5081      2.00000
     22      -2.3825      2.00000
     23      -1.9631      2.00000
     24      -1.3671      2.00000
     25      -1.3344      2.00000
     26      -1.0545      2.00000
     27      -0.8336      2.00000
     28      -0.7651      2.00000
     29      -0.4211      2.00000
     30      -0.3349      2.00000
     31      -0.2712      2.00000
     32      -0.2076      2.00000
     33      -0.1403      2.00000
     34      -0.1394      2.00000
     35      -0.0127      2.00000
     36       0.0307      2.00000
     37       1.1740      2.00000
     38       1.3726      2.00000
     39       1.3986      2.00000
     40       1.4544      2.00000
     41       1.4556      2.00000
     42       1.4999      2.00000
     43       1.5185      2.00000
     44       1.5517      2.00000
     45       1.7451      2.00000
     46       1.8235      2.00000
     47       1.9764      2.00000
     48       2.2268      2.00000
     49       2.3971      2.00000
     50       2.6105      2.00000
     51       2.6560      2.00000
     52       2.9167      2.00000
     53       3.0691      2.00000
     54       3.1162      2.00000
     55       3.2885      2.00000
     56       3.5836      2.00000
     57       6.2875     -0.00000
     58       6.3882     -0.00000
     59       7.3544      0.00000
     60       7.5265      0.00000
     61       8.3091      0.00000
     62       8.3345      0.00000
     63       9.1051      0.00000
     64       9.3610      0.00000
     65       9.7146      0.00000
     66       9.9481      0.00000
     67      10.5272      0.00000
     68      10.9859      0.00000
     69      11.4268      0.00000
     70      11.5647      0.00000
     71      12.0144      0.00000
     72      12.2806      0.00000
     73      12.4289      0.00000
     74      12.4769      0.00000
     75      13.0371      0.00000
     76      13.1531      0.00000
     77      14.1358      0.00000
     78      14.4412      0.00000
     79      15.1637      0.00000
     80      15.8704      0.00000


--------------------------------------------------------------------------------------------------------


 soft charge-density along one line, spin component           1
         0         1         2         3         4         5         6         7         8         9
 total charge-density along one line
 
 pseudopotential strength for first ion, spin component:           1
-65.420   0.002   0.006   7.361   0.000  -0.003   0.001   0.008
  0.002 -65.389  -0.005   0.000   7.351   0.002  -0.001  -0.024
  0.006  -0.005 -65.380  -0.003   0.002   7.348  -0.037  -0.001
  7.361   0.000  -0.003   6.111   0.000   0.001   0.002  -0.004
  0.000   7.351   0.002   0.000   6.114  -0.000   0.000   0.007
 -0.003   0.002   7.348   0.001  -0.000   6.114   0.009   0.000
  0.001  -0.001  -0.037   0.002   0.000   0.009  -2.976  -0.003
  0.008  -0.024  -0.001  -0.004   0.007   0.000  -0.003  -2.981
  0.023   0.043   0.009  -0.005  -0.008  -0.003  -0.003   0.008
 -0.001  -0.017   0.008   0.000   0.005  -0.004   0.004   0.007
  0.026   0.000  -0.035  -0.007  -0.000   0.007  -0.000   0.007
  0.001  -0.001  -0.037   0.002   0.000   0.009  -3.622  -0.003
  0.007  -0.024  -0.001  -0.004   0.007   0.000  -0.003  -3.627
  0.022   0.042   0.009  -0.005  -0.008  -0.003  -0.003   0.008
 -0.001  -0.017   0.007   0.000   0.004  -0.004   0.004   0.007
  0.026   0.000  -0.034  -0.007  -0.000   0.006  -0.000   0.007
  0.008  -0.005   0.004  -0.001   0.001  -0.001  -0.002   0.001
  0.016  -0.010   0.009  -0.002   0.001  -0.002  -0.003   0.001
 total augmentation occupancy for first ion, spin component:           1
  2.000  -0.000   0.000  -0.003  -0.000   0.000   0.007  -0.005   0.001  -0.001  -0.005  -0.007   0.005  -0.001   0.001   0.005
 -0.000   2.000  -0.000  -0.000  -0.003   0.000  -0.001   0.005   0.004   0.001   0.000   0.001  -0.005  -0.005  -0.001  -0.000
  0.000  -0.000   2.000   0.000   0.000  -0.003  -0.000  -0.000  -0.001  -0.005  -0.004   0.000   0.000   0.001   0.005   0.005
 -0.003  -0.000   0.000   0.094   0.006  -0.005  -0.331   0.231  -0.077   0.011   0.014   0.278  -0.196   0.060  -0.007  -0.009
 -0.000  -0.003   0.000   0.006   0.102   0.001   0.020  -0.047  -0.444   0.015   0.012  -0.013   0.037   0.376  -0.011  -0.010
  0.000   0.000  -0.003  -0.005   0.001   0.099   0.099  -0.003  -0.015   0.236   0.353  -0.078   0.002   0.012  -0.202  -0.296
  0.007  -0.001  -0.000  -0.331   0.020   0.099   4.000  -0.791   0.105   0.215   0.154  -1.728   0.742  -0.097  -0.182  -0.148
 -0.005   0.005  -0.000   0.231  -0.047  -0.003  -0.791   3.510   0.284   0.161   0.292   0.741  -1.269  -0.209  -0.116  -0.202
  0.001   0.004  -0.001  -0.077  -0.444  -0.015   0.105   0.284   4.684  -0.043  -0.122  -0.097  -0.210  -2.393   0.036   0.092
 -0.001   0.001  -0.005   0.011   0.015   0.236   0.215   0.161  -0.043   3.633   0.795  -0.182  -0.116   0.036  -1.353  -0.757
 -0.005   0.000  -0.004   0.014   0.012   0.353   0.154   0.292  -0.122   0.795   3.986  -0.148  -0.201   0.091  -0.757  -1.733
 -0.007   0.001   0.000   0.278  -0.013  -0.078  -1.728   0.741  -0.097  -0.182  -0.148   1.433  -0.693   0.090   0.154   0.142
  0.005  -0.005   0.000  -0.196   0.037   0.002   0.742  -1.269  -0.210  -0.116  -0.201  -0.693   1.004   0.149   0.079   0.128
 -0.001  -0.005   0.001   0.060   0.376   0.012  -0.097  -0.209  -2.393   0.036   0.091   0.090   0.149   2.078  -0.031  -0.068
  0.001  -0.001   0.005  -0.007  -0.011  -0.202  -0.182  -0.116   0.036  -1.353  -0.757   0.154   0.079  -0.031   1.059   0.719
  0.005  -0.000   0.005  -0.009  -0.010  -0.296  -0.148  -0.202   0.092  -0.757  -1.733   0.142   0.128  -0.068   0.719   1.453
 -0.025   0.016  -0.013  -0.021   0.012  -0.007   0.085  -0.103  -0.029  -0.007   0.019  -0.067   0.090   0.040   0.007   0.010
  0.012  -0.008   0.006   0.001  -0.000   0.000  -0.009   0.004  -0.004   0.005  -0.019   0.005  -0.005  -0.002  -0.001   0.002


------------------------ aborting loop because EDIFF is reached ----------------------------------------


    FORLOC:  cpu time    0.05: real time    0.05
    FORHF :  cpu time  461.89: real time  461.61
    FORNL :  cpu time    0.40: real time    0.40
    FORCOR:  cpu time    2.15: real time    2.15

 VOLUME and BASIS-vectors are now :
 -----------------------------------------------------------------------------
  energy-cutoff  :      400.00
  volume of cell :      221.90
      direct lattice vectors                 reciprocal lattice vectors
     3.224796000 -5.643830000  0.031572000     0.154525165 -0.088592321  0.053460880
     3.224796000  5.643830000  0.031572000     0.154525165  0.088592321  0.053460880
    -2.101946000  0.000000000  6.075537000    -0.001606004  0.000000000  0.164038877

  length of vectors
     6.500240234  6.500240234  6.428866683     0.185969598  0.185969598  0.164046738


 FORCES acting on ions:
    Electron-Ion                     Ewald-Force                    Non-Local-Force
 -----------------------------------------------------------------------------------------------
   -.149E+02 -.985E+02 0.112E+02   0.137E+02 0.961E+02 -.955E+01   0.105E+01 0.214E+01 -.145E+01
   -.145E+02 0.972E+02 0.118E+02   0.133E+02 -.948E+02 -.102E+02   0.103E+01 -.211E+01 -.142E+01
   0.258E+02 -.169E+02 0.363E+01   -.225E+02 0.167E+02 -.234E+01   -.287E+01 0.163E+00 -.113E+01
   0.254E+02 0.170E+02 0.474E+01   -.222E+02 -.168E+02 -.346E+01   -.285E+01 -.158E+00 -.111E+01
   -.109E+02 -.315E+02 -.105E+02   0.102E+02 0.302E+02 0.942E+01   0.678E+00 0.134E+01 0.107E+01
   -.111E+02 0.318E+02 -.113E+02   0.104E+02 -.305E+02 0.101E+02   0.703E+00 -.138E+01 0.112E+01
   -.135E+03 -.990E+01 -.490E+02   0.132E+03 0.993E+01 0.481E+02   0.279E+01 -.280E-01 0.718E+00
   0.707E+02 -.125E+03 0.957E+02   -.689E+02 0.122E+03 -.936E+02   -.159E+01 0.230E+01 -.180E+01
   0.665E+02 -.133E+03 -.495E+02   -.650E+02 0.130E+03 0.485E+02   -.135E+01 0.218E+01 0.857E+00
   0.702E+02 0.126E+03 0.965E+02   -.685E+02 -.123E+03 -.944E+02   -.155E+01 -.230E+01 -.190E+01
   -.135E+03 0.990E+01 -.493E+02   0.132E+03 -.993E+01 0.485E+02   0.279E+01 0.237E-01 0.730E+00
   0.665E+02 0.133E+03 -.499E+02   -.650E+02 -.130E+03 0.489E+02   -.134E+01 -.218E+01 0.876E+00
 -----------------------------------------------------------------------------------------------
   0.276E+01 0.146E-02 0.389E+01   -.426E-13 -.284E-13 -.426E-13   -.251E+01 0.222E-02 -.343E+01
 
 
 POSITION                                       TOTAL-FORCE (eV/Angst)
 -----------------------------------------------------------------------------------
      2.13385     -2.80652      0.74958         0.001185      0.002592     -0.002243
      1.08288      2.80652      3.78735        -0.002625      0.001407      0.001047
      5.40423     -0.97432      0.77721         0.005055     -0.001890     -0.000007
      4.35326      0.97432      3.81498         0.002408     -0.000294      0.001207
      1.02081     -0.97328      3.66185        -0.000897      0.006004     -0.048673
      2.07178      0.97328      0.62409         0.010157     -0.019102     -0.009455
      2.15090      4.69667      3.05304        -0.002890      0.001456     -0.009203
      1.11542     -0.89759      5.97675        -0.025260      0.007200      0.097649
      2.14287     -2.74882      3.03886         0.000928      0.003787     -0.012905
      2.16313      0.89759      2.94844         0.003578      0.004552     -0.011414
      1.09993     -4.69667      6.09081         0.006270     -0.002875     -0.003191
      1.09189      2.74882      6.07662         0.002090     -0.002838     -0.002813
 -----------------------------------------------------------------------------------
    total drift:                               -0.058850     -0.001024     -0.053872


--------------------------------------------------------------------------------------------------------



  FREE ENERGIE OF THE ION-ELECTRON SYSTEM (eV)
  ---------------------------------------------------
  free  energy   TOTEN  =       -69.59528234 eV

  energy  without entropy=      -69.59582954  energy(sigma->0) =      -69.59546474
 


--------------------------------------------------------------------------------------------------------


    POTLOK:  cpu time    2.18: real time    2.18


--------------------------------------------------------------------------------------------------------


 writing wavefunctions
     LOOP+:  cpu time 5766.35: real time 5763.38
    4ORBIT:  cpu time    0.00: real time    0.00

 total amount of memory used by VASP on root node   155705. kBytes
========================================================================

   base      :      30000. kBytes
   nonl-proj :      74517. kBytes
   fftplans  :        702. kBytes
   grid      :       2400. kBytes
   one-center:        186. kBytes
   HF        :        194. kBytes
   nonlr-proj:       5130. kBytes
   wavefun   :      42576. kBytes
 
  
  
 General timing and accounting informations for this job:
 ========================================================
  
                  Total CPU time used (sec):     5803.651
                            User time (sec):     5801.657
                          System time (sec):        1.994
                         Elapsed time (sec):     5801.932
  
                   Maximum memory used (kb):      301352.
                   Average memory used (kb):           0.
  
                          Minor page faults:        79579
                          Major page faults:            0
                 Voluntary context switches:         3675
