<?xml version="1.0" encoding="ISO-8859-1"?>
<modeling>
 <generator>
  <i name="program" type="string">vasp </i>
  <i name="version" type="string">5.3.3  </i>
  <i name="subversion" type="string">18Dez12 (build Nov 13 2015 09:58:40) complex                          parallel </i>
  <i name="platform" type="string">LinuxIFC </i>
  <i name="date" type="string">2017 10 18 </i>
  <i name="time" type="string">13:17:39 </i>
 </generator>
 <incar>
  <i type="string" name="SYSTEM"> CGS</i>
  <i type="string" name="PREC">normal</i>
  <i type="string" name="ALGO"> D</i>
  <i type="logical" name="LDIAG"> T  </i>
  <i name="EDIFF">      0.00001000</i>
  <i name="ENCUT">    400.00000000</i>
  <i name="TIME">      0.40000000</i>
  <i type="int" name="ISMEAR">     1</i>
  <i name="SIGMA">      0.10000000</i>
  <i type="logical" name="LHFCALC"> T  </i>
  <i type="string" name="GGA"> PE</i>
  <i name="HFSCREEN">      0.20000000</i>
  <i name="AEXX">      0.25000000</i>
  <i type="string" name="PRECFOCK">fast</i>
 </incar>
 <kpoints>
  <generation param="Gamma">
   <v type="int" name="divisions">       4        4        5 </v>
   <v name="usershift">      0.00000000       0.00000000       0.00000000 </v>
   <v name="genvec1">      0.25000000       0.00000000       0.00000000 </v>
   <v name="genvec2">      0.00000000       0.25000000       0.00000000 </v>
   <v name="genvec3">      0.00000000       0.00000000       0.20000000 </v>
   <v name="shift">      0.00000000       0.00000000       0.00000000 </v>
  </generation>
  <varray name="kpointlist" >
   <v>       0.00000000       0.00000000       0.00000000 </v>
   <v>       0.25000000       0.00000000       0.00000000 </v>
   <v>       0.50000000       0.00000000       0.00000000 </v>
   <v>       0.00000000       0.25000000       0.00000000 </v>
   <v>       0.25000000       0.25000000       0.00000000 </v>
   <v>       0.50000000       0.25000000      -0.00000000 </v>
   <v>      -0.25000000       0.25000000       0.00000000 </v>
   <v>       0.00000000       0.50000000       0.00000000 </v>
   <v>       0.25000000       0.50000000      -0.00000000 </v>
   <v>       0.50000000       0.50000000       0.00000000 </v>
   <v>      -0.00000000      -0.00000000       0.20000000 </v>
   <v>       0.25000000       0.00000000       0.20000000 </v>
   <v>       0.50000000       0.00000000       0.20000000 </v>
   <v>      -0.25000000      -0.00000000       0.20000000 </v>
   <v>       0.00000000       0.25000000       0.20000000 </v>
   <v>       0.25000000       0.25000000       0.20000000 </v>
   <v>       0.50000000       0.25000000       0.20000000 </v>
   <v>      -0.25000000       0.25000000       0.20000000 </v>
   <v>       0.00000000       0.50000000       0.20000000 </v>
   <v>       0.25000000       0.50000000       0.20000000 </v>
   <v>       0.50000000       0.50000000       0.20000000 </v>
   <v>      -0.25000000       0.50000000       0.20000000 </v>
   <v>      -0.00000000      -0.25000000       0.20000000 </v>
   <v>       0.25000000      -0.25000000       0.20000000 </v>
   <v>       0.50000000      -0.25000000       0.20000000 </v>
   <v>      -0.25000000      -0.25000000       0.20000000 </v>
   <v>      -0.00000000      -0.00000000       0.40000000 </v>
   <v>       0.25000000       0.00000000       0.40000000 </v>
   <v>       0.50000000       0.00000000       0.40000000 </v>
   <v>      -0.25000000       0.00000000       0.40000000 </v>
   <v>       0.00000000       0.25000000       0.40000000 </v>
   <v>       0.25000000       0.25000000       0.40000000 </v>
   <v>       0.50000000       0.25000000       0.40000000 </v>
   <v>      -0.25000000       0.25000000       0.40000000 </v>
   <v>       0.00000000       0.50000000       0.40000000 </v>
   <v>       0.25000000       0.50000000       0.40000000 </v>
   <v>       0.50000000       0.50000000       0.40000000 </v>
   <v>      -0.25000000       0.50000000       0.40000000 </v>
   <v>       0.00000000      -0.25000000       0.40000000 </v>
   <v>       0.25000000      -0.25000000       0.40000000 </v>
   <v>       0.50000000      -0.25000000       0.40000000 </v>
   <v>      -0.25000000      -0.25000000       0.40000000 </v>
  </varray>
  <varray name="weights" >
   <v>       0.01250000 </v>
   <v>       0.02500000 </v>
   <v>       0.01250000 </v>
   <v>       0.02500000 </v>
   <v>       0.02500000 </v>
   <v>       0.02500000 </v>
   <v>       0.02500000 </v>
   <v>       0.01250000 </v>
   <v>       0.02500000 </v>
   <v>       0.01250000 </v>
   <v>       0.02500000 </v>
   <v>       0.02500000 </v>
   <v>       0.02500000 </v>
   <v>       0.02500000 </v>
   <v>       0.02500000 </v>
   <v>       0.02500000 </v>
   <v>       0.02500000 </v>
   <v>       0.02500000 </v>
   <v>       0.02500000 </v>
   <v>       0.02500000 </v>
   <v>       0.02500000 </v>
   <v>       0.02500000 </v>
   <v>       0.02500000 </v>
   <v>       0.02500000 </v>
   <v>       0.02500000 </v>
   <v>       0.02500000 </v>
   <v>       0.02500000 </v>
   <v>       0.02500000 </v>
   <v>       0.02500000 </v>
   <v>       0.02500000 </v>
   <v>       0.02500000 </v>
   <v>       0.02500000 </v>
   <v>       0.02500000 </v>
   <v>       0.02500000 </v>
   <v>       0.02500000 </v>
   <v>       0.02500000 </v>
   <v>       0.02500000 </v>
   <v>       0.02500000 </v>
   <v>       0.02500000 </v>
   <v>       0.02500000 </v>
   <v>       0.02500000 </v>
   <v>       0.02500000 </v>
  </varray>
 </kpoints>
 <parameters>
  <separator name="general" >
   <i type="string" name="SYSTEM">CGS</i>
   <i type="logical" name="LCOMPAT"> F  </i>
  </separator>
  <separator name="electronic" >
   <i type="string" name="PREC">normal</i>
   <i name="ENMAX">    400.00000000</i>
   <i name="ENAUG">    758.23300000</i>
   <i name="EDIFF">      0.00001000</i>
   <i type="int" name="IALGO">    53</i>
   <i type="int" name="IWAVPR">    10</i>
   <i type="int" name="NBANDS">    80</i>
   <i name="NELECT">    112.00000000</i>
   <i type="int" name="TURBO">     0</i>
   <i type="int" name="IRESTART">     0</i>
   <i type="int" name="NREBOOT">     0</i>
   <i type="int" name="NMIN">     0</i>
   <i name="EREF">      0.00000000</i>
   <separator name="electronic smearing" >
    <i type="int" name="ISMEAR">     1</i>
    <i name="SIGMA">      0.10000000</i>
    <i name="KSPACING">      0.50000000</i>
    <i type="logical" name="KGAMMA"> T  </i>
   </separator>
   <separator name="electronic projectors" >
    <i type="logical" name="LREAL"> F  </i>
    <v name="ROPT">      0.00000000      0.00000000      0.00000000</v>
    <i type="int" name="LMAXPAW">  -100</i>
    <i type="int" name="LMAXMIX">     2</i>
    <i type="logical" name="NLSPLINE"> F  </i>
   </separator>
   <separator name="electronic startup" >
    <i type="int" name="ISTART">     1</i>
    <i type="int" name="ICHARG">     0</i>
    <i type="int" name="INIWAV">     1</i>
   </separator>
   <separator name="electronic spin" >
    <i type="int" name="ISPIN">     1</i>
    <i type="logical" name="LNONCOLLINEAR"> F  </i>
    <v name="MAGMOM">      1.00000000      1.00000000      1.00000000      1.00000000      1.00000000      1.00000000      1.00000000      1.00000000      1.00000000      1.00000000      1.00000000      1.00000000</v>
    <i name="NUPDOWN">     -1.00000000</i>
    <i type="logical" name="LSORBIT"> F  </i>
    <v name="SAXIS">      0.00000000      0.00000000      1.00000000</v>
    <i type="logical" name="LSPIRAL"> F  </i>
    <v name="QSPIRAL">      0.00000000      0.00000000      0.00000000</v>
    <i type="logical" name="LZEROZ"> F  </i>
   </separator>
   <separator name="electronic exchange-correlation" >
    <i type="logical" name="LASPH"> F  </i>
    <i type="logical" name="LMETAGGA"> F  </i>
   </separator>
   <separator name="electronic convergence" >
    <i type="int" name="NELM">    60</i>
    <i type="int" name="NELMDL">     0</i>
    <i type="int" name="NELMIN">     2</i>
    <i name="ENINI">    400.00000000</i>
    <separator name="electronic convergence detail" >
     <i type="logical" name="LDIAG"> T  </i>
     <i type="logical" name="LSUBROT"> T  </i>
     <i name="WEIMIN">      0.00000000</i>
     <i name="EBREAK">      0.00000003</i>
     <i name="DEPER">      0.30000000</i>
     <i type="int" name="NRMM">     4</i>
     <i name="TIME">      0.40000000</i>
    </separator>
   </separator>
   <separator name="electronic mixer" >
    <i name="AMIX">      0.40000000</i>
    <i name="BMIX">      1.00000000</i>
    <i name="AMIN">      0.10000000</i>
    <i name="AMIX_MAG">      1.60000000</i>
    <i name="BMIX_MAG">      1.00000000</i>
    <separator name="electronic mixer details" >
     <i type="int" name="IMIX">     4</i>
     <i type="int" name="MAXMIX">   -45</i>
     <i name="WC">    100.00000000</i>
     <i type="int" name="INIMIX">     1</i>
     <i type="int" name="MIXPRE">     1</i>
     <i type="int" name="MREMOVE">     5</i>
    </separator>
   </separator>
   <separator name="electronic dipolcorrection" >
    <i type="logical" name="LDIPOL"> F  </i>
    <i type="logical" name="LMONO"> F  </i>
    <i type="int" name="IDIPOL">     0</i>
    <i name="EPSILON">      1.00000000</i>
    <v name="DIPOL">   -100.00000000   -100.00000000   -100.00000000</v>
    <i name="EFIELD">      0.00000000</i>
   </separator>
  </separator>
  <separator name="grids" >
   <i type="int" name="NGX">    32</i>
   <i type="int" name="NGY">    32</i>
   <i type="int" name="NGZ">    32</i>
   <i type="int" name="NGXF">    64</i>
   <i type="int" name="NGYF">    64</i>
   <i type="int" name="NGZF">    64</i>
   <i type="logical" name="ADDGRID"> F  </i>
  </separator>
  <separator name="ionic" >
   <i type="int" name="NSW">     0</i>
   <i type="int" name="IBRION">    -1</i>
   <i type="int" name="ISIF">     0</i>
   <i name="PSTRESS">      0.00000000</i>
   <i name="EDIFFG">      0.00010000</i>
   <i type="int" name="NFREE">     0</i>
   <i name="POTIM">      0.50000000</i>
   <i name="SMASS">     -3.00000000</i>
   <i name="SCALEE">      1.00000000</i>
  </separator>
  <separator name="ionic md" >
   <i name="TEBEG">      0.00010000</i>
   <i name="TEEND">      0.00010000</i>
   <i type="int" name="NBLOCK">     1</i>
   <i type="int" name="KBLOCK">     1</i>
   <i type="int" name="NPACO">   256</i>
   <i name="APACO">     16.00000000</i>
  </separator>
  <separator name="symmetry" >
   <i type="int" name="ISYM">     3</i>
   <i name="SYMPREC">      0.00001000</i>
  </separator>
  <separator name="dos" >
   <i type="logical" name="LORBIT"> F  </i>
   <v name="RWIGS">     -1.00000000     -1.00000000     -1.00000000</v>
   <i type="int" name="NEDOS">   301</i>
   <i name="EMIN">     10.00000000</i>
   <i name="EMAX">    -10.00000000</i>
   <i name="EFERMI">      0.00000000</i>
  </separator>
  <separator name="writing" >
   <i type="int" name="NWRITE">     2</i>
   <i type="logical" name="LWAVE"> T  </i>
   <i type="logical" name="LCHARG"> T  </i>
   <i type="logical" name="LPARD"> F  </i>
   <i type="logical" name="LVTOT"> F  </i>
   <i type="logical" name="LVHAR"> F  </i>
   <i type="logical" name="LELF"> F  </i>
   <i type="logical" name="LOPTICS"> F  </i>
   <v name="STM">      0.00000000      0.00000000      0.00000000      0.00000000      0.00000000      0.00000000      0.00000000</v>
  </separator>
  <separator name="performance" >
   <i type="int" name="NPAR">    16</i>
   <i type="int" name="NSIM">     4</i>
   <i type="int" name="NBLK">    -1</i>
   <i type="logical" name="LPLANE"> T  </i>
   <i type="logical" name="LSCALAPACK"> T  </i>
   <i type="logical" name="LSCAAWARE"> F  </i>
   <i type="logical" name="LSCALU"> F  </i>
   <i type="logical" name="LASYNC"> F  </i>
   <i type="logical" name="LORBITALREAL"> F  </i>
  </separator>
  <separator name="miscellaneous" >
   <i type="int" name="IDIOT">     3</i>
   <i type="logical" name="LMUSIC"> F  </i>
   <v name="POMASS">     63.54600000     72.61000000     32.06600000</v>
   <v name="DARWINR">      0.00000000      0.00000000      0.00000000</v>
   <v name="DARWINV">      1.00000000      1.00000000      1.00000000</v>
   <i type="logical" name="LCORR"> T  </i>
  </separator>
  <i type="logical" name="GGA_COMPAT"> T  </i>
  <i type="logical" name="LBERRY"> F  </i>
  <i type="int" name="ICORELEVEL">     0</i>
  <i type="logical" name="LDAU"> F  </i>
  <i type="int" name="I_CONSTRAINED_M">     0</i>
  <separator name="electronic exchange-correlation" >
   <i type="string" name="GGA">PE</i>
   <i type="int" name="VOSKOWN">     0</i>
   <i type="logical" name="LHFCALC"> T  </i>
   <i type="string" name="PRECFOCK">fast</i>
   <i type="logical" name="LSYMGRAD"> F  </i>
   <i type="logical" name="LHFONE"> F  </i>
   <i type="logical" name="LRHFCALC"> F  </i>
   <i type="logical" name="LTHOMAS"> F  </i>
   <i type="logical" name="LMODELHF"> F  </i>
   <i name="ENCUT4O">     -1.00000000</i>
   <i type="int" name="EXXOEP">     0</i>
   <i type="int" name="FOURORBIT">     0</i>
   <i name="AEXX">      0.25000000</i>
   <i name="HFALPHA">     -1.00000000</i>
   <i name="MCALPHA">      0.00000000</i>
   <i name="ALDAX">      0.75000000</i>
   <i name="AGGAX">      0.75000000</i>
   <i name="ALDAC">      1.00000000</i>
   <i name="AGGAC">      1.00000000</i>
   <i type="int" name="NKREDX">     1</i>
   <i type="int" name="NKREDY">     1</i>
   <i type="int" name="NKREDZ">     1</i>
   <i type="logical" name="SHIFTRED"> F  </i>
   <i type="logical" name="ODDONLY"> F  </i>
   <i type="logical" name="EVENONLY"> F  </i>
   <i type="int" name="LMAXFOCK">     4</i>
   <i type="int" name="NMAXFOCKAE">     1</i>
   <i type="logical" name="LFOCKAEDFT"> F  </i>
   <i name="HFSCREEN">      0.20000000</i>
   <i name="HFSCREENC">      0.20000000</i>
   <i type="int" name="NBANDSGWLOW">     1</i>
  </separator>
  <separator name="vdW DFT" >
   <i type="logical" name="LUSE_VDW"> F  </i>
   <i name="Zab_VDW">     -0.84910000</i>
   <i name="PARAM1">      0.12340000</i>
   <i name="PARAM2">      1.00000000</i>
   <i name="PARAM3">      0.00000000</i>
  </separator>
  <separator name="model GW" >
   <i type="int" name="MODEL_GW">     0</i>
   <i name="MODEL_EPS0">     11.09505304</i>
   <i name="MODEL_ALPHA">      1.00000000</i>
  </separator>
  <separator name="linear response parameters" >
   <i type="logical" name="LEPSILON"> F  </i>
   <i type="logical" name="LRPA"> F  </i>
   <i type="logical" name="LNABLA"> F  </i>
   <i type="logical" name="LVEL"> F  </i>
   <i type="int" name="KINTER">     0</i>
   <i name="CSHIFT">      0.10000000</i>
   <i name="OMEGAMAX">     -1.00000000</i>
   <i name="DEG_THRESHOLD">      0.00200000</i>
  </separator>
  <separator name="orbital magnetization" >
   <i type="logical" name="NUCIND"> F  </i>
   <v name="MAGPOS">      0.00000000      0.00000000      0.00000000</v>
   <i type="logical" name="LNICSALL"> T  </i>
   <i type="logical" name="ORBITALMAG"> F  </i>
   <i type="logical" name="LMAGBLOCH"> F  </i>
   <i type="logical" name="LCHIMAG"> F  </i>
   <i type="logical" name="LGAUGE"> T  </i>
   <i type="int" name="MAGATOM">     0</i>
   <v name="MAGDIPOL">      0.00000000      0.00000000      0.00000000</v>
   <v name="AVECCONST">      0.00000000      0.00000000      0.00000000</v>
  </separator>
  <separator name="response functions" >
   <i type="logical" name="LADDER"> F  </i>
   <i type="logical" name="LFXC"> F  </i>
   <i type="logical" name="LHARTREE"> T  </i>
   <i type="int" name="IBSE">     0</i>
   <i type="logical" name="LTCTE"> F  </i>
   <i type="logical" name="LTETE"> F  </i>
   <i type="logical" name="LTRIPLET"> F  </i>
   <i type="logical" name="LFXCEPS"> F  </i>
   <i type="logical" name="L2ORDER"> F  </i>
   <i type="logical" name="LUSEW"> F  </i>
   <i name="ENCUTGW">     -2.00000000</i>
   <i name="ENCUTGWSOFT">     -2.00000000</i>
   <i name="ENCUTLF">     -1.00000000</i>
   <i type="int" name="LMAXMP2">    -1</i>
   <i name="SCISSOR">      0.00000000</i>
   <i type="int" name="NOMEGA">     0</i>
   <i type="int" name="NOMEGAR">     0</i>
   <i type="int" name="NBANDSGW">    -1</i>
   <i type="int" name="NBANDSO">    -1</i>
   <i type="int" name="NBANDSV">    -1</i>
   <i type="int" name="NELM">     1</i>
   <i type="int" name="DIM">     3</i>
   <i type="int" name="ANTIRES">     0</i>
   <i name="OMEGAMAX">    -30.00000000</i>
   <i name="OMEGATL">   -200.00000000</i>
   <i type="int" name="OMEGAGRID">     0</i>
   <i name="CSHIFT">     -0.10000000</i>
   <i type="logical" name="SELFENERGY"> F  </i>
   <i type="logical" name="LSPECTRAL"> F  </i>
   <i type="logical" name="ODDONLYGW"> F  </i>
   <i type="logical" name="EVENONLYGW"> F  </i>
   <i type="int" name="NKREDLFX">     1</i>
   <i type="int" name="NKREDLFY">     1</i>
   <i type="int" name="NKREDLFZ">     1</i>
   <i type="int" name="MAXMEM">  1800</i>
   <i type="int" name="TELESCOPE">     0</i>
  </separator>
 </parameters>
 <atominfo>
  <atoms>      12 </atoms>
  <types>       3 </types>
  <array name="atoms" >
   <dimension dim="1">ion</dimension>
   <field type="string">element</field>
   <field type="int">atomtype</field>
   <set>
    <rc><c>Cu</c><c>   1</c></rc>
    <rc><c>Cu</c><c>   1</c></rc>
    <rc><c>Cu</c><c>   1</c></rc>
    <rc><c>Cu</c><c>   1</c></rc>
    <rc><c>Ge</c><c>   2</c></rc>
    <rc><c>Ge</c><c>   2</c></rc>
    <rc><c>S </c><c>   3</c></rc>
    <rc><c>S </c><c>   3</c></rc>
    <rc><c>S </c><c>   3</c></rc>
    <rc><c>S </c><c>   3</c></rc>
    <rc><c>S </c><c>   3</c></rc>
    <rc><c>S </c><c>   3</c></rc>
   </set>
  </array>
  <array name="atomtypes" >
   <dimension dim="1">type</dimension>
   <field type="int">atomspertype</field>
   <field type="string">element</field>
   <field>mass</field>
   <field>valence</field>
   <field type="string">pseudopotential</field>
   <set>
    <rc><c>   4</c><c>Cu</c><c>     63.54600000</c><c>     17.00000000</c><c>  PAW_PBE Cu_pv 06Sep2000               </c></rc>
    <rc><c>   2</c><c>Ge</c><c>     72.61000000</c><c>      4.00000000</c><c>  PAW_PBE Ge 05Jan2001                  </c></rc>
    <rc><c>   6</c><c>S </c><c>     32.06600000</c><c>      6.00000000</c><c>  PAW_PBE S 17Jan2003                   </c></rc>
   </set>
  </array>
 </atominfo>
 <structure name="initialpos" >
  <crystal>
   <varray name="basis" >
    <v>       3.22479600      -5.64383000       0.03157200 </v>
    <v>       3.22479600       5.64383000       0.03157200 </v>
    <v>      -2.10194600       0.00000000       6.07553700 </v>
   </varray>
   <i name="volume">    221.90106089 </i>
   <varray name="rec_basis" >
    <v>       0.15452516      -0.08859232       0.05346088 </v>
    <v>       0.15452516       0.08859232       0.05346088 </v>
    <v>      -0.00160600       0.00000000       0.16403888 </v>
   </varray>
  </crystal>
  <varray name="positions" >
   <v>       0.61844300       0.12117100       0.11953300 </v>
   <v>       0.12117100       0.61844300       0.61953300 </v>
   <v>       0.96295700       0.79032200       0.11881300 </v>
   <v>       0.79032200       0.96295700       0.61881300 </v>
   <v>       0.43973200       0.26728100       0.59904700 </v>
   <v>       0.26728100       0.43973200       0.09904700 </v>
   <v>       0.07949800       0.91167500       0.49736300 </v>
   <v>       0.57140300       0.41236400       0.97862852 </v>
   <v>       0.73711100       0.25006200       0.49504900 </v>
   <v>       0.41236400       0.57140300       0.48018400 </v>
   <v>       0.91167500       0.07949800       0.99736300 </v>
   <v>       0.25006200       0.73711100       0.99504900 </v>
  </varray>
 </structure>
 <calculation>
  <scstep>
   <time name="total">  244.22  244.02</time>
   <energy>
    <i name="alphaZ">    339.31929130 </i>
    <i name="ewald">  -9065.31038255 </i>
    <i name="hartreedc">  -8067.43588876 </i>
    <i name="XCdc">    369.90466441 </i>
    <i name="pawpsdc">  16899.53156270 </i>
    <i name="pawaedc"> -17392.34663318 </i>
    <i name="eentropy">     -0.00141841 </i>
    <i name="bandstr">  -1656.55517984 </i>
    <i name="atom">  18320.98302006 </i>
    <i name="e_fr_energy">     75.54144603 </i>
    <i name="e_wo_entrp">     75.54286444 </i>
    <i name="e_0_energy">     75.54191884 </i>
   </energy>
  </scstep>
  <scstep>
   <time name="total">  249.17  248.99</time>
   <energy>
    <i name="e_fr_energy">     -8.38057803 </i>
    <i name="e_wo_entrp">     -8.37939183 </i>
    <i name="e_0_energy">     -8.38018263 </i>
   </energy>
  </scstep>
  <scstep>
   <time name="total">  246.99  246.78</time>
   <energy>
    <i name="e_fr_energy">    -15.21431224 </i>
    <i name="e_wo_entrp">    -15.21430722 </i>
    <i name="e_0_energy">    -15.21431057 </i>
   </energy>
  </scstep>
  <scstep>
   <time name="total">  248.49  248.28</time>
   <energy>
    <i name="e_fr_energy">    -22.70341747 </i>
    <i name="e_wo_entrp">    -22.70375780 </i>
    <i name="e_0_energy">    -22.70353091 </i>
   </energy>
  </scstep>
  <scstep>
   <time name="total">  248.11  247.90</time>
   <energy>
    <i name="e_fr_energy">    -60.82716498 </i>
    <i name="e_wo_entrp">    -60.82781432 </i>
    <i name="e_0_energy">    -60.82738142 </i>
   </energy>
  </scstep>
  <scstep>
   <time name="total">  247.59  247.38</time>
   <energy>
    <i name="e_fr_energy">    -65.93701992 </i>
    <i name="e_wo_entrp">    -65.93767060 </i>
    <i name="e_0_energy">    -65.93723681 </i>
   </energy>
  </scstep>
  <scstep>
   <time name="total">  246.70  246.49</time>
   <energy>
    <i name="e_fr_energy">    -67.47488843 </i>
    <i name="e_wo_entrp">    -67.47531284 </i>
    <i name="e_0_energy">    -67.47502990 </i>
   </energy>
  </scstep>
  <scstep>
   <time name="total">  250.53  250.32</time>
   <energy>
    <i name="e_fr_energy">    -69.08550253 </i>
    <i name="e_wo_entrp">    -69.08621364 </i>
    <i name="e_0_energy">    -69.08573956 </i>
   </energy>
  </scstep>
  <scstep>
   <time name="total">  254.04  253.84</time>
   <energy>
    <i name="e_fr_energy">    -69.39508966 </i>
    <i name="e_wo_entrp">    -69.39593191 </i>
    <i name="e_0_energy">    -69.39537041 </i>
   </energy>
  </scstep>
  <scstep>
   <time name="total">  256.18  255.98</time>
   <energy>
    <i name="e_fr_energy">    -69.49886533 </i>
    <i name="e_wo_entrp">    -69.49956023 </i>
    <i name="e_0_energy">    -69.49909696 </i>
   </energy>
  </scstep>
  <scstep>
   <time name="total">  254.42  254.21</time>
   <energy>
    <i name="e_fr_energy">    -69.56842226 </i>
    <i name="e_wo_entrp">    -69.56900577 </i>
    <i name="e_0_energy">    -69.56861676 </i>
   </energy>
  </scstep>
  <scstep>
   <time name="total">  254.25  254.03</time>
   <energy>
    <i name="e_fr_energy">    -69.58076159 </i>
    <i name="e_wo_entrp">    -69.58129576 </i>
    <i name="e_0_energy">    -69.58093964 </i>
   </energy>
  </scstep>
  <scstep>
   <time name="total">  253.24  253.03</time>
   <energy>
    <i name="e_fr_energy">    -69.59041440 </i>
    <i name="e_wo_entrp">    -69.59093749 </i>
    <i name="e_0_energy">    -69.59058876 </i>
   </energy>
  </scstep>
  <scstep>
   <time name="total">  255.40  255.19</time>
   <energy>
    <i name="e_fr_energy">    -69.59286450 </i>
    <i name="e_wo_entrp">    -69.59340465 </i>
    <i name="e_0_energy">    -69.59304455 </i>
   </energy>
  </scstep>
  <scstep>
   <time name="total">  255.80  255.59</time>
   <energy>
    <i name="e_fr_energy">    -69.59436777 </i>
    <i name="e_wo_entrp">    -69.59492027 </i>
    <i name="e_0_energy">    -69.59455194 </i>
   </energy>
  </scstep>
  <scstep>
   <time name="total">  254.91  254.69</time>
   <energy>
    <i name="e_fr_energy">    -69.59493737 </i>
    <i name="e_wo_entrp">    -69.59549066 </i>
    <i name="e_0_energy">    -69.59512180 </i>
   </energy>
  </scstep>
  <scstep>
   <time name="total">  254.39  254.17</time>
   <energy>
    <i name="e_fr_energy">    -69.59510989 </i>
    <i name="e_wo_entrp">    -69.59566032 </i>
    <i name="e_0_energy">    -69.59529337 </i>
   </energy>
  </scstep>
  <scstep>
   <time name="total">  254.82  254.62</time>
   <energy>
    <i name="e_fr_energy">    -69.59522661 </i>
    <i name="e_wo_entrp">    -69.59577418 </i>
    <i name="e_0_energy">    -69.59540914 </i>
   </energy>
  </scstep>
  <scstep>
   <time name="total">  255.16  254.94</time>
   <energy>
    <i name="e_fr_energy">    -69.59525532 </i>
    <i name="e_wo_entrp">    -69.59580157 </i>
    <i name="e_0_energy">    -69.59543741 </i>
   </energy>
  </scstep>
  <scstep>
   <time name="total">  255.36  255.14</time>
   <energy>
    <i name="e_fr_energy">    -69.59527501 </i>
    <i name="e_wo_entrp">    -69.59582164 </i>
    <i name="e_0_energy">    -69.59545722 </i>
   </energy>
  </scstep>
  <scstep>
   <time name="total">  258.99  258.79</time>
   <energy>
    <i name="alphaZ">    339.31929130 </i>
    <i name="ewald">  -9065.31038255 </i>
    <i name="hartreedc">  -8148.88202579 </i>
    <i name="XCdc">    372.06981126 </i>
    <i name="pawpsdc">  15921.91181107 </i>
    <i name="pawaedc"> -16407.09094932 </i>
    <i name="eentropy">      0.00054720 </i>
    <i name="bandstr">  -1742.66645618 </i>
    <i name="atom">  18320.98302006 </i>
    <i name="e_fr_energy">    -69.59528234 </i>
    <i name="e_wo_entrp">    -69.59582954 </i>
    <i name="e_0_energy">    -69.59546474 </i>
   </energy>
  </scstep>
  <structure>
   <crystal>
    <varray name="basis" >
     <v>       3.22479600      -5.64383000       0.03157200 </v>
     <v>       3.22479600       5.64383000       0.03157200 </v>
     <v>      -2.10194600       0.00000000       6.07553700 </v>
    </varray>
    <i name="volume">    221.90106089 </i>
    <varray name="rec_basis" >
     <v>       0.15452516      -0.08859232       0.05346088 </v>
     <v>       0.15452516       0.08859232       0.05346088 </v>
     <v>      -0.00160600       0.00000000       0.16403888 </v>
    </varray>
   </crystal>
   <varray name="positions" >
    <v>       0.61844300       0.12117100       0.11953300 </v>
    <v>       0.12117100       0.61844300       0.61953300 </v>
    <v>       0.96295700       0.79032200       0.11881300 </v>
    <v>       0.79032200       0.96295700       0.61881300 </v>
    <v>       0.43973200       0.26728100       0.59904700 </v>
    <v>       0.26728100       0.43973200       0.09904700 </v>
    <v>       0.07949800       0.91167500       0.49736300 </v>
    <v>       0.57140300       0.41236400       0.97862852 </v>
    <v>       0.73711100       0.25006200       0.49504900 </v>
    <v>       0.41236400       0.57140300       0.48018400 </v>
    <v>       0.91167500       0.07949800       0.99736300 </v>
    <v>       0.25006200       0.73711100       0.99504900 </v>
   </varray>
  </structure>
  <varray name="forces" >
   <v>       0.00118457       0.00259196      -0.00224264 </v>
   <v>      -0.00262468       0.00140718       0.00104710 </v>
   <v>       0.00505535      -0.00189017      -0.00000681 </v>
   <v>       0.00240840      -0.00029356       0.00120706 </v>
   <v>      -0.00089737       0.00600395      -0.04867329 </v>
   <v>       0.01015739      -0.01910237      -0.00945504 </v>
   <v>      -0.00289021       0.00145596      -0.00920285 </v>
   <v>      -0.02525973       0.00719993       0.09764944 </v>
   <v>       0.00092832       0.00378732      -0.01290500 </v>
   <v>       0.00357814       0.00455234      -0.01141385 </v>
   <v>       0.00626976      -0.00287451      -0.00319139 </v>
   <v>       0.00209006      -0.00283804      -0.00281274 </v>
  </varray>
  <energy>
   <i name="e_fr_energy">    -69.59528234 </i>
   <i name="e_wo_entrp">    -69.59546474 </i>
   <i name="e_0_energy">      0.00054720 </i>
  </energy>
  <time name="totalsc"> 5766.35 5763.38</time>
  <eigenvalues>
   <array>
    <dimension dim="1">band</dimension>
    <dimension dim="2">kpoint</dimension>
    <dimension dim="3">spin</dimension>
    <field>eigene</field>
    <field>occ</field>
    <set>
     <set comment="spin 1">
      <set comment="kpoint 1">
       <r>  -68.6455    1.0000 </r>
       <r>  -68.6403    1.0000 </r>
       <r>  -68.6330    1.0000 </r>
       <r>  -68.6333    1.0000 </r>
       <r>  -68.6132    1.0000 </r>
       <r>  -68.6085    1.0000 </r>
       <r>  -68.5958    1.0000 </r>
       <r>  -68.5908    1.0000 </r>
       <r>  -68.5771    1.0000 </r>
       <r>  -68.5771    1.0000 </r>
       <r>  -68.5606    1.0000 </r>
       <r>  -68.5601    1.0000 </r>
       <r>  -12.7245    1.0000 </r>
       <r>  -11.1264    1.0000 </r>
       <r>  -10.9244    1.0000 </r>
       <r>  -10.6036    1.0000 </r>
       <r>  -10.2505    1.0000 </r>
       <r>  -10.2346    1.0000 </r>
       <r>   -5.9890    1.0000 </r>
       <r>   -4.9811    1.0000 </r>
       <r>   -2.7601    1.0000 </r>
       <r>   -2.2115    1.0000 </r>
       <r>   -2.0694    1.0000 </r>
       <r>   -1.9230    1.0000 </r>
       <r>   -1.5749    1.0000 </r>
       <r>   -0.9823    1.0000 </r>
       <r>   -0.9489    1.0000 </r>
       <r>   -0.6924    1.0000 </r>
       <r>   -0.4031    1.0000 </r>
       <r>   -0.2722    1.0000 </r>
       <r>   -0.2586    1.0000 </r>
       <r>   -0.2325    1.0000 </r>
       <r>   -0.1905    1.0000 </r>
       <r>   -0.1535    1.0000 </r>
       <r>   -0.0399    1.0000 </r>
       <r>    0.0343    1.0000 </r>
       <r>    1.3518    1.0000 </r>
       <r>    1.3639    1.0000 </r>
       <r>    1.4156    1.0000 </r>
       <r>    1.4579    1.0000 </r>
       <r>    1.4721    1.0000 </r>
       <r>    1.4747    1.0000 </r>
       <r>    1.5219    1.0000 </r>
       <r>    1.5334    1.0000 </r>
       <r>    1.5766    1.0000 </r>
       <r>    1.7137    1.0000 </r>
       <r>    1.8939    1.0000 </r>
       <r>    1.9300    1.0000 </r>
       <r>    2.0586    1.0000 </r>
       <r>    2.6511    1.0000 </r>
       <r>    2.7284    1.0000 </r>
       <r>    3.0921    1.0000 </r>
       <r>    3.2140    1.0000 </r>
       <r>    4.0042    1.0042 </r>
       <r>    4.0373    1.0125 </r>
       <r>    4.1730    0.8671 </r>
       <r>    5.5419   -0.0000 </r>
       <r>    6.3617   -0.0000 </r>
       <r>    7.6317    0.0000 </r>
       <r>    7.9950    0.0000 </r>
       <r>    8.6083    0.0000 </r>
       <r>    8.7840    0.0000 </r>
       <r>    9.5699    0.0000 </r>
       <r>    9.7384    0.0000 </r>
       <r>    9.8209    0.0000 </r>
       <r>   10.4235    0.0000 </r>
       <r>   10.5813    0.0000 </r>
       <r>   10.6961    0.0000 </r>
       <r>   10.7162    0.0000 </r>
       <r>   11.2860    0.0000 </r>
       <r>   11.7082    0.0000 </r>
       <r>   12.3927    0.0000 </r>
       <r>   12.4561    0.0000 </r>
       <r>   12.7267    0.0000 </r>
       <r>   13.3168    0.0000 </r>
       <r>   13.3808    0.0000 </r>
       <r>   13.8391    0.0000 </r>
       <r>   13.8805    0.0000 </r>
       <r>   14.1509    0.0000 </r>
       <r>   14.1814    0.0000 </r>
      </set>
      <set comment="kpoint 2">
       <r>  -68.6454    1.0000 </r>
       <r>  -68.6403    1.0000 </r>
       <r>  -68.6330    1.0000 </r>
       <r>  -68.6333    1.0000 </r>
       <r>  -68.6131    1.0000 </r>
       <r>  -68.6084    1.0000 </r>
       <r>  -68.5959    1.0000 </r>
       <r>  -68.5908    1.0000 </r>
       <r>  -68.5771    1.0000 </r>
       <r>  -68.5771    1.0000 </r>
       <r>  -68.5606    1.0000 </r>
       <r>  -68.5601    1.0000 </r>
       <r>  -12.5998    1.0000 </r>
       <r>  -11.1290    1.0000 </r>
       <r>  -10.9845    1.0000 </r>
       <r>  -10.6767    1.0000 </r>
       <r>  -10.3658    1.0000 </r>
       <r>  -10.2771    1.0000 </r>
       <r>   -5.9381    1.0000 </r>
       <r>   -4.7703    1.0000 </r>
       <r>   -2.6460    1.0000 </r>
       <r>   -2.2538    1.0000 </r>
       <r>   -2.0875    1.0000 </r>
       <r>   -1.6881    1.0000 </r>
       <r>   -1.3446    1.0000 </r>
       <r>   -1.0012    1.0000 </r>
       <r>   -0.7663    1.0000 </r>
       <r>   -0.6223    1.0000 </r>
       <r>   -0.5526    1.0000 </r>
       <r>   -0.4375    1.0000 </r>
       <r>   -0.3602    1.0000 </r>
       <r>   -0.2388    1.0000 </r>
       <r>   -0.1930    1.0000 </r>
       <r>   -0.1655    1.0000 </r>
       <r>   -0.0469    1.0000 </r>
       <r>    0.0401    1.0000 </r>
       <r>    1.2807    1.0000 </r>
       <r>    1.3367    1.0000 </r>
       <r>    1.3558    1.0000 </r>
       <r>    1.3941    1.0000 </r>
       <r>    1.4289    1.0000 </r>
       <r>    1.4731    1.0000 </r>
       <r>    1.4988    1.0000 </r>
       <r>    1.5310    1.0000 </r>
       <r>    1.7248    1.0000 </r>
       <r>    1.8609    1.0000 </r>
       <r>    2.0568    1.0000 </r>
       <r>    2.0937    1.0000 </r>
       <r>    2.2325    1.0000 </r>
       <r>    2.4137    1.0000 </r>
       <r>    2.5576    1.0000 </r>
       <r>    2.8257    1.0000 </r>
       <r>    2.9462    1.0000 </r>
       <r>    3.2432    1.0000 </r>
       <r>    3.6626    1.0000 </r>
       <r>    4.0392    1.0132 </r>
       <r>    6.1782   -0.0000 </r>
       <r>    6.9052   -0.0000 </r>
       <r>    8.1437    0.0000 </r>
       <r>    8.2717    0.0000 </r>
       <r>    8.5891    0.0000 </r>
       <r>    9.0115    0.0000 </r>
       <r>    9.2431    0.0000 </r>
       <r>    9.5331    0.0000 </r>
       <r>    9.8614    0.0000 </r>
       <r>   10.3764    0.0000 </r>
       <r>   10.6348    0.0000 </r>
       <r>   10.8100    0.0000 </r>
       <r>   10.9390    0.0000 </r>
       <r>   11.1933    0.0000 </r>
       <r>   11.6562    0.0000 </r>
       <r>   11.7714    0.0000 </r>
       <r>   12.1171    0.0000 </r>
       <r>   12.4428    0.0000 </r>
       <r>   12.6181    0.0000 </r>
       <r>   13.0058    0.0000 </r>
       <r>   13.5033    0.0000 </r>
       <r>   13.8736    0.0000 </r>
       <r>   14.2163    0.0000 </r>
       <r>   14.7061    0.0000 </r>
      </set>
      <set comment="kpoint 3">
       <r>  -68.6453    1.0000 </r>
       <r>  -68.6401    1.0000 </r>
       <r>  -68.6331    1.0000 </r>
       <r>  -68.6330    1.0000 </r>
       <r>  -68.6130    1.0000 </r>
       <r>  -68.6084    1.0000 </r>
       <r>  -68.5958    1.0000 </r>
       <r>  -68.5907    1.0000 </r>
       <r>  -68.5771    1.0000 </r>
       <r>  -68.5770    1.0000 </r>
       <r>  -68.5605    1.0000 </r>
       <r>  -68.5599    1.0000 </r>
       <r>  -12.4409    1.0000 </r>
       <r>  -11.2546    1.0000 </r>
       <r>  -10.9546    1.0000 </r>
       <r>  -10.7628    1.0000 </r>
       <r>  -10.4278    1.0000 </r>
       <r>  -10.3579    1.0000 </r>
       <r>   -5.8767    1.0000 </r>
       <r>   -4.5450    1.0000 </r>
       <r>   -2.4935    1.0000 </r>
       <r>   -2.2493    1.0000 </r>
       <r>   -1.9447    1.0000 </r>
       <r>   -1.4661    1.0000 </r>
       <r>   -1.2279    1.0000 </r>
       <r>   -1.0963    1.0000 </r>
       <r>   -0.9022    1.0000 </r>
       <r>   -0.8646    1.0000 </r>
       <r>   -0.5941    1.0000 </r>
       <r>   -0.5354    1.0000 </r>
       <r>   -0.2725    1.0000 </r>
       <r>   -0.2043    1.0000 </r>
       <r>   -0.2004    1.0000 </r>
       <r>   -0.1433    1.0000 </r>
       <r>   -0.0292    1.0000 </r>
       <r>    0.0805    1.0000 </r>
       <r>    1.2556    1.0000 </r>
       <r>    1.3286    1.0000 </r>
       <r>    1.3491    1.0000 </r>
       <r>    1.3994    1.0000 </r>
       <r>    1.4712    1.0000 </r>
       <r>    1.4796    1.0000 </r>
       <r>    1.5016    1.0000 </r>
       <r>    1.5539    1.0000 </r>
       <r>    1.7505    1.0000 </r>
       <r>    1.7903    1.0000 </r>
       <r>    1.9679    1.0000 </r>
       <r>    2.1474    1.0000 </r>
       <r>    2.3204    1.0000 </r>
       <r>    2.3616    1.0000 </r>
       <r>    2.5584    1.0000 </r>
       <r>    2.6704    1.0000 </r>
       <r>    2.9397    1.0000 </r>
       <r>    3.0781    1.0000 </r>
       <r>    3.2504    1.0000 </r>
       <r>    3.8611    1.0000 </r>
       <r>    6.3944   -0.0000 </r>
       <r>    7.0928    0.0000 </r>
       <r>    7.9870    0.0000 </r>
       <r>    8.2052    0.0000 </r>
       <r>    8.5225    0.0000 </r>
       <r>    8.8276    0.0000 </r>
       <r>    9.3247    0.0000 </r>
       <r>    9.8920    0.0000 </r>
       <r>   10.0074    0.0000 </r>
       <r>   10.5138    0.0000 </r>
       <r>   10.6926    0.0000 </r>
       <r>   10.7934    0.0000 </r>
       <r>   11.1390    0.0000 </r>
       <r>   11.4035    0.0000 </r>
       <r>   11.6051    0.0000 </r>
       <r>   11.7752    0.0000 </r>
       <r>   11.9445    0.0000 </r>
       <r>   12.5020    0.0000 </r>
       <r>   12.7743    0.0000 </r>
       <r>   12.9961    0.0000 </r>
       <r>   13.3959    0.0000 </r>
       <r>   13.5374    0.0000 </r>
       <r>   13.9452    0.0000 </r>
       <r>   14.2709    0.0000 </r>
      </set>
      <set comment="kpoint 4">
       <r>  -68.6454    1.0000 </r>
       <r>  -68.6402    1.0000 </r>
       <r>  -68.6330    1.0000 </r>
       <r>  -68.6332    1.0000 </r>
       <r>  -68.6131    1.0000 </r>
       <r>  -68.6084    1.0000 </r>
       <r>  -68.5958    1.0000 </r>
       <r>  -68.5908    1.0000 </r>
       <r>  -68.5770    1.0000 </r>
       <r>  -68.5771    1.0000 </r>
       <r>  -68.5606    1.0000 </r>
       <r>  -68.5601    1.0000 </r>
       <r>  -12.5998    1.0000 </r>
       <r>  -11.1278    1.0000 </r>
       <r>  -10.9847    1.0000 </r>
       <r>  -10.6785    1.0000 </r>
       <r>  -10.3654    1.0000 </r>
       <r>  -10.2768    1.0000 </r>
       <r>   -5.9381    1.0000 </r>
       <r>   -4.7705    1.0000 </r>
       <r>   -2.6453    1.0000 </r>
       <r>   -2.2522    1.0000 </r>
       <r>   -2.0856    1.0000 </r>
       <r>   -1.6924    1.0000 </r>
       <r>   -1.3443    1.0000 </r>
       <r>   -0.9998    1.0000 </r>
       <r>   -0.7721    1.0000 </r>
       <r>   -0.6222    1.0000 </r>
       <r>   -0.5482    1.0000 </r>
       <r>   -0.4385    1.0000 </r>
       <r>   -0.3594    1.0000 </r>
       <r>   -0.2384    1.0000 </r>
       <r>   -0.1918    1.0000 </r>
       <r>   -0.1675    1.0000 </r>
       <r>   -0.0459    1.0000 </r>
       <r>    0.0394    1.0000 </r>
       <r>    1.2802    1.0000 </r>
       <r>    1.3365    1.0000 </r>
       <r>    1.3558    1.0000 </r>
       <r>    1.3934    1.0000 </r>
       <r>    1.4287    1.0000 </r>
       <r>    1.4731    1.0000 </r>
       <r>    1.4995    1.0000 </r>
       <r>    1.5312    1.0000 </r>
       <r>    1.7252    1.0000 </r>
       <r>    1.8607    1.0000 </r>
       <r>    2.0569    1.0000 </r>
       <r>    2.0951    1.0000 </r>
       <r>    2.2329    1.0000 </r>
       <r>    2.4138    1.0000 </r>
       <r>    2.5565    1.0000 </r>
       <r>    2.8247    1.0000 </r>
       <r>    2.9476    1.0000 </r>
       <r>    3.2434    1.0000 </r>
       <r>    3.6614    1.0000 </r>
       <r>    4.0412    1.0140 </r>
       <r>    6.1745   -0.0000 </r>
       <r>    6.9085   -0.0000 </r>
       <r>    8.1346    0.0000 </r>
       <r>    8.2736    0.0000 </r>
       <r>    8.5963    0.0000 </r>
       <r>    9.0083    0.0000 </r>
       <r>    9.2372    0.0000 </r>
       <r>    9.5304    0.0000 </r>
       <r>    9.8676    0.0000 </r>
       <r>   10.3785    0.0000 </r>
       <r>   10.6335    0.0000 </r>
       <r>   10.8148    0.0000 </r>
       <r>   10.9383    0.0000 </r>
       <r>   11.1927    0.0000 </r>
       <r>   11.6567    0.0000 </r>
       <r>   11.7708    0.0000 </r>
       <r>   12.1177    0.0000 </r>
       <r>   12.4417    0.0000 </r>
       <r>   12.6203    0.0000 </r>
       <r>   13.0116    0.0000 </r>
       <r>   13.5156    0.0000 </r>
       <r>   13.8996    0.0000 </r>
       <r>   14.2715    0.0000 </r>
       <r>   14.8367    0.0000 </r>
      </set>
      <set comment="kpoint 5">
       <r>  -68.6454    1.0000 </r>
       <r>  -68.6403    1.0000 </r>
       <r>  -68.6330    1.0000 </r>
       <r>  -68.6330    1.0000 </r>
       <r>  -68.6132    1.0000 </r>
       <r>  -68.6085    1.0000 </r>
       <r>  -68.5957    1.0000 </r>
       <r>  -68.5907    1.0000 </r>
       <r>  -68.5772    1.0000 </r>
       <r>  -68.5772    1.0000 </r>
       <r>  -68.5606    1.0000 </r>
       <r>  -68.5601    1.0000 </r>
       <r>  -12.4448    1.0000 </r>
       <r>  -11.1954    1.0000 </r>
       <r>  -10.9416    1.0000 </r>
       <r>  -10.8775    1.0000 </r>
       <r>  -10.3903    1.0000 </r>
       <r>  -10.3501    1.0000 </r>
       <r>   -5.8819    1.0000 </r>
       <r>   -4.5185    1.0000 </r>
       <r>   -2.4172    1.0000 </r>
       <r>   -2.2482    1.0000 </r>
       <r>   -1.7896    1.0000 </r>
       <r>   -1.6816    1.0000 </r>
       <r>   -1.3593    1.0000 </r>
       <r>   -1.3006    1.0000 </r>
       <r>   -1.0795    1.0000 </r>
       <r>   -0.6812    1.0000 </r>
       <r>   -0.5235    1.0000 </r>
       <r>   -0.2957    1.0000 </r>
       <r>   -0.2796    1.0000 </r>
       <r>   -0.2224    1.0000 </r>
       <r>   -0.1849    1.0000 </r>
       <r>   -0.1245    1.0000 </r>
       <r>   -0.0917    1.0000 </r>
       <r>    0.0791    1.0000 </r>
       <r>    1.2947    1.0000 </r>
       <r>    1.3121    1.0000 </r>
       <r>    1.4167    1.0000 </r>
       <r>    1.4278    1.0000 </r>
       <r>    1.4653    1.0000 </r>
       <r>    1.4834    1.0000 </r>
       <r>    1.4962    1.0000 </r>
       <r>    1.5695    1.0000 </r>
       <r>    1.6709    1.0000 </r>
       <r>    1.8805    1.0000 </r>
       <r>    1.9404    1.0000 </r>
       <r>    2.1348    1.0000 </r>
       <r>    2.2802    1.0000 </r>
       <r>    2.3206    1.0000 </r>
       <r>    2.5602    1.0000 </r>
       <r>    2.6524    1.0000 </r>
       <r>    2.9020    1.0000 </r>
       <r>    2.9458    1.0000 </r>
       <r>    3.6985    1.0000 </r>
       <r>    3.8333    1.0000 </r>
       <r>    6.1768   -0.0000 </r>
       <r>    6.9889    0.0000 </r>
       <r>    8.0115    0.0000 </r>
       <r>    8.3236    0.0000 </r>
       <r>    8.4380    0.0000 </r>
       <r>    8.5697    0.0000 </r>
       <r>    9.1588    0.0000 </r>
       <r>    9.2510    0.0000 </r>
       <r>   10.3542    0.0000 </r>
       <r>   10.4913    0.0000 </r>
       <r>   10.9173    0.0000 </r>
       <r>   11.1841    0.0000 </r>
       <r>   11.3216    0.0000 </r>
       <r>   11.5569    0.0000 </r>
       <r>   11.8151    0.0000 </r>
       <r>   11.9602    0.0000 </r>
       <r>   12.3156    0.0000 </r>
       <r>   12.5032    0.0000 </r>
       <r>   12.7129    0.0000 </r>
       <r>   12.9124    0.0000 </r>
       <r>   13.3363    0.0000 </r>
       <r>   13.4450    0.0000 </r>
       <r>   14.2510    0.0000 </r>
       <r>   14.3638    0.0000 </r>
      </set>
      <set comment="kpoint 6">
       <r>  -68.6452    1.0000 </r>
       <r>  -68.6400    1.0000 </r>
       <r>  -68.6331    1.0000 </r>
       <r>  -68.6331    1.0000 </r>
       <r>  -68.6130    1.0000 </r>
       <r>  -68.6083    1.0000 </r>
       <r>  -68.5958    1.0000 </r>
       <r>  -68.5907    1.0000 </r>
       <r>  -68.5770    1.0000 </r>
       <r>  -68.5770    1.0000 </r>
       <r>  -68.5601    1.0000 </r>
       <r>  -68.5603    1.0000 </r>
       <r>  -12.4451    1.0000 </r>
       <r>  -11.3587    1.0000 </r>
       <r>  -10.9363    1.0000 </r>
       <r>  -10.7370    1.0000 </r>
       <r>  -10.3892    1.0000 </r>
       <r>  -10.2710    1.0000 </r>
       <r>   -5.9541    1.0000 </r>
       <r>   -4.6400    1.0000 </r>
       <r>   -2.3934    1.0000 </r>
       <r>   -2.2274    1.0000 </r>
       <r>   -2.0574    1.0000 </r>
       <r>   -1.6442    1.0000 </r>
       <r>   -1.3620    1.0000 </r>
       <r>   -1.2750    1.0000 </r>
       <r>   -1.0214    1.0000 </r>
       <r>   -0.5083    1.0000 </r>
       <r>   -0.4835    1.0000 </r>
       <r>   -0.3303    1.0000 </r>
       <r>   -0.2834    1.0000 </r>
       <r>   -0.2105    1.0000 </r>
       <r>   -0.1509    1.0000 </r>
       <r>   -0.1329    1.0000 </r>
       <r>   -0.0098    1.0000 </r>
       <r>    0.1113    1.0000 </r>
       <r>    1.2479    1.0000 </r>
       <r>    1.3173    1.0000 </r>
       <r>    1.3833    1.0000 </r>
       <r>    1.4379    1.0000 </r>
       <r>    1.4634    1.0000 </r>
       <r>    1.4938    1.0000 </r>
       <r>    1.4979    1.0000 </r>
       <r>    1.5498    1.0000 </r>
       <r>    1.7503    1.0000 </r>
       <r>    1.8282    1.0000 </r>
       <r>    1.9225    1.0000 </r>
       <r>    2.1345    1.0000 </r>
       <r>    2.2191    1.0000 </r>
       <r>    2.3856    1.0000 </r>
       <r>    2.5604    1.0000 </r>
       <r>    2.7913    1.0000 </r>
       <r>    2.9791    1.0000 </r>
       <r>    3.3121    1.0000 </r>
       <r>    3.6044    1.0000 </r>
       <r>    3.7477    1.0000 </r>
       <r>    6.0968   -0.0000 </r>
       <r>    6.9379   -0.0000 </r>
       <r>    7.6154    0.0000 </r>
       <r>    8.0746    0.0000 </r>
       <r>    8.4077    0.0000 </r>
       <r>    8.6124    0.0000 </r>
       <r>    8.9881    0.0000 </r>
       <r>    9.1548    0.0000 </r>
       <r>   10.0831    0.0000 </r>
       <r>   10.3364    0.0000 </r>
       <r>   10.7286    0.0000 </r>
       <r>   11.1059    0.0000 </r>
       <r>   11.4543    0.0000 </r>
       <r>   11.5945    0.0000 </r>
       <r>   11.7966    0.0000 </r>
       <r>   12.0788    0.0000 </r>
       <r>   12.4725    0.0000 </r>
       <r>   12.9140    0.0000 </r>
       <r>   13.0255    0.0000 </r>
       <r>   13.8167    0.0000 </r>
       <r>   14.2129    0.0000 </r>
       <r>   14.6425    0.0000 </r>
       <r>   15.4325    0.0000 </r>
       <r>   15.6372    0.0000 </r>
      </set>
      <set comment="kpoint 7">
       <r>  -68.6454    1.0000 </r>
       <r>  -68.6402    1.0000 </r>
       <r>  -68.6330    1.0000 </r>
       <r>  -68.6332    1.0000 </r>
       <r>  -68.6130    1.0000 </r>
       <r>  -68.6083    1.0000 </r>
       <r>  -68.5958    1.0000 </r>
       <r>  -68.5908    1.0000 </r>
       <r>  -68.5770    1.0000 </r>
       <r>  -68.5770    1.0000 </r>
       <r>  -68.5606    1.0000 </r>
       <r>  -68.5601    1.0000 </r>
       <r>  -12.6027    1.0000 </r>
       <r>  -11.2548    1.0000 </r>
       <r>  -10.9911    1.0000 </r>
       <r>  -10.5704    1.0000 </r>
       <r>  -10.3667    1.0000 </r>
       <r>  -10.1794    1.0000 </r>
       <r>   -6.0155    1.0000 </r>
       <r>   -4.8927    1.0000 </r>
       <r>   -2.6482    1.0000 </r>
       <r>   -2.3124    1.0000 </r>
       <r>   -1.9737    1.0000 </r>
       <r>   -1.6466    1.0000 </r>
       <r>   -1.4955    1.0000 </r>
       <r>   -1.1831    1.0000 </r>
       <r>   -0.7894    1.0000 </r>
       <r>   -0.5832    1.0000 </r>
       <r>   -0.4438    1.0000 </r>
       <r>   -0.3312    1.0000 </r>
       <r>   -0.2941    1.0000 </r>
       <r>   -0.2307    1.0000 </r>
       <r>   -0.1728    1.0000 </r>
       <r>   -0.1339    1.0000 </r>
       <r>   -0.0073    1.0000 </r>
       <r>    0.0705    1.0000 </r>
       <r>    1.2604    1.0000 </r>
       <r>    1.3217    1.0000 </r>
       <r>    1.3669    1.0000 </r>
       <r>    1.4246    1.0000 </r>
       <r>    1.4322    1.0000 </r>
       <r>    1.4771    1.0000 </r>
       <r>    1.5048    1.0000 </r>
       <r>    1.5454    1.0000 </r>
       <r>    1.7260    1.0000 </r>
       <r>    1.8126    1.0000 </r>
       <r>    1.9960    1.0000 </r>
       <r>    2.0726    1.0000 </r>
       <r>    2.4172    1.0000 </r>
       <r>    2.4638    1.0000 </r>
       <r>    2.5287    1.0000 </r>
       <r>    2.8729    1.0000 </r>
       <r>    3.1420    1.0000 </r>
       <r>    3.2265    1.0000 </r>
       <r>    3.7838    1.0000 </r>
       <r>    4.0697    1.0264 </r>
       <r>    5.9874   -0.0000 </r>
       <r>    6.6920   -0.0000 </r>
       <r>    7.5332    0.0000 </r>
       <r>    8.2268    0.0000 </r>
       <r>    8.6154    0.0000 </r>
       <r>    8.9031    0.0000 </r>
       <r>    9.3070    0.0000 </r>
       <r>    9.4333    0.0000 </r>
       <r>    9.8053    0.0000 </r>
       <r>   10.2725    0.0000 </r>
       <r>   10.5419    0.0000 </r>
       <r>   10.8306    0.0000 </r>
       <r>   10.9719    0.0000 </r>
       <r>   11.3799    0.0000 </r>
       <r>   11.4722    0.0000 </r>
       <r>   11.7332    0.0000 </r>
       <r>   12.1024    0.0000 </r>
       <r>   12.6680    0.0000 </r>
       <r>   12.9445    0.0000 </r>
       <r>   13.1036    0.0000 </r>
       <r>   13.3477    0.0000 </r>
       <r>   13.5177    0.0000 </r>
       <r>   14.4796    0.0000 </r>
       <r>   14.7552    0.0000 </r>
      </set>
      <set comment="kpoint 8">
       <r>  -68.6453    1.0000 </r>
       <r>  -68.6401    1.0000 </r>
       <r>  -68.6331    1.0000 </r>
       <r>  -68.6329    1.0000 </r>
       <r>  -68.6131    1.0000 </r>
       <r>  -68.6083    1.0000 </r>
       <r>  -68.5958    1.0000 </r>
       <r>  -68.5907    1.0000 </r>
       <r>  -68.5770    1.0000 </r>
       <r>  -68.5770    1.0000 </r>
       <r>  -68.5602    1.0000 </r>
       <r>  -68.5602    1.0000 </r>
       <r>  -12.4411    1.0000 </r>
       <r>  -11.2514    1.0000 </r>
       <r>  -10.9552    1.0000 </r>
       <r>  -10.7679    1.0000 </r>
       <r>  -10.4259    1.0000 </r>
       <r>  -10.3571    1.0000 </r>
       <r>   -5.8767    1.0000 </r>
       <r>   -4.5452    1.0000 </r>
       <r>   -2.4946    1.0000 </r>
       <r>   -2.2447    1.0000 </r>
       <r>   -1.9426    1.0000 </r>
       <r>   -1.4694    1.0000 </r>
       <r>   -1.2272    1.0000 </r>
       <r>   -1.1023    1.0000 </r>
       <r>   -0.8969    1.0000 </r>
       <r>   -0.8669    1.0000 </r>
       <r>   -0.5974    1.0000 </r>
       <r>   -0.5335    1.0000 </r>
       <r>   -0.2725    1.0000 </r>
       <r>   -0.2024    1.0000 </r>
       <r>   -0.2010    1.0000 </r>
       <r>   -0.1436    1.0000 </r>
       <r>   -0.0280    1.0000 </r>
       <r>    0.0796    1.0000 </r>
       <r>    1.2554    1.0000 </r>
       <r>    1.3290    1.0000 </r>
       <r>    1.3489    1.0000 </r>
       <r>    1.3966    1.0000 </r>
       <r>    1.4723    1.0000 </r>
       <r>    1.4798    1.0000 </r>
       <r>    1.5008    1.0000 </r>
       <r>    1.5541    1.0000 </r>
       <r>    1.7526    1.0000 </r>
       <r>    1.7914    1.0000 </r>
       <r>    1.9677    1.0000 </r>
       <r>    2.1480    1.0000 </r>
       <r>    2.3213    1.0000 </r>
       <r>    2.3622    1.0000 </r>
       <r>    2.5550    1.0000 </r>
       <r>    2.6712    1.0000 </r>
       <r>    2.9382    1.0000 </r>
       <r>    3.0788    1.0000 </r>
       <r>    3.2510    1.0000 </r>
       <r>    3.8635    1.0000 </r>
       <r>    6.3889   -0.0000 </r>
       <r>    7.0967    0.0000 </r>
       <r>    7.9822    0.0000 </r>
       <r>    8.1991    0.0000 </r>
       <r>    8.5224    0.0000 </r>
       <r>    8.8280    0.0000 </r>
       <r>    9.3291    0.0000 </r>
       <r>    9.8851    0.0000 </r>
       <r>   10.0173    0.0000 </r>
       <r>   10.5188    0.0000 </r>
       <r>   10.6867    0.0000 </r>
       <r>   10.7945    0.0000 </r>
       <r>   11.1409    0.0000 </r>
       <r>   11.4101    0.0000 </r>
       <r>   11.6041    0.0000 </r>
       <r>   11.7728    0.0000 </r>
       <r>   11.9396    0.0000 </r>
       <r>   12.5061    0.0000 </r>
       <r>   12.8185    0.0000 </r>
       <r>   13.0333    0.0000 </r>
       <r>   13.5501    0.0000 </r>
       <r>   13.6883    0.0000 </r>
       <r>   14.5532    0.0000 </r>
       <r>   15.2477    0.0000 </r>
      </set>
      <set comment="kpoint 9">
       <r>  -68.6452    1.0000 </r>
       <r>  -68.6400    1.0000 </r>
       <r>  -68.6331    1.0000 </r>
       <r>  -68.6330    1.0000 </r>
       <r>  -68.6130    1.0000 </r>
       <r>  -68.6083    1.0000 </r>
       <r>  -68.5958    1.0000 </r>
       <r>  -68.5907    1.0000 </r>
       <r>  -68.5770    1.0000 </r>
       <r>  -68.5770    1.0000 </r>
       <r>  -68.5602    1.0000 </r>
       <r>  -68.5602    1.0000 </r>
       <r>  -12.4452    1.0000 </r>
       <r>  -11.3579    1.0000 </r>
       <r>  -10.9366    1.0000 </r>
       <r>  -10.7382    1.0000 </r>
       <r>  -10.3885    1.0000 </r>
       <r>  -10.2711    1.0000 </r>
       <r>   -5.9541    1.0000 </r>
       <r>   -4.6402    1.0000 </r>
       <r>   -2.3927    1.0000 </r>
       <r>   -2.2238    1.0000 </r>
       <r>   -2.0597    1.0000 </r>
       <r>   -1.6414    1.0000 </r>
       <r>   -1.3613    1.0000 </r>
       <r>   -1.2823    1.0000 </r>
       <r>   -1.0219    1.0000 </r>
       <r>   -0.5099    1.0000 </r>
       <r>   -0.4807    1.0000 </r>
       <r>   -0.3290    1.0000 </r>
       <r>   -0.2817    1.0000 </r>
       <r>   -0.2140    1.0000 </r>
       <r>   -0.1494    1.0000 </r>
       <r>   -0.1326    1.0000 </r>
       <r>   -0.0099    1.0000 </r>
       <r>    0.1112    1.0000 </r>
       <r>    1.2480    1.0000 </r>
       <r>    1.3158    1.0000 </r>
       <r>    1.3846    1.0000 </r>
       <r>    1.4388    1.0000 </r>
       <r>    1.4633    1.0000 </r>
       <r>    1.4926    1.0000 </r>
       <r>    1.4976    1.0000 </r>
       <r>    1.5504    1.0000 </r>
       <r>    1.7504    1.0000 </r>
       <r>    1.8271    1.0000 </r>
       <r>    1.9238    1.0000 </r>
       <r>    2.1351    1.0000 </r>
       <r>    2.2206    1.0000 </r>
       <r>    2.3840    1.0000 </r>
       <r>    2.5611    1.0000 </r>
       <r>    2.7918    1.0000 </r>
       <r>    2.9788    1.0000 </r>
       <r>    3.3110    1.0000 </r>
       <r>    3.6034    1.0000 </r>
       <r>    3.7495    1.0000 </r>
       <r>    6.0939   -0.0000 </r>
       <r>    6.9404   -0.0000 </r>
       <r>    7.6132    0.0000 </r>
       <r>    8.0752    0.0000 </r>
       <r>    8.4067    0.0000 </r>
       <r>    8.6140    0.0000 </r>
       <r>    8.9876    0.0000 </r>
       <r>    9.1542    0.0000 </r>
       <r>   10.0803    0.0000 </r>
       <r>   10.3320    0.0000 </r>
       <r>   10.7338    0.0000 </r>
       <r>   11.1027    0.0000 </r>
       <r>   11.4570    0.0000 </r>
       <r>   11.5790    0.0000 </r>
       <r>   11.7839    0.0000 </r>
       <r>   12.0280    0.0000 </r>
       <r>   12.5034    0.0000 </r>
       <r>   12.6672    0.0000 </r>
       <r>   12.9146    0.0000 </r>
       <r>   13.2094    0.0000 </r>
       <r>   14.2127    0.0000 </r>
       <r>   14.7214    0.0000 </r>
       <r>   15.1843    0.0000 </r>
       <r>   15.9038    0.0000 </r>
      </set>
      <set comment="kpoint 10">
       <r>  -68.6451    1.0000 </r>
       <r>  -68.6398    1.0000 </r>
       <r>  -68.6330    1.0000 </r>
       <r>  -68.6328    1.0000 </r>
       <r>  -68.6129    1.0000 </r>
       <r>  -68.6082    1.0000 </r>
       <r>  -68.5956    1.0000 </r>
       <r>  -68.5906    1.0000 </r>
       <r>  -68.5769    1.0000 </r>
       <r>  -68.5769    1.0000 </r>
       <r>  -68.5602    1.0000 </r>
       <r>  -68.5598    1.0000 </r>
       <r>  -12.4370    1.0000 </r>
       <r>  -11.5053    1.0000 </r>
       <r>  -10.9119    1.0000 </r>
       <r>  -10.6173    1.0000 </r>
       <r>  -10.3974    1.0000 </r>
       <r>  -10.1988    1.0000 </r>
       <r>   -6.0331    1.0000 </r>
       <r>   -4.8090    1.0000 </r>
       <r>   -2.3133    1.0000 </r>
       <r>   -2.2618    1.0000 </r>
       <r>   -2.1004    1.0000 </r>
       <r>   -1.6986    1.0000 </r>
       <r>   -1.2448    1.0000 </r>
       <r>   -1.1114    1.0000 </r>
       <r>   -0.8408    1.0000 </r>
       <r>   -0.7768    1.0000 </r>
       <r>   -0.7264    1.0000 </r>
       <r>   -0.2438    1.0000 </r>
       <r>   -0.1964    1.0000 </r>
       <r>   -0.1788    1.0000 </r>
       <r>   -0.1486    1.0000 </r>
       <r>   -0.0430    1.0000 </r>
       <r>   -0.0019    1.0000 </r>
       <r>    0.1834    1.0000 </r>
       <r>    1.2669    1.0000 </r>
       <r>    1.3197    1.0000 </r>
       <r>    1.3778    1.0000 </r>
       <r>    1.4153    1.0000 </r>
       <r>    1.4342    1.0000 </r>
       <r>    1.4941    1.0000 </r>
       <r>    1.5099    1.0000 </r>
       <r>    1.5511    1.0000 </r>
       <r>    1.7865    1.0000 </r>
       <r>    1.8462    1.0000 </r>
       <r>    1.9980    1.0000 </r>
       <r>    2.1515    1.0000 </r>
       <r>    2.2524    1.0000 </r>
       <r>    2.3379    1.0000 </r>
       <r>    2.5584    1.0000 </r>
       <r>    2.7623    1.0000 </r>
       <r>    2.7748    1.0000 </r>
       <r>    3.3686    1.0000 </r>
       <r>    3.7634    1.0000 </r>
       <r>    4.0073    1.0048 </r>
       <r>    5.8639   -0.0000 </r>
       <r>    6.7686   -0.0000 </r>
       <r>    7.0841    0.0000 </r>
       <r>    8.4104    0.0000 </r>
       <r>    8.5689    0.0000 </r>
       <r>    8.7697    0.0000 </r>
       <r>    9.1366    0.0000 </r>
       <r>    9.2333    0.0000 </r>
       <r>    9.9617    0.0000 </r>
       <r>   10.2796    0.0000 </r>
       <r>   10.7289    0.0000 </r>
       <r>   10.8220    0.0000 </r>
       <r>   10.8747    0.0000 </r>
       <r>   11.2752    0.0000 </r>
       <r>   11.7534    0.0000 </r>
       <r>   11.9160    0.0000 </r>
       <r>   11.9774    0.0000 </r>
       <r>   12.3643    0.0000 </r>
       <r>   12.5376    0.0000 </r>
       <r>   13.4562    0.0000 </r>
       <r>   14.2883    0.0000 </r>
       <r>   14.6768    0.0000 </r>
       <r>   16.7455    0.0000 </r>
       <r>   16.7563    0.0000 </r>
      </set>
      <set comment="kpoint 11">
       <r>  -68.6455    1.0000 </r>
       <r>  -68.6403    1.0000 </r>
       <r>  -68.6330    1.0000 </r>
       <r>  -68.6332    1.0000 </r>
       <r>  -68.6131    1.0000 </r>
       <r>  -68.6084    1.0000 </r>
       <r>  -68.5959    1.0000 </r>
       <r>  -68.5908    1.0000 </r>
       <r>  -68.5771    1.0000 </r>
       <r>  -68.5771    1.0000 </r>
       <r>  -68.5606    1.0000 </r>
       <r>  -68.5601    1.0000 </r>
       <r>  -12.6212    1.0000 </r>
       <r>  -11.4266    1.0000 </r>
       <r>  -10.7813    1.0000 </r>
       <r>  -10.6087    1.0000 </r>
       <r>  -10.2493    1.0000 </r>
       <r>  -10.2366    1.0000 </r>
       <r>   -5.8347    1.0000 </r>
       <r>   -5.0451    1.0000 </r>
       <r>   -2.6008    1.0000 </r>
       <r>   -2.3743    1.0000 </r>
       <r>   -1.9629    1.0000 </r>
       <r>   -1.7735    1.0000 </r>
       <r>   -1.4412    1.0000 </r>
       <r>   -1.1243    1.0000 </r>
       <r>   -1.0650    1.0000 </r>
       <r>   -0.7776    1.0000 </r>
       <r>   -0.4722    1.0000 </r>
       <r>   -0.2929    1.0000 </r>
       <r>   -0.2364    1.0000 </r>
       <r>   -0.2309    1.0000 </r>
       <r>   -0.1882    1.0000 </r>
       <r>   -0.1454    1.0000 </r>
       <r>   -0.0174    1.0000 </r>
       <r>    0.0257    1.0000 </r>
       <r>    1.3348    1.0000 </r>
       <r>    1.3831    1.0000 </r>
       <r>    1.4181    1.0000 </r>
       <r>    1.4407    1.0000 </r>
       <r>    1.4655    1.0000 </r>
       <r>    1.4676    1.0000 </r>
       <r>    1.5159    1.0000 </r>
       <r>    1.5464    1.0000 </r>
       <r>    1.6346    1.0000 </r>
       <r>    1.7605    1.0000 </r>
       <r>    1.7886    1.0000 </r>
       <r>    1.9522    1.0000 </r>
       <r>    2.0875    1.0000 </r>
       <r>    2.6585    1.0000 </r>
       <r>    2.7190    1.0000 </r>
       <r>    3.1956    1.0000 </r>
       <r>    3.2507    1.0000 </r>
       <r>    3.5227    1.0000 </r>
       <r>    3.8922    1.0000 </r>
       <r>    3.9765    1.0014 </r>
       <r>    6.0489   -0.0000 </r>
       <r>    6.4199   -0.0000 </r>
       <r>    7.8307    0.0000 </r>
       <r>    7.9132    0.0000 </r>
       <r>    8.3579    0.0000 </r>
       <r>    8.8112    0.0000 </r>
       <r>    9.7771    0.0000 </r>
       <r>    9.7978    0.0000 </r>
       <r>   10.0618    0.0000 </r>
       <r>   10.5876    0.0000 </r>
       <r>   10.6471    0.0000 </r>
       <r>   10.8152    0.0000 </r>
       <r>   10.8556    0.0000 </r>
       <r>   11.4960    0.0000 </r>
       <r>   11.5565    0.0000 </r>
       <r>   12.0262    0.0000 </r>
       <r>   12.5801    0.0000 </r>
       <r>   12.7742    0.0000 </r>
       <r>   12.9145    0.0000 </r>
       <r>   13.1998    0.0000 </r>
       <r>   13.5339    0.0000 </r>
       <r>   13.8209    0.0000 </r>
       <r>   14.1971    0.0000 </r>
       <r>   14.7028    0.0000 </r>
      </set>
      <set comment="kpoint 12">
       <r>  -68.6454    1.0000 </r>
       <r>  -68.6402    1.0000 </r>
       <r>  -68.6330    1.0000 </r>
       <r>  -68.6332    1.0000 </r>
       <r>  -68.6132    1.0000 </r>
       <r>  -68.6084    1.0000 </r>
       <r>  -68.5958    1.0000 </r>
       <r>  -68.5908    1.0000 </r>
       <r>  -68.5771    1.0000 </r>
       <r>  -68.5771    1.0000 </r>
       <r>  -68.5606    1.0000 </r>
       <r>  -68.5600    1.0000 </r>
       <r>  -12.4625    1.0000 </r>
       <r>  -11.4695    1.0000 </r>
       <r>  -10.8645    1.0000 </r>
       <r>  -10.6897    1.0000 </r>
       <r>  -10.3730    1.0000 </r>
       <r>  -10.2450    1.0000 </r>
       <r>   -5.7710    1.0000 </r>
       <r>   -4.8017    1.0000 </r>
       <r>   -2.4461    1.0000 </r>
       <r>   -2.2366    1.0000 </r>
       <r>   -1.8475    1.0000 </r>
       <r>   -1.7135    1.0000 </r>
       <r>   -1.4349    1.0000 </r>
       <r>   -1.1886    1.0000 </r>
       <r>   -0.8895    1.0000 </r>
       <r>   -0.7452    1.0000 </r>
       <r>   -0.6054    1.0000 </r>
       <r>   -0.5241    1.0000 </r>
       <r>   -0.3089    1.0000 </r>
       <r>   -0.2417    1.0000 </r>
       <r>   -0.1690    1.0000 </r>
       <r>   -0.1206    1.0000 </r>
       <r>   -0.0530    1.0000 </r>
       <r>    0.0613    1.0000 </r>
       <r>    1.3032    1.0000 </r>
       <r>    1.3383    1.0000 </r>
       <r>    1.3709    1.0000 </r>
       <r>    1.4323    1.0000 </r>
       <r>    1.4485    1.0000 </r>
       <r>    1.4804    1.0000 </r>
       <r>    1.5215    1.0000 </r>
       <r>    1.5477    1.0000 </r>
       <r>    1.6423    1.0000 </r>
       <r>    1.8705    1.0000 </r>
       <r>    1.9790    1.0000 </r>
       <r>    2.0488    1.0000 </r>
       <r>    2.1960    1.0000 </r>
       <r>    2.4756    1.0000 </r>
       <r>    2.5965    1.0000 </r>
       <r>    2.8391    1.0000 </r>
       <r>    2.9625    1.0000 </r>
       <r>    3.1340    1.0000 </r>
       <r>    3.5696    1.0000 </r>
       <r>    3.7244    1.0000 </r>
       <r>    6.4479   -0.0000 </r>
       <r>    6.9545    0.0000 </r>
       <r>    8.1732    0.0000 </r>
       <r>    8.2470    0.0000 </r>
       <r>    8.8403    0.0000 </r>
       <r>    9.1234    0.0000 </r>
       <r>    9.4679    0.0000 </r>
       <r>    9.7998    0.0000 </r>
       <r>   10.0852    0.0000 </r>
       <r>   10.2948    0.0000 </r>
       <r>   10.7416    0.0000 </r>
       <r>   11.0756    0.0000 </r>
       <r>   11.2906    0.0000 </r>
       <r>   11.4236    0.0000 </r>
       <r>   11.6342    0.0000 </r>
       <r>   11.7240    0.0000 </r>
       <r>   12.0805    0.0000 </r>
       <r>   12.2645    0.0000 </r>
       <r>   12.5433    0.0000 </r>
       <r>   12.6562    0.0000 </r>
       <r>   12.9548    0.0000 </r>
       <r>   13.0617    0.0000 </r>
       <r>   13.6351    0.0000 </r>
       <r>   14.6884    0.0000 </r>
      </set>
      <set comment="kpoint 13">
       <r>  -68.6452    1.0000 </r>
       <r>  -68.6400    1.0000 </r>
       <r>  -68.6331    1.0000 </r>
       <r>  -68.6330    1.0000 </r>
       <r>  -68.6130    1.0000 </r>
       <r>  -68.6083    1.0000 </r>
       <r>  -68.5957    1.0000 </r>
       <r>  -68.5907    1.0000 </r>
       <r>  -68.5770    1.0000 </r>
       <r>  -68.5770    1.0000 </r>
       <r>  -68.5601    1.0000 </r>
       <r>  -68.5603    1.0000 </r>
       <r>  -12.3606    1.0000 </r>
       <r>  -11.4180    1.0000 </r>
       <r>  -10.9517    1.0000 </r>
       <r>  -10.6830    1.0000 </r>
       <r>  -10.4785    1.0000 </r>
       <r>  -10.3342    1.0000 </r>
       <r>   -5.7569    1.0000 </r>
       <r>   -4.7203    1.0000 </r>
       <r>   -2.5234    1.0000 </r>
       <r>   -2.1858    1.0000 </r>
       <r>   -1.9543    1.0000 </r>
       <r>   -1.5359    1.0000 </r>
       <r>   -1.3000    1.0000 </r>
       <r>   -1.0994    1.0000 </r>
       <r>   -0.8697    1.0000 </r>
       <r>   -0.7517    1.0000 </r>
       <r>   -0.5491    1.0000 </r>
       <r>   -0.4457    1.0000 </r>
       <r>   -0.2889    1.0000 </r>
       <r>   -0.1776    1.0000 </r>
       <r>   -0.1432    1.0000 </r>
       <r>   -0.1044    1.0000 </r>
       <r>   -0.0441    1.0000 </r>
       <r>    0.0228    1.0000 </r>
       <r>    1.2734    1.0000 </r>
       <r>    1.2995    1.0000 </r>
       <r>    1.3535    1.0000 </r>
       <r>    1.4306    1.0000 </r>
       <r>    1.4538    1.0000 </r>
       <r>    1.4814    1.0000 </r>
       <r>    1.5025    1.0000 </r>
       <r>    1.5891    1.0000 </r>
       <r>    1.7191    1.0000 </r>
       <r>    1.9315    1.0000 </r>
       <r>    2.0752    1.0000 </r>
       <r>    2.1456    1.0000 </r>
       <r>    2.2676    1.0000 </r>
       <r>    2.4041    1.0000 </r>
       <r>    2.5697    1.0000 </r>
       <r>    2.5967    1.0000 </r>
       <r>    2.9006    1.0000 </r>
       <r>    3.0121    1.0000 </r>
       <r>    3.3604    1.0000 </r>
       <r>    3.8982    1.0000 </r>
       <r>    6.3738   -0.0000 </r>
       <r>    6.8929   -0.0000 </r>
       <r>    7.5753    0.0000 </r>
       <r>    8.0877    0.0000 </r>
       <r>    8.5524    0.0000 </r>
       <r>    8.8014    0.0000 </r>
       <r>    9.2747    0.0000 </r>
       <r>    9.6259    0.0000 </r>
       <r>    9.9341    0.0000 </r>
       <r>   10.2757    0.0000 </r>
       <r>   10.6554    0.0000 </r>
       <r>   10.9286    0.0000 </r>
       <r>   10.9691    0.0000 </r>
       <r>   11.2782    0.0000 </r>
       <r>   11.5212    0.0000 </r>
       <r>   11.7860    0.0000 </r>
       <r>   12.2485    0.0000 </r>
       <r>   12.5482    0.0000 </r>
       <r>   13.0968    0.0000 </r>
       <r>   13.5313    0.0000 </r>
       <r>   14.2968    0.0000 </r>
       <r>   14.6147    0.0000 </r>
       <r>   15.1207    0.0000 </r>
       <r>   16.2630    0.0000 </r>
      </set>
      <set comment="kpoint 14">
       <r>  -68.6455    1.0000 </r>
       <r>  -68.6403    1.0000 </r>
       <r>  -68.6330    1.0000 </r>
       <r>  -68.6332    1.0000 </r>
       <r>  -68.6131    1.0000 </r>
       <r>  -68.6084    1.0000 </r>
       <r>  -68.5959    1.0000 </r>
       <r>  -68.5908    1.0000 </r>
       <r>  -68.5771    1.0000 </r>
       <r>  -68.5771    1.0000 </r>
       <r>  -68.5606    1.0000 </r>
       <r>  -68.5601    1.0000 </r>
       <r>  -12.5451    1.0000 </r>
       <r>  -11.3398    1.0000 </r>
       <r>  -10.8750    1.0000 </r>
       <r>  -10.6062    1.0000 </r>
       <r>  -10.3977    1.0000 </r>
       <r>  -10.2825    1.0000 </r>
       <r>   -5.8290    1.0000 </r>
       <r>   -4.9733    1.0000 </r>
       <r>   -2.6665    1.0000 </r>
       <r>   -2.4538    1.0000 </r>
       <r>   -2.0385    1.0000 </r>
       <r>   -1.5750    1.0000 </r>
       <r>   -1.1695    1.0000 </r>
       <r>   -0.9868    1.0000 </r>
       <r>   -0.7944    1.0000 </r>
       <r>   -0.6552    1.0000 </r>
       <r>   -0.5157    1.0000 </r>
       <r>   -0.3885    1.0000 </r>
       <r>   -0.2679    1.0000 </r>
       <r>   -0.2528    1.0000 </r>
       <r>   -0.1902    1.0000 </r>
       <r>   -0.1431    1.0000 </r>
       <r>   -0.0453    1.0000 </r>
       <r>    0.0153    1.0000 </r>
       <r>    1.2909    1.0000 </r>
       <r>    1.3127    1.0000 </r>
       <r>    1.3901    1.0000 </r>
       <r>    1.4105    1.0000 </r>
       <r>    1.4359    1.0000 </r>
       <r>    1.4569    1.0000 </r>
       <r>    1.4932    1.0000 </r>
       <r>    1.5661    1.0000 </r>
       <r>    1.6887    1.0000 </r>
       <r>    1.9174    1.0000 </r>
       <r>    1.9871    1.0000 </r>
       <r>    2.1448    1.0000 </r>
       <r>    2.3357    1.0000 </r>
       <r>    2.5651    1.0000 </r>
       <r>    2.6166    1.0000 </r>
       <r>    2.8297    1.0000 </r>
       <r>    2.9729    1.0000 </r>
       <r>    3.2478    1.0000 </r>
       <r>    3.6843    1.0000 </r>
       <r>    3.9430    1.0003 </r>
       <r>    6.1859   -0.0000 </r>
       <r>    6.6387   -0.0000 </r>
       <r>    7.7674    0.0000 </r>
       <r>    7.9762    0.0000 </r>
       <r>    8.2141    0.0000 </r>
       <r>    8.5556    0.0000 </r>
       <r>    9.3788    0.0000 </r>
       <r>    9.5802    0.0000 </r>
       <r>    9.9098    0.0000 </r>
       <r>   10.2515    0.0000 </r>
       <r>   10.5428    0.0000 </r>
       <r>   10.7886    0.0000 </r>
       <r>   10.8391    0.0000 </r>
       <r>   11.0669    0.0000 </r>
       <r>   11.5668    0.0000 </r>
       <r>   12.0259    0.0000 </r>
       <r>   12.5302    0.0000 </r>
       <r>   12.7460    0.0000 </r>
       <r>   12.9526    0.0000 </r>
       <r>   13.3145    0.0000 </r>
       <r>   13.4132    0.0000 </r>
       <r>   13.7354    0.0000 </r>
       <r>   13.8482    0.0000 </r>
       <r>   14.7247    0.0000 </r>
      </set>
      <set comment="kpoint 15">
       <r>  -68.6454    1.0000 </r>
       <r>  -68.6402    1.0000 </r>
       <r>  -68.6330    1.0000 </r>
       <r>  -68.6332    1.0000 </r>
       <r>  -68.6131    1.0000 </r>
       <r>  -68.6085    1.0000 </r>
       <r>  -68.5958    1.0000 </r>
       <r>  -68.5908    1.0000 </r>
       <r>  -68.5771    1.0000 </r>
       <r>  -68.5771    1.0000 </r>
       <r>  -68.5606    1.0000 </r>
       <r>  -68.5600    1.0000 </r>
       <r>  -12.4626    1.0000 </r>
       <r>  -11.4690    1.0000 </r>
       <r>  -10.8646    1.0000 </r>
       <r>  -10.6906    1.0000 </r>
       <r>  -10.3729    1.0000 </r>
       <r>  -10.2446    1.0000 </r>
       <r>   -5.7709    1.0000 </r>
       <r>   -4.8019    1.0000 </r>
       <r>   -2.4455    1.0000 </r>
       <r>   -2.2346    1.0000 </r>
       <r>   -1.8495    1.0000 </r>
       <r>   -1.7146    1.0000 </r>
       <r>   -1.4328    1.0000 </r>
       <r>   -1.1889    1.0000 </r>
       <r>   -0.8930    1.0000 </r>
       <r>   -0.7459    1.0000 </r>
       <r>   -0.6059    1.0000 </r>
       <r>   -0.5186    1.0000 </r>
       <r>   -0.3087    1.0000 </r>
       <r>   -0.2427    1.0000 </r>
       <r>   -0.1704    1.0000 </r>
       <r>   -0.1207    1.0000 </r>
       <r>   -0.0524    1.0000 </r>
       <r>    0.0612    1.0000 </r>
       <r>    1.3036    1.0000 </r>
       <r>    1.3373    1.0000 </r>
       <r>    1.3712    1.0000 </r>
       <r>    1.4327    1.0000 </r>
       <r>    1.4468    1.0000 </r>
       <r>    1.4810    1.0000 </r>
       <r>    1.5216    1.0000 </r>
       <r>    1.5471    1.0000 </r>
       <r>    1.6437    1.0000 </r>
       <r>    1.8717    1.0000 </r>
       <r>    1.9785    1.0000 </r>
       <r>    2.0485    1.0000 </r>
       <r>    2.1967    1.0000 </r>
       <r>    2.4753    1.0000 </r>
       <r>    2.5952    1.0000 </r>
       <r>    2.8401    1.0000 </r>
       <r>    2.9625    1.0000 </r>
       <r>    3.1348    1.0000 </r>
       <r>    3.5687    1.0000 </r>
       <r>    3.7244    1.0000 </r>
       <r>    6.4405   -0.0000 </r>
       <r>    6.9602    0.0000 </r>
       <r>    8.1706    0.0000 </r>
       <r>    8.2502    0.0000 </r>
       <r>    8.8375    0.0000 </r>
       <r>    9.1291    0.0000 </r>
       <r>    9.4653    0.0000 </r>
       <r>    9.7968    0.0000 </r>
       <r>   10.0816    0.0000 </r>
       <r>   10.3007    0.0000 </r>
       <r>   10.7385    0.0000 </r>
       <r>   11.0801    0.0000 </r>
       <r>   11.2885    0.0000 </r>
       <r>   11.4252    0.0000 </r>
       <r>   11.6323    0.0000 </r>
       <r>   11.7230    0.0000 </r>
       <r>   12.0830    0.0000 </r>
       <r>   12.2677    0.0000 </r>
       <r>   12.5423    0.0000 </r>
       <r>   12.6591    0.0000 </r>
       <r>   12.9552    0.0000 </r>
       <r>   13.0592    0.0000 </r>
       <r>   13.6548    0.0000 </r>
       <r>   14.6953    0.0000 </r>
      </set>
      <set comment="kpoint 16">
       <r>  -68.6453    1.0000 </r>
       <r>  -68.6401    1.0000 </r>
       <r>  -68.6330    1.0000 </r>
       <r>  -68.6329    1.0000 </r>
       <r>  -68.6130    1.0000 </r>
       <r>  -68.6083    1.0000 </r>
       <r>  -68.5957    1.0000 </r>
       <r>  -68.5906    1.0000 </r>
       <r>  -68.5770    1.0000 </r>
       <r>  -68.5769    1.0000 </r>
       <r>  -68.5604    1.0000 </r>
       <r>  -68.5600    1.0000 </r>
       <r>  -12.3312    1.0000 </r>
       <r>  -11.4791    1.0000 </r>
       <r>  -10.8630    1.0000 </r>
       <r>  -10.8557    1.0000 </r>
       <r>  -10.4068    1.0000 </r>
       <r>  -10.2865    1.0000 </r>
       <r>   -5.7532    1.0000 </r>
       <r>   -4.6897    1.0000 </r>
       <r>   -2.2429    1.0000 </r>
       <r>   -2.1408    1.0000 </r>
       <r>   -1.9257    1.0000 </r>
       <r>   -1.8500    1.0000 </r>
       <r>   -1.4559    1.0000 </r>
       <r>   -1.3966    1.0000 </r>
       <r>   -1.0388    1.0000 </r>
       <r>   -0.5206    1.0000 </r>
       <r>   -0.4597    1.0000 </r>
       <r>   -0.3476    1.0000 </r>
       <r>   -0.2473    1.0000 </r>
       <r>   -0.2156    1.0000 </r>
       <r>   -0.1586    1.0000 </r>
       <r>   -0.1094    1.0000 </r>
       <r>   -0.0894    1.0000 </r>
       <r>    0.0797    1.0000 </r>
       <r>    1.2631    1.0000 </r>
       <r>    1.3488    1.0000 </r>
       <r>    1.3983    1.0000 </r>
       <r>    1.4370    1.0000 </r>
       <r>    1.4542    1.0000 </r>
       <r>    1.5113    1.0000 </r>
       <r>    1.5361    1.0000 </r>
       <r>    1.5450    1.0000 </r>
       <r>    1.7539    1.0000 </r>
       <r>    1.8187    1.0000 </r>
       <r>    2.0404    1.0000 </r>
       <r>    2.1341    1.0000 </r>
       <r>    2.2857    1.0000 </r>
       <r>    2.3112    1.0000 </r>
       <r>    2.5219    1.0000 </r>
       <r>    2.7695    1.0000 </r>
       <r>    2.9004    1.0000 </r>
       <r>    3.2621    1.0000 </r>
       <r>    3.4979    1.0000 </r>
       <r>    3.8006    1.0000 </r>
       <r>    6.1864   -0.0000 </r>
       <r>    6.8404   -0.0000 </r>
       <r>    7.8261    0.0000 </r>
       <r>    8.0478    0.0000 </r>
       <r>    8.1901    0.0000 </r>
       <r>    8.7310    0.0000 </r>
       <r>    9.1541    0.0000 </r>
       <r>    9.3127    0.0000 </r>
       <r>   10.2174    0.0000 </r>
       <r>   10.4358    0.0000 </r>
       <r>   10.5896    0.0000 </r>
       <r>   11.0020    0.0000 </r>
       <r>   11.2368    0.0000 </r>
       <r>   11.4899    0.0000 </r>
       <r>   11.8106    0.0000 </r>
       <r>   12.1709    0.0000 </r>
       <r>   12.2081    0.0000 </r>
       <r>   12.5744    0.0000 </r>
       <r>   12.6930    0.0000 </r>
       <r>   13.1172    0.0000 </r>
       <r>   13.4176    0.0000 </r>
       <r>   13.8773    0.0000 </r>
       <r>   14.0048    0.0000 </r>
       <r>   14.5215    0.0000 </r>
      </set>
      <set comment="kpoint 17">
       <r>  -68.6452    1.0000 </r>
       <r>  -68.6400    1.0000 </r>
       <r>  -68.6332    1.0000 </r>
       <r>  -68.6330    1.0000 </r>
       <r>  -68.6130    1.0000 </r>
       <r>  -68.6083    1.0000 </r>
       <r>  -68.5958    1.0000 </r>
       <r>  -68.5907    1.0000 </r>
       <r>  -68.5771    1.0000 </r>
       <r>  -68.5770    1.0000 </r>
       <r>  -68.5602    1.0000 </r>
       <r>  -68.5602    1.0000 </r>
       <r>  -12.3777    1.0000 </r>
       <r>  -11.4782    1.0000 </r>
       <r>  -10.9354    1.0000 </r>
       <r>  -10.6526    1.0000 </r>
       <r>  -10.4190    1.0000 </r>
       <r>  -10.3041    1.0000 </r>
       <r>   -5.8063    1.0000 </r>
       <r>   -4.8353    1.0000 </r>
       <r>   -2.5284    1.0000 </r>
       <r>   -2.2463    1.0000 </r>
       <r>   -1.8708    1.0000 </r>
       <r>   -1.6445    1.0000 </r>
       <r>   -1.5052    1.0000 </r>
       <r>   -1.3042    1.0000 </r>
       <r>   -0.8996    1.0000 </r>
       <r>   -0.5353    1.0000 </r>
       <r>   -0.3777    1.0000 </r>
       <r>   -0.3472    1.0000 </r>
       <r>   -0.2212    1.0000 </r>
       <r>   -0.1780    1.0000 </r>
       <r>   -0.1560    1.0000 </r>
       <r>   -0.0773    1.0000 </r>
       <r>   -0.0258    1.0000 </r>
       <r>    0.0798    1.0000 </r>
       <r>    1.1917    1.0000 </r>
       <r>    1.3652    1.0000 </r>
       <r>    1.3988    1.0000 </r>
       <r>    1.4438    1.0000 </r>
       <r>    1.4644    1.0000 </r>
       <r>    1.5084    1.0000 </r>
       <r>    1.5207    1.0000 </r>
       <r>    1.5861    1.0000 </r>
       <r>    1.7421    1.0000 </r>
       <r>    1.8174    1.0000 </r>
       <r>    2.0384    1.0000 </r>
       <r>    2.2345    1.0000 </r>
       <r>    2.2698    1.0000 </r>
       <r>    2.3618    1.0000 </r>
       <r>    2.4865    1.0000 </r>
       <r>    2.6727    1.0000 </r>
       <r>    3.0534    1.0000 </r>
       <r>    3.4119    1.0000 </r>
       <r>    3.7281    1.0000 </r>
       <r>    3.8643    1.0000 </r>
       <r>    5.9385   -0.0000 </r>
       <r>    6.6141   -0.0000 </r>
       <r>    7.3547    0.0000 </r>
       <r>    7.9420    0.0000 </r>
       <r>    8.0635    0.0000 </r>
       <r>    8.7227    0.0000 </r>
       <r>    8.9140    0.0000 </r>
       <r>    9.1385    0.0000 </r>
       <r>    9.8427    0.0000 </r>
       <r>   10.3238    0.0000 </r>
       <r>   10.5540    0.0000 </r>
       <r>   10.9268    0.0000 </r>
       <r>   11.2218    0.0000 </r>
       <r>   11.4112    0.0000 </r>
       <r>   11.7505    0.0000 </r>
       <r>   12.0004    0.0000 </r>
       <r>   12.4978    0.0000 </r>
       <r>   12.8357    0.0000 </r>
       <r>   13.2006    0.0000 </r>
       <r>   14.0961    0.0000 </r>
       <r>   14.7173    0.0000 </r>
       <r>   15.1512    0.0000 </r>
       <r>   15.9191    0.0000 </r>
       <r>   16.5680    0.0000 </r>
      </set>
      <set comment="kpoint 18">
       <r>  -68.6454    1.0000 </r>
       <r>  -68.6402    1.0000 </r>
       <r>  -68.6331    1.0000 </r>
       <r>  -68.6332    1.0000 </r>
       <r>  -68.6131    1.0000 </r>
       <r>  -68.6084    1.0000 </r>
       <r>  -68.5959    1.0000 </r>
       <r>  -68.5908    1.0000 </r>
       <r>  -68.5770    1.0000 </r>
       <r>  -68.5771    1.0000 </r>
       <r>  -68.5605    1.0000 </r>
       <r>  -68.5601    1.0000 </r>
       <r>  -12.5037    1.0000 </r>
       <r>  -11.4285    1.0000 </r>
       <r>  -10.9483    1.0000 </r>
       <r>  -10.5818    1.0000 </r>
       <r>  -10.3745    1.0000 </r>
       <r>  -10.2069    1.0000 </r>
       <r>   -5.8333    1.0000 </r>
       <r>   -4.9389    1.0000 </r>
       <r>   -2.5743    1.0000 </r>
       <r>   -2.3671    1.0000 </r>
       <r>   -1.9170    1.0000 </r>
       <r>   -1.5946    1.0000 </r>
       <r>   -1.4164    1.0000 </r>
       <r>   -1.1197    1.0000 </r>
       <r>   -0.8173    1.0000 </r>
       <r>   -0.6739    1.0000 </r>
       <r>   -0.5339    1.0000 </r>
       <r>   -0.4677    1.0000 </r>
       <r>   -0.2502    1.0000 </r>
       <r>   -0.1950    1.0000 </r>
       <r>   -0.1657    1.0000 </r>
       <r>   -0.1181    1.0000 </r>
       <r>   -0.0351    1.0000 </r>
       <r>    0.0593    1.0000 </r>
       <r>    1.2819    1.0000 </r>
       <r>    1.3263    1.0000 </r>
       <r>    1.3470    1.0000 </r>
       <r>    1.4351    1.0000 </r>
       <r>    1.4531    1.0000 </r>
       <r>    1.4694    1.0000 </r>
       <r>    1.4944    1.0000 </r>
       <r>    1.5580    1.0000 </r>
       <r>    1.7286    1.0000 </r>
       <r>    1.8435    1.0000 </r>
       <r>    1.9709    1.0000 </r>
       <r>    2.0975    1.0000 </r>
       <r>    2.3366    1.0000 </r>
       <r>    2.4503    1.0000 </r>
       <r>    2.5412    1.0000 </r>
       <r>    2.8507    1.0000 </r>
       <r>    3.0519    1.0000 </r>
       <r>    3.2633    1.0000 </r>
       <r>    3.6735    1.0000 </r>
       <r>    3.7831    1.0000 </r>
       <r>    6.2650   -0.0000 </r>
       <r>    6.8023   -0.0000 </r>
       <r>    7.8144    0.0000 </r>
       <r>    8.1427    0.0000 </r>
       <r>    8.3325    0.0000 </r>
       <r>    8.9254    0.0000 </r>
       <r>    9.3405    0.0000 </r>
[...]
       <r>   11.7050    0.0000 </r>
       <r>   11.8932    0.0000 </r>
       <r>   12.3013    0.0000 </r>
       <r>   12.6582    0.0000 </r>
       <r>   13.0079    0.0000 </r>
       <r>   13.2299    0.0000 </r>
       <r>   13.6638    0.0000 </r>
       <r>   14.0647    0.0000 </r>
       <r>   14.3884    0.0000 </r>
       <r>   16.5211    0.0000 </r>
      </set>
      <set comment="kpoint 42">
       <r>  -68.6453    1.0000 </r>
       <r>  -68.6402    1.0000 </r>
       <r>  -68.6328    1.0000 </r>
       <r>  -68.6330    1.0000 </r>
       <r>  -68.6129    1.0000 </r>
       <r>  -68.6084    1.0000 </r>
       <r>  -68.5956    1.0000 </r>
       <r>  -68.5906    1.0000 </r>
       <r>  -68.5770    1.0000 </r>
       <r>  -68.5770    1.0000 </r>
       <r>  -68.5605    1.0000 </r>
       <r>  -68.5601    1.0000 </r>
       <r>  -12.1831    1.0000 </r>
       <r>  -11.7097    1.0000 </r>
       <r>  -10.7169    1.0000 </r>
       <r>  -10.6921    1.0000 </r>
       <r>  -10.5863    1.0000 </r>
       <r>  -10.3914    1.0000 </r>
       <r>   -5.4487    1.0000 </r>
       <r>   -5.0726    1.0000 </r>
       <r>   -2.5081    1.0000 </r>
       <r>   -2.3825    1.0000 </r>
       <r>   -1.9631    1.0000 </r>
       <r>   -1.3671    1.0000 </r>
       <r>   -1.3344    1.0000 </r>
       <r>   -1.0545    1.0000 </r>
       <r>   -0.8336    1.0000 </r>
       <r>   -0.7651    1.0000 </r>
       <r>   -0.4211    1.0000 </r>
       <r>   -0.3349    1.0000 </r>
       <r>   -0.2712    1.0000 </r>
       <r>   -0.2076    1.0000 </r>
       <r>   -0.1403    1.0000 </r>
       <r>   -0.1394    1.0000 </r>
       <r>   -0.0127    1.0000 </r>
       <r>    0.0307    1.0000 </r>
       <r>    1.1740    1.0000 </r>
       <r>    1.3726    1.0000 </r>
       <r>    1.3986    1.0000 </r>
       <r>    1.4544    1.0000 </r>
       <r>    1.4556    1.0000 </r>
       <r>    1.4999    1.0000 </r>
       <r>    1.5185    1.0000 </r>
       <r>    1.5517    1.0000 </r>
       <r>    1.7451    1.0000 </r>
       <r>    1.8235    1.0000 </r>
       <r>    1.9764    1.0000 </r>
       <r>    2.2268    1.0000 </r>
       <r>    2.3971    1.0000 </r>
       <r>    2.6105    1.0000 </r>
       <r>    2.6560    1.0000 </r>
       <r>    2.9167    1.0000 </r>
       <r>    3.0691    1.0000 </r>
       <r>    3.1162    1.0000 </r>
       <r>    3.2885    1.0000 </r>
       <r>    3.5836    1.0000 </r>
       <r>    6.2875   -0.0000 </r>
       <r>    6.3882   -0.0000 </r>
       <r>    7.3544    0.0000 </r>
       <r>    7.5265    0.0000 </r>
       <r>    8.3091    0.0000 </r>
       <r>    8.3345    0.0000 </r>
       <r>    9.1051    0.0000 </r>
       <r>    9.3610    0.0000 </r>
       <r>    9.7146    0.0000 </r>
       <r>    9.9481    0.0000 </r>
       <r>   10.5272    0.0000 </r>
       <r>   10.9859    0.0000 </r>
       <r>   11.4268    0.0000 </r>
       <r>   11.5647    0.0000 </r>
       <r>   12.0144    0.0000 </r>
       <r>   12.2806    0.0000 </r>
       <r>   12.4289    0.0000 </r>
       <r>   12.4769    0.0000 </r>
       <r>   13.0371    0.0000 </r>
       <r>   13.1531    0.0000 </r>
       <r>   14.1358    0.0000 </r>
       <r>   14.4412    0.0000 </r>
       <r>   15.1637    0.0000 </r>
       <r>   15.8704    0.0000 </r>
      </set>
     </set>
    </set>
   </array>
  </eigenvalues>
  <separator name="orbital magnetization" >
   <v name="MAGDIPOLOUT">      0.00000000      0.00000000      0.00000000</v>
  </separator>
  <dos>
   <i name="efermi">      4.22240203 </i>
   <total>
    <array>
     <dimension dim="1">gridpoints</dimension>
     <dimension dim="2">spin</dimension>
     <field>energy</field>
     <field>total</field>
     <field>integrated</field>
     <set>
      <set comment="spin 1">
       <r>   -72.8301     0.0000     0.0000 </r>
       <r>   -72.5238     0.0000     0.0000 </r>
       <r>   -72.2174     0.0000     0.0000 </r>
       <r>   -71.9110     0.0000     0.0000 </r>
       <r>   -71.6046     0.0000     0.0000 </r>
       <r>   -71.2982     0.0000     0.0000 </r>
       <r>   -70.9918     0.0000     0.0000 </r>
       <r>   -70.6855     0.0000     0.0000 </r>
       <r>   -70.3791     0.0000     0.0000 </r>
       <r>   -70.0727     0.0000     0.0000 </r>
       <r>   -69.7663     0.0000     0.0000 </r>
       <r>   -69.4599    -0.0000    -0.0000 </r>
       <r>   -69.1536    -0.0000    -0.0000 </r>
       <r>   -68.8472    -0.2029    -0.0622 </r>
       <r>   -68.5408    69.7931    21.3211 </r>
       <r>   -68.2344     8.7441    24.0001 </r>
       <r>   -67.9280    -0.0004    24.0000 </r>
       <r>   -67.6217     0.0000    24.0000 </r>
       <r>   -67.3153     0.0000    24.0000 </r>
       <r>   -67.0089     0.0000    24.0000 </r>
       <r>   -66.7025     0.0000    24.0000 </r>
       <r>   -66.3961     0.0000    24.0000 </r>
       <r>   -66.0898     0.0000    24.0000 </r>
       <r>   -65.7834     0.0000    24.0000 </r>
       <r>   -65.4770     0.0000    24.0000 </r>
       <r>   -65.1706     0.0000    24.0000 </r>
       <r>   -64.8642     0.0000    24.0000 </r>
       <r>   -64.5578     0.0000    24.0000 </r>
       <r>   -64.2515     0.0000    24.0000 </r>
       <r>   -63.9451     0.0000    24.0000 </r>
       <r>   -63.6387     0.0000    24.0000 </r>
       <r>   -63.3323     0.0000    24.0000 </r>
       <r>   -63.0259     0.0000    24.0000 </r>
       <r>   -62.7196     0.0000    24.0000 </r>
       <r>   -62.4132     0.0000    24.0000 </r>
       <r>   -62.1068     0.0000    24.0000 </r>
       <r>   -61.8004     0.0000    24.0000 </r>
       <r>   -61.4940     0.0000    24.0000 </r>
       <r>   -61.1877     0.0000    24.0000 </r>
       <r>   -60.8813     0.0000    24.0000 </r>
       <r>   -60.5749     0.0000    24.0000 </r>
       <r>   -60.2685     0.0000    24.0000 </r>
       <r>   -59.9621     0.0000    24.0000 </r>
       <r>   -59.6557     0.0000    24.0000 </r>
       <r>   -59.3494     0.0000    24.0000 </r>
       <r>   -59.0430     0.0000    24.0000 </r>
       <r>   -58.7366     0.0000    24.0000 </r>
       <r>   -58.4302     0.0000    24.0000 </r>
       <r>   -58.1238     0.0000    24.0000 </r>
       <r>   -57.8175     0.0000    24.0000 </r>
       <r>   -57.5111     0.0000    24.0000 </r>
       <r>   -57.2047     0.0000    24.0000 </r>
       <r>   -56.8983     0.0000    24.0000 </r>
       <r>   -56.5919     0.0000    24.0000 </r>
       <r>   -56.2856     0.0000    24.0000 </r>
       <r>   -55.9792     0.0000    24.0000 </r>
       <r>   -55.6728     0.0000    24.0000 </r>
       <r>   -55.3664     0.0000    24.0000 </r>
       <r>   -55.0600     0.0000    24.0000 </r>
       <r>   -54.7537     0.0000    24.0000 </r>
       <r>   -54.4473     0.0000    24.0000 </r>
       <r>   -54.1409     0.0000    24.0000 </r>
       <r>   -53.8345     0.0000    24.0000 </r>
       <r>   -53.5281     0.0000    24.0000 </r>
       <r>   -53.2217     0.0000    24.0000 </r>
       <r>   -52.9154     0.0000    24.0000 </r>
       <r>   -52.6090     0.0000    24.0000 </r>
       <r>   -52.3026     0.0000    24.0000 </r>
       <r>   -51.9962     0.0000    24.0000 </r>
       <r>   -51.6898     0.0000    24.0000 </r>
       <r>   -51.3835     0.0000    24.0000 </r>
       <r>   -51.0771     0.0000    24.0000 </r>
       <r>   -50.7707     0.0000    24.0000 </r>
       <r>   -50.4643     0.0000    24.0000 </r>
       <r>   -50.1579     0.0000    24.0000 </r>
       <r>   -49.8516     0.0000    24.0000 </r>
       <r>   -49.5452     0.0000    24.0000 </r>
       <r>   -49.2388     0.0000    24.0000 </r>
       <r>   -48.9324     0.0000    24.0000 </r>
       <r>   -48.6260     0.0000    24.0000 </r>
       <r>   -48.3197     0.0000    24.0000 </r>
       <r>   -48.0133     0.0000    24.0000 </r>
       <r>   -47.7069     0.0000    24.0000 </r>
       <r>   -47.4005     0.0000    24.0000 </r>
       <r>   -47.0941     0.0000    24.0000 </r>
       <r>   -46.7877     0.0000    24.0000 </r>
       <r>   -46.4814     0.0000    24.0000 </r>
       <r>   -46.1750     0.0000    24.0000 </r>
       <r>   -45.8686     0.0000    24.0000 </r>
       <r>   -45.5622     0.0000    24.0000 </r>
       <r>   -45.2558     0.0000    24.0000 </r>
       <r>   -44.9495     0.0000    24.0000 </r>
       <r>   -44.6431     0.0000    24.0000 </r>
       <r>   -44.3367     0.0000    24.0000 </r>
       <r>   -44.0303     0.0000    24.0000 </r>
       <r>   -43.7239     0.0000    24.0000 </r>
       <r>   -43.4176     0.0000    24.0000 </r>
       <r>   -43.1112     0.0000    24.0000 </r>
       <r>   -42.8048     0.0000    24.0000 </r>
       <r>   -42.4984     0.0000    24.0000 </r>
       <r>   -42.1920     0.0000    24.0000 </r>
       <r>   -41.8856     0.0000    24.0000 </r>
       <r>   -41.5793     0.0000    24.0000 </r>
       <r>   -41.2729     0.0000    24.0000 </r>
       <r>   -40.9665     0.0000    24.0000 </r>
       <r>   -40.6601     0.0000    24.0000 </r>
       <r>   -40.3537     0.0000    24.0000 </r>
       <r>   -40.0474     0.0000    24.0000 </r>
       <r>   -39.7410     0.0000    24.0000 </r>
       <r>   -39.4346     0.0000    24.0000 </r>
       <r>   -39.1282     0.0000    24.0000 </r>
       <r>   -38.8218     0.0000    24.0000 </r>
       <r>   -38.5155     0.0000    24.0000 </r>
       <r>   -38.2091     0.0000    24.0000 </r>
       <r>   -37.9027     0.0000    24.0000 </r>
       <r>   -37.5963     0.0000    24.0000 </r>
       <r>   -37.2899     0.0000    24.0000 </r>
       <r>   -36.9836     0.0000    24.0000 </r>
       <r>   -36.6772     0.0000    24.0000 </r>
       <r>   -36.3708     0.0000    24.0000 </r>
       <r>   -36.0644     0.0000    24.0000 </r>
       <r>   -35.7580     0.0000    24.0000 </r>
       <r>   -35.4516     0.0000    24.0000 </r>
       <r>   -35.1453     0.0000    24.0000 </r>
       <r>   -34.8389     0.0000    24.0000 </r>
       <r>   -34.5325     0.0000    24.0000 </r>
       <r>   -34.2261     0.0000    24.0000 </r>
       <r>   -33.9197     0.0000    24.0000 </r>
       <r>   -33.6134     0.0000    24.0000 </r>
       <r>   -33.3070     0.0000    24.0000 </r>
       <r>   -33.0006     0.0000    24.0000 </r>
       <r>   -32.6942     0.0000    24.0000 </r>
       <r>   -32.3878     0.0000    24.0000 </r>
       <r>   -32.0815     0.0000    24.0000 </r>
       <r>   -31.7751     0.0000    24.0000 </r>
       <r>   -31.4687     0.0000    24.0000 </r>
       <r>   -31.1623     0.0000    24.0000 </r>
       <r>   -30.8559     0.0000    24.0000 </r>
       <r>   -30.5496     0.0000    24.0000 </r>
       <r>   -30.2432     0.0000    24.0000 </r>
       <r>   -29.9368     0.0000    24.0000 </r>
       <r>   -29.6304     0.0000    24.0000 </r>
       <r>   -29.3240     0.0000    24.0000 </r>
       <r>   -29.0176     0.0000    24.0000 </r>
       <r>   -28.7113     0.0000    24.0000 </r>
       <r>   -28.4049     0.0000    24.0000 </r>
       <r>   -28.0985     0.0000    24.0000 </r>
       <r>   -27.7921     0.0000    24.0000 </r>
       <r>   -27.4857     0.0000    24.0000 </r>
       <r>   -27.1794     0.0000    24.0000 </r>
       <r>   -26.8730     0.0000    24.0000 </r>
       <r>   -26.5666     0.0000    24.0000 </r>
       <r>   -26.2602     0.0000    24.0000 </r>
       <r>   -25.9538     0.0000    24.0000 </r>
       <r>   -25.6475     0.0000    24.0000 </r>
       <r>   -25.3411     0.0000    24.0000 </r>
       <r>   -25.0347     0.0000    24.0000 </r>
       <r>   -24.7283     0.0000    24.0000 </r>
       <r>   -24.4219     0.0000    24.0000 </r>
       <r>   -24.1155     0.0000    24.0000 </r>
       <r>   -23.8092     0.0000    24.0000 </r>
       <r>   -23.5028     0.0000    24.0000 </r>
       <r>   -23.1964     0.0000    24.0000 </r>
       <r>   -22.8900     0.0000    24.0000 </r>
       <r>   -22.5836     0.0000    24.0000 </r>
       <r>   -22.2773     0.0000    24.0000 </r>
       <r>   -21.9709     0.0000    24.0000 </r>
       <r>   -21.6645     0.0000    24.0000 </r>
       <r>   -21.3581     0.0000    24.0000 </r>
       <r>   -21.0517     0.0000    24.0000 </r>
       <r>   -20.7454     0.0000    24.0000 </r>
       <r>   -20.4390     0.0000    24.0000 </r>
       <r>   -20.1326     0.0000    24.0000 </r>
       <r>   -19.8262     0.0000    24.0000 </r>
       <r>   -19.5198     0.0000    24.0000 </r>
       <r>   -19.2135     0.0000    24.0000 </r>
       <r>   -18.9071     0.0000    24.0000 </r>
       <r>   -18.6007     0.0000    24.0000 </r>
       <r>   -18.2943     0.0000    24.0000 </r>
       <r>   -17.9879     0.0000    24.0000 </r>
       <r>   -17.6815     0.0000    24.0000 </r>
       <r>   -17.3752     0.0000    24.0000 </r>
       <r>   -17.0688     0.0000    24.0000 </r>
       <r>   -16.7624     0.0000    24.0000 </r>
       <r>   -16.4560     0.0000    24.0000 </r>
       <r>   -16.1496     0.0000    24.0000 </r>
       <r>   -15.8433     0.0000    24.0000 </r>
       <r>   -15.5369     0.0000    24.0000 </r>
       <r>   -15.2305     0.0000    24.0000 </r>
       <r>   -14.9241     0.0000    24.0000 </r>
       <r>   -14.6177     0.0000    24.0000 </r>
       <r>   -14.3114     0.0000    24.0000 </r>
       <r>   -14.0050     0.0000    24.0000 </r>
       <r>   -13.6986    -0.0000    24.0000 </r>
       <r>   -13.3922    -0.0000    24.0000 </r>
       <r>   -13.0858    -0.0000    24.0000 </r>
       <r>   -12.7795    -0.0036    23.9989 </r>
       <r>   -12.4731     1.5957    24.4878 </r>
       <r>   -12.1667     3.5671    25.5807 </r>
       <r>   -11.8603     1.8870    26.1588 </r>
       <r>   -11.5539     2.1352    26.8130 </r>
       <r>   -11.2475     3.1949    27.7919 </r>
       <r>   -10.9412     2.5009    28.5581 </r>
       <r>   -10.6348     9.3313    31.4170 </r>
       <r>   -10.3284     9.3588    34.2844 </r>
       <r>   -10.0220     5.6179    36.0056 </r>
       <r>    -9.7156    -0.0183    36.0000 </r>
       <r>    -9.4093    -0.0000    36.0000 </r>
       <r>    -9.1029     0.0000    36.0000 </r>
       <r>    -8.7965     0.0000    36.0000 </r>
       <r>    -8.4901     0.0000    36.0000 </r>
       <r>    -8.1837     0.0000    36.0000 </r>
       <r>    -7.8774     0.0000    36.0000 </r>
       <r>    -7.5710     0.0000    36.0000 </r>
       <r>    -7.2646     0.0000    36.0000 </r>
       <r>    -6.9582    -0.0000    36.0000 </r>
       <r>    -6.6518    -0.0000    36.0000 </r>
       <r>    -6.3454    -0.0000    36.0000 </r>
       <r>    -6.0391     0.0736    36.0225 </r>
       <r>    -5.7327     3.5357    37.1058 </r>
       <r>    -5.4263     2.0379    37.7302 </r>
       <r>    -5.1199     1.8293    38.2907 </r>
       <r>    -4.8135     3.2828    39.2964 </r>
       <r>    -4.5072     2.2240    39.9779 </r>
       <r>    -4.2008     0.0723    40.0000 </r>
       <r>    -3.8944    -0.0000    40.0000 </r>
       <r>    -3.5880    -0.0000    40.0000 </r>
       <r>    -3.2816    -0.0000    40.0000 </r>
       <r>    -2.9753    -0.0004    39.9999 </r>
       <r>    -2.6689     0.3844    40.1176 </r>
       <r>    -2.3625     6.1651    42.0065 </r>
       <r>    -2.0561     6.7041    44.0605 </r>
       <r>    -1.7497     7.3238    46.3044 </r>
       <r>    -1.4434     6.4259    48.2732 </r>
       <r>    -1.1370     8.7104    50.9419 </r>
       <r>    -0.8306     9.0856    53.7255 </r>
       <r>    -0.5242    11.3023    57.1883 </r>
       <r>    -0.2178    18.0158    62.7080 </r>
       <r>     0.0886    29.1595    71.6420 </r>
       <r>     0.3949     1.1692    72.0002 </r>
       <r>     0.7013    -0.0006    72.0000 </r>
       <r>     1.0077    -0.0193    71.9941 </r>
       <r>     1.3141     7.2659    74.2202 </r>
       <r>     1.6205    44.9564    87.9940 </r>
       <r>     1.9268    13.7894    92.2188 </r>
       <r>     2.2332    13.1929    96.2609 </r>
       <r>     2.5396    12.8508   100.1981 </r>
       <r>     2.8460    11.1729   103.6213 </r>
       <r>     3.1524     9.0732   106.4011 </r>
       <r>     3.4587     7.9108   108.8249 </r>
       <r>     3.7651     6.9532   110.9552 </r>
       <r>     4.0715     3.1644   111.9247 </r>
       <r>     4.3779     0.2464   112.0002 </r>
       <r>     4.6843    -0.0006   112.0000 </r>
       <r>     4.9907    -0.0000   112.0000 </r>
       <r>     5.2970    -0.0001   112.0000 </r>
       <r>     5.6034     0.0757   112.0232 </r>
       <r>     5.9098     0.1500   112.0691 </r>
       <r>     6.2162     2.6132   112.8697 </r>
       <r>     6.5226     4.3803   114.2118 </r>
       <r>     6.8289     3.4816   115.2785 </r>
       <r>     7.1353     2.4241   116.0212 </r>
       <r>     7.4417     1.4326   116.4601 </r>
       <r>     7.7481     3.1679   117.4307 </r>
       <r>     8.0545     5.5326   119.1258 </r>
       <r>     8.3608     5.6056   120.8432 </r>
       <r>     8.6672     4.5896   122.2494 </r>
       <r>     8.9736     4.4706   123.6191 </r>
       <r>     9.2800     5.5937   125.3329 </r>
       <r>     9.5864     5.6910   127.0765 </r>
       <r>     9.8927     4.7713   128.5384 </r>
       <r>    10.1991     4.5173   129.9224 </r>
       <r>    10.5055     6.4768   131.9067 </r>
       <r>    10.8119     8.2924   134.4474 </r>
       <r>    11.1183     8.2590   136.9778 </r>
       <r>    11.4247     7.9518   139.4140 </r>
       <r>    11.7310     7.9145   141.8389 </r>
       <r>    12.0374     6.5745   143.8532 </r>
       <r>    12.3438     5.8596   145.6485 </r>
       <r>    12.6502     6.6354   147.6814 </r>
       <r>    12.9566     5.8193   149.4643 </r>
       <r>    13.2629     6.1707   151.3549 </r>
       <r>    13.5693     5.3438   152.9921 </r>
       <r>    13.8757     4.0673   154.2383 </r>
       <r>    14.1821     3.2494   155.2339 </r>
       <r>    14.4885     4.4698   156.6033 </r>
       <r>    14.7948     3.5707   157.6973 </r>
       <r>    15.1012     1.3772   158.1193 </r>
       <r>    15.4076     1.5654   158.5989 </r>
       <r>    15.7140     1.2197   158.9725 </r>
       <r>    16.0204     1.6950   159.4918 </r>
       <r>    16.3267     0.3335   159.5940 </r>
       <r>    16.6331     0.6793   159.8022 </r>
       <r>    16.9395     0.5181   159.9609 </r>
       <r>    17.2459     0.1277   160.0000 </r>
       <r>    17.5523    -0.0000   160.0000 </r>
       <r>    17.8587     0.0000   160.0000 </r>
       <r>    18.1650     0.0000   160.0000 </r>
       <r>    18.4714     0.0000   160.0000 </r>
       <r>    18.7778     0.0000   160.0000 </r>
       <r>    19.0842     0.0000   160.0000 </r>
      </set>
     </set>
    </array>
   </total>
  </dos>
 </calculation>
 <structure name="finalpos" >
  <crystal>
   <varray name="basis" >
    <v>       3.22479600      -5.64383000       0.03157200 </v>
    <v>       3.22479600       5.64383000       0.03157200 </v>
    <v>      -2.10194600       0.00000000       6.07553700 </v>
   </varray>
   <i name="volume">    221.90106089 </i>
   <varray name="rec_basis" >
    <v>       0.15452516      -0.08859232       0.05346088 </v>
    <v>       0.15452516       0.08859232       0.05346088 </v>
    <v>      -0.00160600       0.00000000       0.16403888 </v>
   </varray>
  </crystal>
  <varray name="positions" >
   <v>       0.61844300       0.12117100       0.11953300 </v>
   <v>       0.12117100       0.61844300       0.61953300 </v>
   <v>       0.96295700       0.79032200       0.11881300 </v>
   <v>       0.79032200       0.96295700       0.61881300 </v>
   <v>       0.43973200       0.26728100       0.59904700 </v>
   <v>       0.26728100       0.43973200       0.09904700 </v>
   <v>       0.07949800       0.91167500       0.49736300 </v>
   <v>       0.57140300       0.41236400       0.97862852 </v>
   <v>       0.73711100       0.25006200       0.49504900 </v>
   <v>       0.41236400       0.57140300       0.48018400 </v>
   <v>       0.91167500       0.07949800       0.99736300 </v>
   <v>       0.25006200       0.73711100       0.99504900 </v>
  </varray>
 </structure>
</modeling>
