   12   12    1    1
  0.1849176E+02  0.6500240E-09  0.6500240E-09  0.6428867E-09  0.5000000E-15
  1.000000000000000E-004
  CAR 
 CGS                                     
  112   42   80
 
  0.0000000E+00  0.0000000E+00  0.0000000E+00  0.1250000E-01
   1      -68.650038
   2      -68.644314
   3      -68.638068
   4      -68.634025
   5      -68.617500
   6      -68.611650
   7      -68.600799
   8      -68.594519
   9      -68.581536
  10      -68.578295
  11      -68.565919
  12      -68.561247
  13      -12.717661
  14      -11.123860
  15      -10.915549
  16      -10.603211
  17      -10.247553
  18      -10.232096
  19       -5.986932
  20       -4.980943
  21       -2.758976
  22       -2.207274
  23       -2.068168
  24       -1.920363
  25       -1.577006
  26       -0.987755
  27       -0.952285
  28       -0.682613
  29       -0.404910
  30       -0.276459
  31       -0.264985
  32       -0.236641
  33       -0.191298
  34       -0.158745
  35       -0.043479
  36        0.030498
  37        1.348160
  38        1.361349
  39        1.412694
  40        1.455677
  41        1.469173
  42        1.472305
  43        1.518747
  44        1.529813
  45        1.573909
  46        1.710903
  47        1.891805
  48        1.927953
  49        2.057415
  50        2.649598
  51        2.728867
  52        3.094787
  53        3.218155
  54        4.010374
  55        4.041521
  56        4.176626
  57        5.531602
  58        6.351190
  59        7.628295
  60        7.985546
  61        8.606036
  62        8.791061
  63        9.558926
  64        9.740049
  65        9.814386
  66       10.421750
  67       10.588224
  68       10.687842
  69       10.721165
  70       11.284441
  71       11.714638
  72       12.397856
  73       12.451025
  74       12.725775
  75       13.320482
  76       13.390579
  77       13.828482
  78       13.888133
  79       14.144616
  80       14.183275
 
  0.2500000E+00  0.7372575E-17  0.1387779E-16  0.2500000E-01
   1      -68.649993
   2      -68.644290
   3      -68.638028
   4      -68.634000
   5      -68.617386
   6      -68.611547
   7      -68.600831
   8      -68.594518
   9      -68.581481
  10      -68.578228
  11      -68.565883
  12      -68.561213
  13      -12.592588
  14      -11.119298
  15      -10.983078
  16      -10.677594
  17      -10.363404
  18      -10.273384
  19       -5.935198
  20       -4.771520
  21       -2.645129
  22       -2.250687
  23       -2.084201
  24       -1.688057
  25       -1.340854
  26       -1.000290
  27       -0.769565
  28       -0.624197
  29       -0.553981
  30       -0.439195
  31       -0.364353
  32       -0.242635
  33       -0.196946
  34       -0.167487
  35       -0.052753
  36        0.036840
  37        1.277440
  38        1.333206
  39        1.352910
  40        1.391150
  41        1.425749
  42        1.469957
  43        1.495372
  44        1.530287
  45        1.723253
  46        1.858033
  47        2.054683
  48        2.092908
  49        2.230977
  50        2.413745
  51        2.556871
  52        2.826759
  53        2.947411
  54        3.243206
  55        3.666397
  56        4.043151
  57        6.165235
  58        6.900500
  59        8.136539
  60        8.266780
  61        8.584045
  62        9.010978
  63        9.241825
  64        9.530990
  65        9.859823
  66       10.378739
  67       10.634750
  68       10.811127
  69       10.945404
  70       11.194990
  71       11.654810
  72       11.771216
  73       12.115089
  74       12.444874
  75       12.617953
  76       13.009218
  77       13.506543
  78       13.873806
  79       14.212083
  80       14.712701
 
  0.5000000E+00  0.1474515E-16  0.2775558E-16  0.1250000E-01
   1      -68.649878
   2      -68.644122
   3      -68.637960
   4      -68.633911
   5      -68.617330
   6      -68.611532
   7      -68.600746
   8      -68.594453
   9      -68.581474
  10      -68.578169
  11      -68.565712
  12      -68.561098
  13      -12.433077
  14      -11.243006
  15      -10.956062
  16      -10.764577
  17      -10.425743
  18      -10.352987
  19       -5.872900
  20       -4.547474
  21       -2.493573
  22       -2.242594
  23       -1.944743
  24       -1.464027
  25       -1.224692
  26       -1.097721
  27       -0.900804
  28       -0.862076
  29       -0.601084
  30       -0.536206
  31       -0.273989
  32       -0.208943
  33       -0.204307
  34       -0.146378
  35       -0.037285
  36        0.078692
  37        1.252127
  38        1.323964
  39        1.346709
  40        1.396664
  41        1.467838
  42        1.476547
  43        1.498111
  44        1.553679
  45        1.751988
  46        1.791132
  47        1.964956
  48        2.145643
  49        2.318213
  50        2.360522
  51        2.555204
  52        2.669972
  53        2.937988
  54        3.080208
  55        3.252415
  56        3.863873
  57        6.379077
  58        7.092744
  59        7.974402
  60        8.204821
  61        8.518565
  62        8.819226
  63        9.326837
  64        9.895222
  65       10.003197
  66       10.513702
  67       10.693145
  68       10.792903
  69       11.143464
  70       11.406333
  71       11.610552
  72       11.773285
  73       11.949664
  74       12.506858
  75       12.776561
  76       13.001616
  77       13.392716
  78       13.542345
  79       13.940687
  80       14.271034
 
  0.7372575E-17  0.2500000E+00  0.1387779E-16  0.2500000E-01
   1      -68.650014
   2      -68.644267
   3      -68.638044
   4      -68.633986
   5      -68.617390
   6      -68.611543
   7      -68.600804
   8      -68.594546
   9      -68.581465
  10      -68.578242
  11      -68.565885
  12      -68.561213
  13      -12.592662
  14      -11.119493
  15      -10.983437
  16      -10.676959
  17      -10.360752
  18      -10.275887
  19       -5.935457
  20       -4.771431
  21       -2.644588
  22       -2.251729
  23       -2.084740
  24       -1.686385
  25       -1.345460
  26       -0.999023
  27       -0.767472
  28       -0.624523
  29       -0.556115
  30       -0.442219
  31       -0.361268
  32       -0.242285
  33       -0.197874
  34       -0.169887
  35       -0.047791
  36        0.037097
  37        1.277114
  38        1.334671
  39        1.353727
  40        1.389572
  41        1.425050
  42        1.470451
  43        1.497353
  44        1.527847
  45        1.723130
  46        1.860187
  47        2.055626
  48        2.094133
  49        2.229755
  50        2.413585
  51        2.554258
  52        2.826890
  53        2.951554
  54        3.245490
  55        3.664647
  56        4.042998
  57        6.163532
  58        6.897662
  59        8.136944
  60        8.261747
  61        8.586465
  62        9.011591
  63        9.235460
  64        9.531427
  65        9.867973
  66       10.380366
  67       10.632769
  68       10.814622
  69       10.943419
  70       11.191770
  71       11.651534
  72       11.772480
  73       12.119224
  74       12.438215
  75       12.619479
  76       13.010545
  77       13.520197
  78       13.901173
  79       14.274006
  80       14.840993
 
  0.2500000E+00  0.2500000E+00  0.0000000E+00  0.2500000E-01
   1      -68.650015
   2      -68.644290
   3      -68.637933
   4      -68.633883
   5      -68.617521
   6      -68.611679
   7      -68.600708
   8      -68.594421
   9      -68.581597
  10      -68.578359
  11      -68.565903
  12      -68.561230
  13      -12.437022
  14      -11.183591
  15      -10.942233
  16      -10.878600
  17      -10.389587
  18      -10.345267
  19       -5.878189
  20       -4.520818
  21       -2.417117
  22       -2.243874
  23       -1.791139
  24       -1.679055
  25       -1.356297
  26       -1.297899
  27       -1.082249
  28       -0.682443
  29       -0.524611
  30       -0.297863
  31       -0.283518
  32       -0.227018
  33       -0.186969
  34       -0.131310
  35       -0.095017
  36        0.077660
  37        1.291712
  38        1.309812
  39        1.413376
  40        1.424907
  41        1.461733
  42        1.480694
  43        1.494344
  44        1.568320
  45        1.670765
  46        1.879132
  47        1.938215
  48        2.134601
  49        2.278875
  50        2.320673
  51        2.560368
  52        2.650897
  53        2.905295
  54        2.945752
  55        3.700022
  56        3.833666
  57        6.163580
  58        6.983028
  59        8.003102
  60        8.319862
  61        8.431837
  62        8.568873
  63        9.145499
  64        9.247995
  65       10.361845
  66       10.491169
  67       10.923249
  68       11.187092
  69       11.328918
  70       11.556259
  71       11.819879
  72       11.968832
  73       12.315792
  74       12.500744
  75       12.712800
  76       12.909113
  77       13.338303
  78       13.445591
  79       14.256893
  80       14.369185
 
  0.5000000E+00  0.2500000E+00 -0.2775558E-16  0.2500000E-01
   1      -68.649793
   2      -68.644061
   3      -68.638010
   4      -68.633961
   5      -68.617299
   6      -68.611444
   7      -68.600766
   8      -68.594474
   9      -68.581399
  10      -68.578152
  11      -68.565742
  12      -68.561101
  13      -12.437641
  14      -11.347202
  15      -10.937381
  16      -10.738444
  17      -10.384918
  18      -10.268950
  19       -5.949234
  20       -4.642436
  21       -2.391382
  22       -2.224719
  23       -2.054418
  24       -1.638719
  25       -1.359071
  26       -1.281908
  27       -1.022317
  28       -0.510633
  29       -0.483967
  30       -0.331283
  31       -0.285130
  32       -0.214592
  33       -0.152157
  34       -0.137936
  35       -0.017141
  36        0.108867
  37        1.243957
  38        1.314974
  39        1.379519
  40        1.434594
  41        1.459454
  42        1.490832
  43        1.495104
  44        1.548675
  45        1.748346
  46        1.826954
  47        1.919143
  48        2.132458
  49        2.220263
  50        2.383246
  51        2.560979
  52        2.791990
  53        2.979134
  54        3.313391
  55        3.608591
  56        3.750222
  57        6.081582
  58        6.933776
  59        7.609552
  60        8.069385
  61        8.404041
  62        8.612245
  63        8.979929
  64        9.151823
  65       10.088313
  66       10.336890
  67       10.733537
  68       11.105255
  69       11.457393
  70       11.601156
  71       11.797727
  72       12.087460
  73       12.478036
  74       12.925790
  75       13.035562
  76       13.828707
  77       14.194126
  78       14.655489
  79       15.425198
  80       15.640997
 
 -0.2500000E+00  0.2500000E+00  0.0000000E+00  0.2500000E-01
   1      -68.650005
   2      -68.644280
   3      -68.638010
   4      -68.633965
   5      -68.617320
   6      -68.611477
   7      -68.600802
   8      -68.594516
   9      -68.581423
  10      -68.578182
  11      -68.565885
  12      -68.561215
  13      -12.595752
  14      -11.243909
  15      -10.992046
  16      -10.570632
  17      -10.361671
  18      -10.177807
  19       -6.011554
  20       -4.893925
  21       -2.645885
  22       -2.311963
  23       -1.968511
  24       -1.645347
  25       -1.495667
  26       -1.181628
  27       -0.789979
  28       -0.585355
  29       -0.448348
  30       -0.335544
  31       -0.295917
  32       -0.234846
  33       -0.177026
  34       -0.135877
  35       -0.011180
  36        0.068060
  37        1.257680
  38        1.318357
  39        1.363766
  40        1.421045
  41        1.429340
  42        1.473981
  43        1.501540
  44        1.542229
  45        1.723158
  46        1.810574
  47        1.994161
  48        2.071576
  49        2.414395
  50        2.464633
  51        2.529433
  52        2.871987
  53        3.143891
  54        3.229749
  55        3.786092
  56        4.074826
  57        5.974583
  58        6.685805
  59        7.527822
  60        8.222749
  61        8.610796
  62        8.912116
  63        9.300767
  64        9.428620
  65        9.803360
  66       10.271245
  67       10.546374
  68       10.830090
  69       10.976099
  70       11.383160
  71       11.478468
  72       11.733077
  73       12.096236
  74       12.662087
  75       12.940086
  76       13.103066
  77       13.351373
  78       13.524233
  79       14.477239
  80       14.756122
 
  0.1474515E-16  0.5000000E+00  0.2775558E-16  0.1250000E-01
   1      -68.649841
   2      -68.644143
   3      -68.637966
   4      -68.633907
   5      -68.617377
   6      -68.611492
   7      -68.600738
   8      -68.594461
   9      -68.581409
  10      -68.578229
  11      -68.565775
  12      -68.561045
  13      -12.433296
  14      -11.243169
  15      -10.956626
  16      -10.763772
  17      -10.419654
  18      -10.358643
  19       -5.873438
  20       -4.547221
  21       -2.493306
  22       -2.243103
  23       -1.943331
  24       -1.464099
  25       -1.225921
  26       -1.101254
  27       -0.906425
  28       -0.863807
  29       -0.599458
  30       -0.537423
  31       -0.274463
  32       -0.205171
  33       -0.202576
  34       -0.148839
  35       -0.032354
  36        0.078946
  37        1.252639
  38        1.327239
  39        1.346255
  40        1.394343
  41        1.470114
  42        1.477701
  43        1.498000
  44        1.550179
  45        1.752369
  46        1.788277
  47        1.967227
  48        2.148148
  49        2.320210
  50        2.361457
  51        2.560928
  52        2.671920
  53        2.936476
  54        3.082547
  55        3.248746
  56        3.863053
  57        6.377880
  58        7.088410
  59        7.981329
  60        8.200269
  61        8.500866
  62        8.814475
  63        9.326757
  64        9.885596
  65       10.013590
  66       10.523568
  67       10.691037
  68       10.798252
  69       11.139206
  70       11.408057
  71       11.613036
  72       11.783138
  73       11.946536
  74       12.508024
  75       12.829773
  76       13.028841
  77       13.548201
  78       13.684727
  79       14.554179
  80       15.251118
 
  0.2500000E+00  0.5000000E+00 -0.2775558E-16  0.2500000E-01
   1      -68.649793
   2      -68.644063
   3      -68.637979
   4      -68.633954
   5      -68.617322
   6      -68.611445
   7      -68.600775
   8      -68.594483
   9      -68.581360
  10      -68.578185
  11      -68.565779
  12      -68.561064
  13      -12.437746
  14      -11.347221
  15      -10.937856
  16      -10.737863
  17      -10.383274
  18      -10.270421
  19       -5.949475
  20       -4.642398
  21       -2.390383
  22       -2.224565
  23       -2.054064
  24       -1.641282
  25       -1.362253
  26       -1.281344
  27       -1.022544
  28       -0.510455
  29       -0.483139
  30       -0.332610
  31       -0.284070
  32       -0.215529
  33       -0.153767
  34       -0.139552
  35       -0.012053
  36        0.110015
  37        1.245306
  38        1.312690
  39        1.381695
  40        1.435802
  41        1.460004
  42        1.490894
  43        1.495157
  44        1.546861
  45        1.749130
  46        1.825440
  47        1.920923
  48        2.132820
  49        2.218972
  50        2.386241
  51        2.563577
  52        2.791133
  53        2.980256
  54        3.313126
  55        3.606035
  56        3.749440
  57        6.080290
  58        6.931470
  59        7.610007
  60        8.066403
  61        8.404383
  62        8.610965
  63        8.985125
  64        9.149649
  65       10.087136
  66       10.335791
  67       10.733767
  68       11.110122
  69       11.458866
  70       11.581162
  71       11.784897
  72       12.029283
  73       12.507224
  74       12.662164
  75       12.915223
  76       13.214523
  77       14.215975
  78       14.718736
  79       15.182767
  80       15.902055
 
  0.5000000E+00  0.5000000E+00  0.0000000E+00  0.1250000E-01
   1      -68.649629
   2      -68.643880
   3      -68.637823
   4      -68.633768
   5      -68.617174
   6      -68.611369
   7      -68.600567
   8      -68.594285
   9      -68.581304
  10      -68.578060
  11      -68.565554
  12      -68.560883
  13      -12.429942
  14      -11.494579
  15      -10.912945
  16      -10.618237
  17      -10.391685
  18      -10.197854
  19       -6.027372
  20       -4.811226
  21       -2.311512
  22       -2.262027
  23       -2.090249
  24       -1.702347
  25       -1.244907
  26       -1.108919
  27       -0.842472
  28       -0.777799
  29       -0.728255
  30       -0.244900
  31       -0.201322
  32       -0.183103
  33       -0.152884
  34       -0.044139
  35       -0.005771
  36        0.180403
  37        1.264106
  38        1.316226
  39        1.374247
  40        1.411887
  41        1.430232
  42        1.490275
  43        1.507126
  44        1.548149
  45        1.784601
  46        1.844068
  47        1.995866
  48        2.150604
  49        2.251075
  50        2.335396
  51        2.560379
  52        2.764444
  53        2.773670
  54        3.369928
  55        3.764363
  56        4.013328
  57        5.848258
  58        6.765675
  59        7.074175
  60        8.416071
  61        8.560698
  62        8.768005
  63        9.138220
  64        9.232662
  65        9.959276
  66       10.284696
  67       10.727164
  68       10.826674
  69       10.879119
  70       11.275075
  71       11.753058
  72       11.915935
  73       11.972854
  74       12.369265
  75       12.538403
  76       13.456561
  77       14.287761
  78       14.674449
  79       16.744730
  80       16.755089
 
 -0.2168404E-18 -0.2168404E-18  0.2000000E+00  0.2500000E-01
   1      -68.650041
   2      -68.644315
   3      -68.638038
   4      -68.633994
   5      -68.617416
   6      -68.611572
   7      -68.600826
   8      -68.594540
   9      -68.581508
  10      -68.578268
  11      -68.565921
  12      -68.561249
  13      -12.614430
  14      -11.421129
  15      -10.775824
  16      -10.608010
  17      -10.246532
  18      -10.233852
  19       -5.833134
  20       -5.044838
  21       -2.598331
  22       -2.370760
  23       -1.960446
  24       -1.772508
  25       -1.443434
  26       -1.127097
  27       -1.068288
  28       -0.771477
  29       -0.472116
  30       -0.295017
  31       -0.241881
  32       -0.236423
  33       -0.193537
  34       -0.149138
  35       -0.021074
  36        0.022994
  37        1.331055
  38        1.380223
  39        1.414617
  40        1.437858
  41        1.463354
  42        1.464957
  43        1.512818
  44        1.543638
  45        1.631757
  46        1.757609
  47        1.786827
  48        1.950019
  49        2.086970
  50        2.659974
  51        2.718839
  52        3.198106
  53        3.253373
  54        3.524705
  55        3.898791
  56        3.978735
  57        6.037672
  58        6.408751
  59        7.822357
  60        7.908627
  61        8.358640
  62        8.817263
  63        9.773513
  64        9.791932
  65       10.056998
  66       10.586665
  67       10.644077
  68       10.818206
  69       10.853358
  70       11.497397
  71       11.561030
  72       12.028371
  73       12.576719
  74       12.776307
  75       12.918750
  76       13.207115
  77       13.534871
  78       13.826256
  79       14.195228
  80       14.707040
 
  0.2500000E+00  0.1517883E-17  0.2000000E+00  0.2500000E-01
   1      -68.649976
   2      -68.644253
   3      -68.638023
   4      -68.633979
   5      -68.617463
   6      -68.611612
   7      -68.600778
   8      -68.594499
   9      -68.581512
  10      -68.578284
  11      -68.565864
  12      -68.561181
  13      -12.455185
  14      -11.462469
  15      -10.862681
  16      -10.687469
  17      -10.371341
  18      -10.241426
  19       -5.768627
  20       -4.802921
  21       -2.443523
  22       -2.230553
  23       -1.850057
  24       -1.712798
  25       -1.427166
  26       -1.189841
  27       -0.891680
  28       -0.746841
  29       -0.607906
  30       -0.523928
  31       -0.313282
  32       -0.246635
  33       -0.177339
  34       -0.122145
  35       -0.058153
  36        0.059259
  37        1.299490
  38        1.335740
  39        1.368090
  40        1.428163
  41        1.445394
  42        1.476814
  43        1.520419
  44        1.544873
  45        1.642172
  46        1.870556
  47        1.975430
  48        2.048031
  49        2.193139
  50        2.476320
  51        2.597348
  52        2.840217
  53        2.964097
  54        3.133808
  55        3.569569
  56        3.728168
  57        6.431798
  58        6.951916
  59        8.167448
  60        8.240445
  61        8.834660
  62        9.124552
  63        9.465879
  64        9.795767
  65       10.085891
  66       10.296549
  67       10.741391
  68       11.083860
  69       11.288221
  70       11.422691
  71       11.632616
  72       11.729917
  73       12.085430
  74       12.264778
  75       12.541241
  76       12.663377
  77       12.954537
  78       13.059832
  79       13.641047
  80       14.689236
 
  0.5000000E+00  0.9107298E-17  0.2000000E+00  0.2500000E-01
   1      -68.649819
   2      -68.644053
   3      -68.637937
   4      -68.633916
   5      -68.617311
   6      -68.611477
   7      -68.600690
   8      -68.594421
   9      -68.581414
  10      -68.578182
  11      -68.565779
  12      -68.561126
  13      -12.352782
  14      -11.408892
  15      -10.951974
  16      -10.682267
  17      -10.476379
  18      -10.330564
  19       -5.754161
  20       -4.721989
  21       -2.520695
  22       -2.185011
  23       -1.951202
  24       -1.533609
  25       -1.298121
  26       -1.093644
  27       -0.869145
  28       -0.756782
  29       -0.550104
  30       -0.446672
  31       -0.291637
  32       -0.182287
  33       -0.148547
  34       -0.106644
  35       -0.052639
  36        0.021820
  37        1.269073
  38        1.296000
  39        1.350013
  40        1.427018
  41        1.451319
  42        1.477679
  43        1.499715
  44        1.587464
  45        1.718073
  46        1.931846
  47        2.074157
  48        2.145792
  49        2.265373
  50        2.401563
  51        2.568598
  52        2.596099
  53        2.900535
  54        3.012037
  55        3.361605
  56        3.901788
  57        6.356609
  58        6.894103
  59        7.566510
  60        8.084976
  61        8.547127
  62        8.795896
  63        9.281895
  64        9.623680
  65        9.931539
  66       10.275062
  67       10.658755
  68       10.926454
  69       10.975193
  70       11.278388
  71       11.517692
  72       11.791423
  73       12.247638
  74       12.553358
  75       13.097686
  76       13.518521
  77       14.294945
  78       14.625749
  79       15.123046
  80       16.267319
 
 -0.2500000E+00 -0.4098284E-16  0.2000000E+00  0.2500000E-01
   1      -68.650037
   2      -68.644306
   3      -68.638013
   4      -68.633970
   5      -68.617416
   6      -68.611583
   7      -68.600814
   8      -68.594525
   9      -68.581530
  10      -68.578281
  11      -68.565909
  12      -68.561248
  13      -12.538062
  14      -11.332685
  15      -10.871376
  16      -10.606330
  17      -10.394756
  18      -10.279492
  19       -5.826972
  20       -4.973859
  21       -2.664078
  22       -2.452361
  23       -2.037040
  24       -1.573496
  25       -1.166685
  26       -0.983452
  27       -0.792669
  28       -0.659888
  29       -0.516761
  30       -0.392988
  31       -0.269866
  32       -0.257337
  33       -0.193606
  34       -0.146964
  35       -0.049937
  36        0.012023
  37        1.287971
  38        1.309629
  39        1.386071
  40        1.407183
  41        1.432526
  42        1.454135
  43        1.489546
  44        1.563582
  45        1.686799
  46        1.915848
  47        1.984321
  48        2.143964
  49        2.334881
  50        2.563025
  51        2.615639
  52        2.831872
  53        2.973486
  54        3.247641
  55        3.689040
  56        3.947991
  57        6.173198
  58        6.633637
  59        7.764940
  60        7.970932
  61        8.208851
  62        8.559242
  63        9.371193
  64        9.577253
  65        9.908284
  66       10.252614
  67       10.542139
  68       10.790275
  69       10.840652
  70       11.072048
  71       11.565571
  72       12.022724
  73       12.526413
  74       12.746881
  75       12.961225
  76       13.309821
  77       13.414700
  78       13.741137
  79       13.847344
  80       14.726309
 
  0.1517883E-17  0.2500000E+00  0.2000000E+00  0.2500000E-01
   1      -68.649979
   2      -68.644251
   3      -68.638023
   4      -68.633980
   5      -68.617456
   6      -68.611619
   7      -68.600785
   8      -68.594492
   9      -68.581523
  10      -68.578274
  11      -68.565852
  12      -68.561192
  13      -12.455352
  14      -11.462193
  15      -10.862457
  16      -10.688076
  17      -10.371034
  18      -10.241313
  19       -5.768676
  20       -4.803053
  21       -2.443049
  22       -2.231117
  23       -1.850964
  24       -1.712111
  25       -1.432647
  26       -1.188084
  27       -0.890245
  28       -0.746667
  29       -0.607158
  30       -0.523552
  31       -0.315274
  32       -0.248229
  33       -0.174395
  34       -0.124092
  35       -0.055537
  36        0.060199
  37        1.300841
  38        1.333463
  39        1.367330
  40        1.430947
  41        1.444892
  42        1.478447
  43        1.518961
  44        1.545610
  45        1.642016
  46        1.872440
  47        1.978027
  48        2.045651
  49        2.192635
  50        2.476577
  51        2.593656
  52        2.840615
  53        2.967868
  54        3.135020
  55        3.569234
  56        3.726250
  57        6.433033
  58        6.947064
  59        8.165565
  60        8.246061
  61        8.828813
  62        9.127257
  63        9.466188
  64        9.790048
  65       10.083610
  66       10.301074
  67       10.742478
  68       11.078909
  69       11.294697
  70       11.423552
  71       11.633409
  72       11.726811
  73       12.085049
  74       12.266639
  75       12.542938
  76       12.659853
  77       12.954802
  78       13.056798
  79       13.657259
  80       14.699627
 
  0.2500000E+00  0.2500000E+00  0.2000000E+00  0.2500000E-01
   1      -68.649886
   2      -68.644162
   3      -68.637875
   4      -68.633826
   5      -68.617296
   6      -68.611455
   7      -68.600661
   8      -68.594375
   9      -68.581391
  10      -68.578145
  11      -68.565771
  12      -68.561095
  13      -12.323585
  14      -11.470270
  15      -10.863802
  16      -10.852855
  17      -10.406976
  18      -10.281477
  19       -5.750073
  20       -4.691756
  21       -2.239198
  22       -2.136505
  23       -1.927975
  24       -1.849586
  25       -1.452013
  26       -1.397140
  27       -1.037385
  28       -0.521112
  29       -0.461280
  30       -0.349657
  31       -0.252692
  32       -0.220569
  33       -0.163354
  34       -0.113934
  35       -0.092557
  36        0.078256
  37        1.260397
  38        1.345539
  39        1.395134
  40        1.433643
  41        1.451138
  42        1.508468
  43        1.534362
  44        1.543356
  45        1.752507
  46        1.817327
  47        2.038937
  48        2.133078
  49        2.285643
  50        2.308465
  51        2.522977
  52        2.769090
  53        2.901241
  54        3.265247
  55        3.496308
  56        3.803908
  57        6.173572
  58        6.834355
  59        7.826075
  60        8.041921
  61        8.182804
  62        8.722474
  63        9.154437
  64        9.301616
  65       10.222486
  66       10.444465
  67       10.590764
  68       11.007006
  69       11.240356
  70       11.487979
  71       11.814663
  72       12.171924
  73       12.208799
  74       12.576955
  75       12.691604
  76       13.109694
  77       13.418985
  78       13.881807
  79       14.003682
  80       14.522032
 
  0.5000000E+00  0.2500000E+00  0.2000000E+00  0.2500000E-01
   1      -68.649754
   2      -68.644017
   3      -68.637988
   4      -68.633947
   5      -68.617310
   6      -68.611478
   7      -68.600739
   8      -68.594443
   9      -68.581378
  10      -68.578211
  11      -68.565728
  12      -68.561077
  13      -12.370560
  14      -11.467709
  15      -10.935259
  16      -10.653414
  17      -10.415434
  18      -10.301921
  19       -5.802298
  20       -4.837197
  21       -2.525358
  22       -2.242912
  23       -1.871114
  24       -1.641120
  25       -1.500158
  26       -1.306796
  27       -0.900355
  28       -0.533903
  29       -0.380126
  30       -0.350197
  31       -0.225134
  32       -0.180651
  33       -0.160669
  34       -0.078678
  35       -0.032461
  36        0.076249
  37        1.188487
  38        1.361928
  39        1.395406
  40        1.440097
  41        1.461334
  42        1.504864
  43        1.516828
  44        1.582844
  45        1.739131
  46        1.815262
  47        2.037637
  48        2.234792
  49        2.267053
  50        2.361249
  51        2.486938
  52        2.672760
  53        3.052252
  54        3.412026
  55        3.733480
  56        3.869991
  57        5.924181
  58        6.609489
  59        7.349640
  60        7.937777
  61        8.064767
  62        8.719319
  63        8.904212
  64        9.136067
  65        9.845246
  66       10.324153
  67       10.556137
  68       10.929362
  69       11.225049
  70       11.413196
  71       11.756155
  72       12.003896
  73       12.495285
  74       12.833005
  75       13.204637
  76       14.097033
  77       14.713271
  78       15.053676
  79       15.920394
  80       16.565338
 
 -0.2500000E+00  0.2500000E+00  0.2000000E+00  0.2500000E-01
   1      -68.649941
   2      -68.644253
   3      -68.638064
   4      -68.634027
   5      -68.617395