 vasp.5.3.3 18Dez12 (build Nov 13 2015 09:58:40) complex                        
  
 executed on             LinuxIFC date 2017.10.18  13:04:00
 running on   48 total cores
 distrk:  each k-point on   16 cores,    3 groups
 distr:  one band on NCORES_PER_BAND=   1 cores,   16 groups


--------------------------------------------------------------------------------------------------------


 INCAR:
 POTCAR:    PAW_PBE Cu_pv 06Sep2000               
 POTCAR:    PAW_PBE Ge 05Jan2001                  
 POTCAR:    PAW_PBE S 17Jan2003                   

 ----------------------------------------------------------------------------- 
|                                                                             |
|           W    W    AA    RRRRR   N    N  II  N    N   GGGG   !!!           |
|           W    W   A  A   R    R  NN   N  II  NN   N  G    G  !!!           |
|           W    W  A    A  R    R  N N  N  II  N N  N  G       !!!           |
|           W WW W  AAAAAA  RRRRR   N  N N  II  N  N N  G  GGG   !            |
|           WW  WW  A    A  R   R   N   NN  II  N   NN  G    G                |
|           W    W  A    A  R    R  N    N  II  N    N   GGGG   !!!           |
|                                                                             |
|      For optimal performance we recommend that you set                      |
|        NPAR = 4 - approx SQRT( number of cores)                             |
|      (number of cores/NPAR must be integer)                                 |
|      This setting will greatly improve the performance of VASP for DFT.     |
|      The default NPAR=number of cores might be grossly inefficient          |
|      on modern multi-core architectures or massively parallel machines.     |
|      Do your own testing.                                                   |
|      Unfortunately you need to use the default for hybrid, GW and RPA       |
|      calculations.                                                          |
|                                                                             |
 ----------------------------------------------------------------------------- 


 ----------------------------------------------------------------------------- 
|                                                                             |
|           W    W    AA    RRRRR   N    N  II  N    N   GGGG   !!!           |
|           W    W   A  A   R    R  NN   N  II  NN   N  G    G  !!!           |
|           W    W  A    A  R    R  N N  N  II  N N  N  G       !!!           |
|           W WW W  AAAAAA  RRRRR   N  N N  II  N  N N  G  GGG   !            |
|           WW  WW  A    A  R   R   N   NN  II  N   NN  G    G                |
|           W    W  A    A  R    R  N    N  II  N    N   GGGG   !!!           |
|                                                                             |
|      You have enabled k-point parallelism (KPAR>1).                         |
|      This developmental code was originally  written by Paul Kent at ORNL,  |
|      and carefully double checked in Vienna.                                |
|      GW as well as linear response parallelism added by Martijn Marsman     |
|      and Georg Kresse.                                                      |
|      Carefully verify results versus KPAR=1.                                |
|      Report problems to Paul Kent and Vienna.                               |
|                                                                             |
 ----------------------------------------------------------------------------- 

 POTCAR:    PAW_PBE Cu_pv 06Sep2000               
   VRHFIN =Cu: d10 p1                                                           
   LEXCH  = PE                                                                  
   EATOM  =  4120.1201 eV,  302.8203 Ry                                         
                                                                                
   TITEL  = PAW_PBE Cu_pv 06Sep2000                                             
   LULTRA =        F    use ultrasoft PP ?                                      
   IUNSCR =        1    unscreen: 0-lin 1-nonlin 2-no                           
   RPACOR =    1.500    partial core radius                                     
   POMASS =   63.546; ZVAL   =   17.000    mass and valenz                      
   RCORE  =    2.000    outmost cutoff radius                                   
   RWIGS  =    2.000; RWIGS  =    1.058    wigner-seitz radius (au A)           
   ENMAX  =  368.648; ENMIN  =  276.486 eV                                      
   RCLOC  =    1.304    cutoff for local pot                                    
   LCOR   =        T    correct aug charges                                     
   LPAW   =        T    paw PP                                                  
   EAUG   =  758.233                                                            
   DEXC   =    0.000                                                            
   RMAX   =    2.046    core radius for proj-oper                               
   RAUG   =    1.300    factor for augmentation sphere                          
   RDEP   =    2.025    radius for radial grids                                 
   RDEPT  =    1.558    core radius for aug-charge                              
                                                                                
   Atomic configuration                                                         
    8 entries                                                                   
     n  l   j            E        occ.                                          
     1  0  0.50     -8850.2467   2.0000                                         
     2  0  0.50     -1062.3498   2.0000                                         
     2  1  1.50      -916.8226   6.0000                                         
     3  0  0.50      -114.6929   2.0000                                         
     3  1  1.50       -72.1325   6.0000                                         
     3  2  2.50        -5.0394  10.0000                                         
     4  0  0.50        -4.6097   1.0000                                         
     4  3  2.50        -1.3606   0.0000                                         
   Description                                                                  
     l       E           TYP  RCUT    TYP  RCUT                                 
     1    -72.1324777     23  1.700                                             
     1     -1.3605826     23  1.700                                             
     2     -5.0393776     23  2.000                                             
     2     -6.3999602     23  2.000                                             
     0     -4.6097062     23  1.800                                             
     0     14.1620818     23  1.800                                             
  local pseudopotential read in
  partial core-charges read in
  partial kinetic energy density read in
  atomic valenz-charges read in
  non local Contribution for L=           1  read in
    real space projection operators read in
  non local Contribution for L=           1  read in
    real space projection operators read in
  non local Contribution for L=           2  read in
    real space projection operators read in
  non local Contribution for L=           2  read in
    real space projection operators read in
  non local Contribution for L=           0  read in
    real space projection operators read in
  non local Contribution for L=           0  read in
    real space projection operators read in
    PAW grid and wavefunctions read in
 
   number of l-projection  operators is LMAX  =           6
   number of lm-projection operators is LMMAX =          18
 
 POTCAR:    PAW_PBE Ge 05Jan2001                  
   VRHFIN =Ge: s2p2                                                             
   LEXCH  = PE                                                                  
   EATOM  =   104.9960 eV,    7.7170 Ry                                         
                                                                                
   TITEL  = PAW_PBE Ge 05Jan2001                                                
   LULTRA =        F    use ultrasoft PP ?                                      
   IUNSCR =        1    unscreen: 0-lin 1-nonlin 2-no                           
   RPACOR =    2.170    partial core radius                                     
   POMASS =   72.610; ZVAL   =    4.000    mass and valenz                      
   RCORE  =    2.300    outmost cutoff radius                                   
   RWIGS  =    2.300; RWIGS  =    1.217    wigner-seitz radius (au A)           
   ENMAX  =  173.807; ENMIN  =  130.355 eV                                      
   ICORE  =        3    local potential                                         
   LCOR   =        T    correct aug charges                                     
   LPAW   =        T    paw PP                                                  
   EAUG   =  385.843                                                            
   DEXC   =    0.000                                                            
   RMAX   =    2.342    core radius for proj-oper                               
   RAUG   =    1.300    factor for augmentation sphere                          
   RDEP   =    2.318    radius for radial grids                                 
   RDEPT  =    2.103    core radius for aug-charge                              
                                                                                
   Atomic configuration                                                         
   10 entries                                                                   
     n  l   j            E        occ.                                          
     1  0  0.50    -10959.8463   2.0000                                         
     2  0  0.50     -1371.6056   2.0000                                         
     2  1  1.50     -1198.4791   6.0000                                         
     3  0  0.50      -168.4733   2.0000                                         
     3  1  1.50      -115.6019   6.0000                                         
     3  2  2.50       -29.3106  10.0000                                         
     4  0  0.50       -11.7309   2.0000                                         
     4  1  0.50        -3.8952   2.0000                                         
     4  2  1.50        -4.0817   0.0000                                         
     4  3  2.50        -4.0817   0.0000                                         
   Description                                                                  
     l       E           TYP  RCUT    TYP  RCUT                                 
     0    -11.7309493     23  2.300                                             
     0     -7.4578696     23  2.300                                             
     1     -3.8952261     23  2.300                                             
     1      6.1178114     23  2.300                                             
     2     -4.0817478     23  2.300                                             
     3     -1.3605826      7  2.300                                             
  local pseudopotential read in
  partial core-charges read in
  partial kinetic energy density read in
  atomic valenz-charges read in
  non local Contribution for L=           0  read in
    real space projection operators read in
  non local Contribution for L=           0  read in
    real space projection operators read in
  non local Contribution for L=           1  read in
    real space projection operators read in
  non local Contribution for L=           1  read in
    real space projection operators read in
  non local Contribution for L=           2  read in
    real space projection operators read in
    PAW grid and wavefunctions read in
 
   number of l-projection  operators is LMAX  =           5
   number of lm-projection operators is LMMAX =          13
 
 POTCAR:    PAW_PBE S 17Jan2003                   
   VRHFIN =S : s2p4                                                             
   LEXCH  = PE                                                                  
   EATOM  =   276.8230 eV,   20.3459 Ry                                         
                                                                                
   TITEL  = PAW_PBE S 17Jan2003                                                 
   LULTRA =        F    use ultrasoft PP ?                                      
   IUNSCR =        1    unscreen: 0-lin 1-nonlin 2-no                           
   RPACOR =    1.500    partial core radius                                     
   POMASS =   32.066; ZVAL   =    6.000    mass and valenz                      
   RCORE  =    1.900    outmost cutoff radius                                   
   RWIGS  =    2.200; RWIGS  =    1.164    wigner-seitz radius (au A)           
   ENMAX  =  280.000; ENMIN  =  194.016 eV                                      
   ICORE  =        2    local potential                                         
   LCOR   =        T    correct aug charges                                     
   LPAW   =        T    paw PP                                                  
   EAUG   =  335.092                                                            
   DEXC   =     .000                                                            
   RMAX   =    2.867    core radius for proj-oper                               
   RAUG   =    1.300    factor for augmentation sphere                          
   RDEP   =    1.954    radius for radial grids                                 
   QCUT   =   -4.360; QGAM   =    8.721    optimization parameters              
                                                                                
   Description                                                                  
     l     E      TYP  RCUT    TYP  RCUT                                        
     0   .000     23  1.900                                                     
     0   .000     23  1.900                                                     
     1   .000     23  1.900                                                     
     1   .000     23  1.900                                                     
     2   .000     23  1.900                                                     
  local pseudopotential read in
  partial core-charges read in
  atomic valenz-charges read in
  non local Contribution for L=           0  read in
    real space projection operators read in
  non local Contribution for L=           0  read in
    real space projection operators read in
  non local Contribution for L=           1  read in
    real space projection operators read in
  non local Contribution for L=           1  read in
    real space projection operators read in
    PAW grid and wavefunctions read in
 
   number of l-projection  operators is LMAX  =           4
   number of lm-projection operators is LMMAX =           8
 
  PAW_PBE Cu_pv 06Sep2000               :
 energy of atom  1       EATOM=-4120.1201
 kinetic energy error for atom=    0.0996 (will be added to EATOM!!)
  PAW_PBE Ge 05Jan2001                  :
 energy of atom  2       EATOM= -104.9960
 kinetic energy error for atom=    0.0003 (will be added to EATOM!!)
  PAW_PBE S 17Jan2003                   :
 energy of atom  3       EATOM= -276.8230
 kinetic energy error for atom=    0.0046 (will be added to EATOM!!)
 
 
 POSCAR: Cu Ge S                                 
  positions in direct lattice
  No initial velocities read in
 exchange correlation table for  LEXCH =        8
   RHO(1)=    0.500       N(1)  =     2000
   RHO(2)=  100.500       N(2)  =     4000
 


--------------------------------------------------------------------------------------------------------


 ion  position               nearest neighbor table
   1  0.617  0.121  0.120-   9 2.29  12 2.30  11 2.30   8 2.34
   2  0.121  0.618  0.620-  12 2.29   7 2.29   9 2.30  10 2.35
   3  0.963  0.790  0.119-  11 2.30  12 2.30   7 2.31   8 2.36
   4  0.790  0.963  0.619-   7 2.30   9 2.30  11 2.31  10 2.36
   5  0.440  0.267  0.599-   7 2.19   9 2.19  10 2.31   8 2.33
   6  0.267  0.440  0.099-  11 2.19  12 2.19   8 2.31  10 2.33
   7  0.079  0.912  0.497-   5 2.19   2 2.29   4 2.30   3 2.31
   8  0.571  0.412  0.980-   6 2.31   5 2.33   1 2.34   3 2.36
   9  0.737  0.250  0.495-   5 2.19   1 2.29   4 2.30   2 2.30
  10  0.412  0.571  0.480-   5 2.31   6 2.33   2 2.35   4 2.36
  11  0.912  0.079  0.997-   6 2.19   3 2.30   1 2.30   4 2.31
  12  0.250  0.737  0.995-   6 2.19   2 2.29   3 2.30   1 2.30
 
  Warning from LATTYP: Got some problem with cell dimensions!
  Tried to take original basis but could not verify dimensions!
  LATTYP: Found a base centered monoclinic cell.
 ALAT       =     6.4499010947
 B/A-ratio  =     1.7500516418
 C/A-ratio  =     1.9305142024
 COS(beta)  =    -0.4326083233
  
  Lattice vectors:
  
 A1 = (   3.2247960000,   5.6438300000,   0.0315720000)
 A2 = (   3.2247960000,  -5.6438300000,   0.0315720000)
 A3 = ( -10.7972380000,   0.0000000000,  -6.2018250000)


Analysis of symmetry for initial positions (statically):
=====================================================================
 Subroutine PRICEL returns:
 Original cell was already a primitive cell.
 

 Routine SETGRP: Setting up the symmetry group for a 
 base centered monoclinic supercell.


 Subroutine GETGRP returns: Found  1 space group operations
 (whereof  1 operations were pure point group operations)
 out of a pool of  4 trial point group operations.


The static configuration has the point symmetry C_1 .


Analysis of symmetry for dynamics (positions and initial velocities):
=====================================================================
 Subroutine PRICEL returns:
 Original cell was already a primitive cell.
 

 Routine SETGRP: Setting up the symmetry group for a 
 base centered monoclinic supercell.


 Subroutine GETGRP returns: Found  1 space group operations
 (whereof  1 operations were pure point group operations)
 out of a pool of  4 trial point group operations.


The dynamic configuration has the point symmetry C_1 .


 irot  :   1
 --------------------------------------------------------------------
 isymop:   1   0   0
           0   1   0
           0   0   1

 gtrans:     0.0000000     0.0000000     0.0000000

 ptrans:     0.0000000     0.0000000     0.0000000
 rotmap:
 (   1->   1)  (   2->   2)  (   3->   3)  (   4->   4)  (   5->   5) 
 (   6->   6)  (   7->   7)  (   8->   8)  (   9->   9)  (  10->  10) 
 (  11->  11)  (  12->  12) 
 
 
 KPOINTS: pymatgen 4.7.6+ generated KPOINTS with g

Automatic generation of k-mesh.
Space group operators:
 irot       det(A)        alpha          n_x          n_y          n_z        tau_x        tau_y        tau_z
    1     1.000000     0.000000     1.000000     0.000000     0.000000     0.000000     0.000000     0.000000
 
 Subroutine IBZKPT returns following result:
 ===========================================
 
 Found     42 irreducible k-points:
 
 Following reciprocal coordinates:
            Coordinates               Weight
  0.000000  0.000000  0.000000      1.000000
  0.250000  0.000000  0.000000      2.000000
  0.500000  0.000000  0.000000      1.000000
  0.000000  0.250000  0.000000      2.000000
  0.250000  0.250000  0.000000      2.000000
  0.500000  0.250000 -0.000000      2.000000
 -0.250000  0.250000  0.000000      2.000000
  0.000000  0.500000  0.000000      1.000000
  0.250000  0.500000 -0.000000      2.000000
  0.500000  0.500000  0.000000      1.000000
 -0.000000 -0.000000  0.200000      2.000000
  0.250000  0.000000  0.200000      2.000000
  0.500000  0.000000  0.200000      2.000000
 -0.250000 -0.000000  0.200000      2.000000
  0.000000  0.250000  0.200000      2.000000
  0.250000  0.250000  0.200000      2.000000
  0.500000  0.250000  0.200000      2.000000
 -0.250000  0.250000  0.200000      2.000000
  0.000000  0.500000  0.200000      2.000000
  0.250000  0.500000  0.200000      2.000000
  0.500000  0.500000  0.200000      2.000000
 -0.250000  0.500000  0.200000      2.000000
 -0.000000 -0.250000  0.200000      2.000000
  0.250000 -0.250000  0.200000      2.000000
  0.500000 -0.250000  0.200000      2.000000
 -0.250000 -0.250000  0.200000      2.000000
 -0.000000 -0.000000  0.400000      2.000000
  0.250000  0.000000  0.400000      2.000000
  0.500000  0.000000  0.400000      2.000000
 -0.250000  0.000000  0.400000      2.000000
  0.000000  0.250000  0.400000      2.000000
  0.250000  0.250000  0.400000      2.000000
  0.500000  0.250000  0.400000      2.000000
 -0.250000  0.250000  0.400000      2.000000
  0.000000  0.500000  0.400000      2.000000
  0.250000  0.500000  0.400000      2.000000
  0.500000  0.500000  0.400000      2.000000
 -0.250000  0.500000  0.400000      2.000000
  0.000000 -0.250000  0.400000      2.000000
  0.250000 -0.250000  0.400000      2.000000
  0.500000 -0.250000  0.400000      2.000000
 -0.250000 -0.250000  0.400000      2.000000
 
 Following cartesian coordinates:
            Coordinates               Weight
  0.000000  0.000000  0.000000      1.000000
  0.038631 -0.022148  0.013365      2.000000
  0.077263 -0.044296  0.026730      1.000000
  0.038631  0.022148  0.013365      2.000000
  0.077263  0.000000  0.026730      2.000000
  0.115894 -0.022148  0.040096      2.000000
  0.000000  0.044296  0.000000      2.000000
  0.077263  0.044296  0.026730      1.000000
  0.115894  0.022148  0.040096      2.000000
  0.154525  0.000000  0.053461      1.000000
 -0.000321  0.000000  0.032808      2.000000
  0.038310 -0.022148  0.046173      2.000000
  0.076941 -0.044296  0.059538      2.000000
 -0.038952  0.022148  0.019443      2.000000
  0.038310  0.022148  0.046173      2.000000
  0.076941  0.000000  0.059538      2.000000
  0.115573 -0.022148  0.072903      2.000000
 -0.000321  0.044296  0.032808      2.000000
  0.076941  0.044296  0.059538      2.000000
  0.115573  0.022148  0.072903      2.000000
  0.154204  0.000000  0.086269      2.000000
  0.038310  0.066444  0.046173      2.000000
 -0.038952 -0.022148  0.019443      2.000000
 -0.000321 -0.044296  0.032808      2.000000
  0.038310 -0.066444  0.046173      2.000000
 -0.077584  0.000000  0.006077      2.000000
 -0.000642  0.000000  0.065616      2.000000
  0.037989 -0.022148  0.078981      2.000000
  0.076620 -0.044296  0.092346      2.000000
 -0.039274  0.022148  0.052250      2.000000
  0.037989  0.022148  0.078981      2.000000
  0.076620  0.000000  0.092346      2.000000
  0.115251 -0.022148  0.105711      2.000000
 -0.000642  0.044296  0.065616      2.000000
  0.076620  0.044296  0.092346      2.000000
  0.115251  0.022148  0.105711      2.000000
  0.153883  0.000000  0.119076      2.000000
  0.037989  0.066444  0.078981      2.000000
 -0.039274 -0.022148  0.052250      2.000000
 -0.000642 -0.044296  0.065616      2.000000
  0.037989 -0.066444  0.078981      2.000000
 -0.077905  0.000000  0.038885      2.000000
 
 
 Subroutine IBZKPT_HF returns following result:
 ==============================================
 
 Found     80 k-points in 1st BZ
 the following     80 k-points will be used (e.g. in the exchange kernel)
 Following reciprocal coordinates:   # in IRBZ
  0.000000  0.000000  0.000000       1 t-inv F
  0.250000  0.000000  0.000000       2 t-inv F
  0.500000  0.000000  0.000000       3 t-inv F
  0.000000  0.250000  0.000000       4 t-inv F
  0.250000  0.250000  0.000000       5 t-inv F
  0.500000  0.250000 -0.000000       6 t-inv F
 -0.250000  0.250000  0.000000       7 t-inv F
  0.000000  0.500000  0.000000       8 t-inv F
  0.250000  0.500000 -0.000000       9 t-inv F
  0.500000  0.500000  0.000000      10 t-inv F
 -0.000000 -0.000000  0.200000      11 t-inv F
  0.250000  0.000000  0.200000      12 t-inv F
  0.500000  0.000000  0.200000      13 t-inv F
 -0.250000 -0.000000  0.200000      14 t-inv F
  0.000000  0.250000  0.200000      15 t-inv F
  0.250000  0.250000  0.200000      16 t-inv F
  0.500000  0.250000  0.200000      17 t-inv F
 -0.250000  0.250000  0.200000      18 t-inv F
  0.000000  0.500000  0.200000      19 t-inv F
  0.250000  0.500000  0.200000      20 t-inv F
  0.500000  0.500000  0.200000      21 t-inv F
 -0.250000  0.500000  0.200000      22 t-inv F
 -0.000000 -0.250000  0.200000      23 t-inv F
  0.250000 -0.250000  0.200000      24 t-inv F
  0.500000 -0.250000  0.200000      25 t-inv F
 -0.250000 -0.250000  0.200000      26 t-inv F
 -0.000000 -0.000000  0.400000      27 t-inv F
  0.250000  0.000000  0.400000      28 t-inv F
  0.500000  0.000000  0.400000      29 t-inv F
 -0.250000  0.000000  0.400000      30 t-inv F
  0.000000  0.250000  0.400000      31 t-inv F
  0.250000  0.250000  0.400000      32 t-inv F
  0.500000  0.250000  0.400000      33 t-inv F
 -0.250000  0.250000  0.400000      34 t-inv F
  0.000000  0.500000  0.400000      35 t-inv F
  0.250000  0.500000  0.400000      36 t-inv F
  0.500000  0.500000  0.400000      37 t-inv F
 -0.250000  0.500000  0.400000      38 t-inv F
  0.000000 -0.250000  0.400000      39 t-inv F
  0.250000 -0.250000  0.400000      40 t-inv F
  0.500000 -0.250000  0.400000      41 t-inv F
 -0.250000 -0.250000  0.400000      42 t-inv F
 -0.250000 -0.000000 -0.000000       2 t-inv T
 -0.000000 -0.250000 -0.000000       4 t-inv T
 -0.250000 -0.250000  0.000000       5 t-inv T
 -0.500000 -0.250000  0.000000       6 t-inv T
  0.250000 -0.250000  0.000000       7 t-inv T
 -0.250000 -0.500000  0.000000       9 t-inv T
  0.000000  0.000000 -0.200000      11 t-inv T
 -0.250000 -0.000000 -0.200000      12 t-inv T
 -0.500000 -0.000000 -0.200000      13 t-inv T
  0.250000  0.000000 -0.200000      14 t-inv T
 -0.000000 -0.250000 -0.200000      15 t-inv T
 -0.250000 -0.250000 -0.200000      16 t-inv T
 -0.500000 -0.250000 -0.200000      17 t-inv T
  0.250000 -0.250000 -0.200000      18 t-inv T
 -0.000000 -0.500000 -0.200000      19 t-inv T
 -0.250000 -0.500000 -0.200000      20 t-inv T
 -0.500000 -0.500000 -0.200000      21 t-inv T
  0.250000 -0.500000 -0.200000      22 t-inv T
  0.000000  0.250000 -0.200000      23 t-inv T
 -0.250000  0.250000 -0.200000      24 t-inv T
 -0.500000  0.250000 -0.200000      25 t-inv T
  0.250000  0.250000 -0.200000      26 t-inv T
  0.000000  0.000000 -0.400000      27 t-inv T
 -0.250000 -0.000000 -0.400000      28 t-inv T
 -0.500000 -0.000000 -0.400000      29 t-inv T
  0.250000 -0.000000 -0.400000      30 t-inv T
 -0.000000 -0.250000 -0.400000      31 t-inv T
 -0.250000 -0.250000 -0.400000      32 t-inv T
 -0.500000 -0.250000 -0.400000      33 t-inv T
  0.250000 -0.250000 -0.400000      34 t-inv T
 -0.000000 -0.500000 -0.400000      35 t-inv T
 -0.250000 -0.500000 -0.400000      36 t-inv T
 -0.500000 -0.500000 -0.400000      37 t-inv T
  0.250000 -0.500000 -0.400000      38 t-inv T
 -0.000000  0.250000 -0.400000      39 t-inv T
 -0.250000  0.250000 -0.400000      40 t-inv T
 -0.500000  0.250000 -0.400000      41 t-inv T
  0.250000  0.250000 -0.400000      42 t-inv T


--------------------------------------------------------------------------------------------------------




 Dimension of arrays:
   k-points           NKPTS =     42   k-points in BZ     NKDIM =     80   number of bands    NBANDS=     80
   number of dos      NEDOS =    301   number of ions     NIONS =     12
   non local maximal  LDIM  =      6   non local SUM 2l+1 LMDIM =     18
   total plane-waves  NPLWV =  32768
   max r-space proj   IRMAX =      1   max aug-charges    IRDMAX=   8224
   dimension x,y,z NGX =    32 NGY =   32 NGZ =   32
   dimension x,y,z NGXF=    64 NGYF=   64 NGZF=   64
   support grid    NGXF=    64 NGYF=   64 NGZF=   64
   ions per type =               4   2   6
 NGX,Y,Z   is equivalent  to a cutoff of   8.18,  8.18,  8.27 a.u.
 NGXF,Y,Z  is equivalent  to a cutoff of  16.37, 16.37, 16.55 a.u.


 I would recommend the setting:
   dimension x,y,z NGX =    32 NGY =   32 NGZ =   31
 SYSTEM =  CGS                                     
 POSCAR =  Cu Ge S                                 

 Startparameter for this run:
   NWRITE =      2    write-flag & timer
   PREC   = normal    normal or accurate (medium, high low for compatibility)
   ISTART =      1    job   : 0-new  1-cont  2-samecut
   ICHARG =      0    charge: 1-file 2-atom 10-const
   ISPIN  =      1    spin polarized calculation?
   LNONCOLLINEAR =      F non collinear calculations
   LSORBIT =      F    spin-orbit coupling
   INIWAV =      1    electr: 0-lowe 1-rand  2-diag
   LASPH  =      F    aspherical Exc in radial PAW
   METAGGA=      F    non-selfconsistent MetaGGA calc.

 Electronic Relaxation 1
   ENCUT  =  400.0 eV  29.40 Ry    5.42 a.u.  10.60 10.60 10.48*2*pi/ulx,y,z
   ENINI  =  400.0     initial cutoff
   ENAUG  =  758.2 eV  augmentation charge cutoff
   NELM   =     60;   NELMIN=  2; NELMDL=  0     # of ELM steps 
   EDIFF  = 0.1E-04   stopping-criterion for ELM
   LREAL  =      F    real-space projection
   NLSPLINE    = F    spline interpolate recip. space projectors
   LCOMPAT=      F    compatible to vasp.4.4
   GGA_COMPAT  = T    GGA compatible to vasp.4.4-vasp.4.6
   LMAXPAW     = -100 max onsite density
   LMAXMIX     =    2 max onsite mixed and CHGCAR
   VOSKOWN=      0    Vosko Wilk Nusair interpolation
   ROPT   =    0.00000   0.00000   0.00000
 Ionic relaxation
   EDIFFG = 0.1E-03   stopping-criterion for IOM
   NSW    =      0    number of steps for IOM
   NBLOCK =      1;   KBLOCK =      1    inner block; outer block 
   IBRION =     -1    ionic relax: 0-MD 1-quasi-New 2-CG
   NFREE  =      0    steps in history (QN), initial steepest desc. (CG)
   ISIF   =      0    stress and relaxation
   IWAVPR =     10    prediction:  0-non 1-charg 2-wave 3-comb
   ISYM   =      3    0-nonsym 1-usesym 2-fastsym
   LCORR  =      T    Harris-Foulkes like correction to forces

   POTIM  = 0.5000    time-step for ionic-motion
   TEIN   =    0.0    initial temperature
   TEBEG  =    0.0;   TEEND  =   0.0 temperature during run
   SMASS  =  -3.00    Nose mass-parameter (am)
   estimated Nose-frequenzy (Omega)   =  0.10E-29 period in steps =****** mass=  -0.966E-27a.u.
   SCALEE = 1.0000    scale energy and forces
   NPACO  =    256;   APACO  = 16.0  distance and # of slots for P.C.
   PSTRESS=    0.0 pullay stress

  Mass of Ions in am
   POMASS =  63.55 72.61 32.07
  Ionic Valenz
   ZVAL   =  17.00  4.00  6.00
  Atomic Wigner-Seitz radii
   RWIGS  =  -1.00 -1.00 -1.00
  virtual crystal weights 
   VCA    =   1.00  1.00  1.00
   NELECT =     112.0000    total number of electrons
   NUPDOWN=      -1.0000    fix difference up-down

 DOS related values:
   EMIN   =  10.00;   EMAX   =-10.00  energy-range for DOS
   EFERMI =   0.00
   ISMEAR =     1;   SIGMA  =   0.10  broadening in eV -4-tet -1-fermi 0-gaus

 Electronic relaxation 2 (details)
   IALGO  =     53    algorithm
   LDIAG  =      T    sub-space diagonalisation (order eigenvalues)
   LSUBROT=      T    optimize rotation matrix (better conditioning)
   TURBO    =      0    0=normal 1=particle mesh
   IRESTART =      0    0=no restart 2=restart with 2 vectors
   NREBOOT  =      0    no. of reboots
   NMIN     =      0    reboot dimension
   EREF     =   0.00    reference energy to select bands
   IMIX   =      4    mixing-type and parameters
     AMIX     =   0.40;   BMIX     =  1.00
     AMIX_MAG =   1.60;   BMIX_MAG =  1.00
     AMIN     =   0.10
     WC   =   100.;   INIMIX=   1;  MIXPRE=   1;  MAXMIX= -45

 Intra band minimization:
   WEIMIN = 0.0000     energy-eigenvalue tresh-hold
   EBREAK =  0.31E-07  absolut break condition
   DEPER  =   0.30     relativ break condition  

   TIME   =   0.40     timestep for ELM

  volume/ion in A,a.u.               =      18.49       124.79
  Fermi-wavevector in a.u.,A,eV,Ry     =   1.303450  2.463163 23.116052  1.698982
  Thomas-Fermi vector in A             =   2.434451
 
 Write flags
   LWAVE  =      T    write WAVECAR
   LCHARG =      T    write CHGCAR
   LVTOT  =      F    write LOCPOT, total local potential
   LVHAR  =      F    write LOCPOT, Hartree potential only
   LELF   =      F    write electronic localiz. function (ELF)
   LORBIT =      0    0 simple, 1 ext, 2 COOP (PROOUT)


 Dipole corrections
   LMONO  =      F    monopole corrections only (constant potential shift)
   LDIPOL =      F    correct potential (dipole corrections)
   IDIPOL =      0    1-x, 2-y, 3-z, 4-all directions 
   EPSILON=  1.0000000 bulk dielectric constant

 Exchange correlation treatment:
   GGA     =    PE    GGA type
   LEXCH   =     8    internal setting for exchange type
   VOSKOWN=      0    Vosko Wilk Nusair interpolation
   EXXOEP  =     0    0=HF, 1=EXX-LHF (local Hartree Fock) 2=EXX OEP
   LHFCALC =     T    Hartree Fock is set to
   LSYMGRAD=     F    symmetrize gradient (conserves proper symmetry)
   PRECFOCK=fast      Normal, Fast or Accurate (Low or Medium for compatibility)
   LRHFCALC=     F    long range Hartree Fock
   LRSCOR  =     F    long range correlation only (use DFT for short range part)
   LTHOMAS =     F    Thomas Fermi screening in HF
   LMODELHF=     F    short range full HF, long range fraction AEXX
   ENCUT4O =  -1.0   cutoff for four orbital integrals eV
   LMAXFOCK=     4    L truncation for augmentation on plane wave grid
   LMAXFOCKAE=  -1    L truncation for all-electron charge restoration on plane wave grid
   NMAXFOCKAE=   1    number of basis functions for all-electron charge restoration
   LFOCKAEDFT=     F  apply the AE augmentation even for DFT
   NKREDX  =     1    reduce k-point grid by
   NKREDY  =     1    reduce k-point grid by
   NKREDZ  =     1    reduce k-point grid by
   SHIFTRED=     F    shift reduced grid of Gamma
   HFKIDENT=     F    idential grid for each k-point
   ODDONLY =     F    use only odd q-grid points
   EVENONLY=     F    use only even q-grid points
   HFALPHA =   -1.0000 decay constant for conv. correction
   MCALPHA =    0.0000 extent of test-charge in conv. correction in multipole expansion
   AEXX    =    0.2500 exact exchange contribution
   HFSCREEN=    0.2000 screening length (either q_TF or 0.3 A-1)
   HFSCREENC=   0.2000 screening length for correlation (either q_TF or 0.3 A-1)
   HFRCUT  =    0.0000 spherical cutoff for potential kernel
   ALDAX   =    0.7500 LDA exchange part
   AGGAX   =    0.7500 GGA exchange part
   ALDAC   =    1.0000 LDA correlation
   AGGAC   =    1.0000 GGA correlation
   NBANDSGWLOW=     1    first orbital included in HF term
 Linear response parameters
   LEPSILON=     F    determine dielectric tensor
   LRPA    =     F    only Hartree local field effects (RPA)
   LNABLA  =     F    use nabla operator in PAW spheres
   LVEL    =     F    velocity operator in full k-point grid
   LINTERFAST=   F  fast interpolation
   KINTER  =     0    interpolate to denser k-point grid
   CSHIFT  =0.1000    complex shift for real part using Kramers Kronig
   OMEGAMAX=  -1.0    maximum frequency
   DEG_THRESHOLD= 0.2000000E-02 threshold for treating states as degnerate
   RTIME   =    0.100 relaxation time in fs

 Orbital magnetization related:
   ORBITALMAG=     F  switch on orbital magnetization
   LCHIMAG   =     F  perturbation theory with respect to B field
   DQ        =  0.001000  dq finite difference perturbation B field



--------------------------------------------------------------------------------------------------------


 Static calculation
 charge density and potential will be updated during run
 non-spin polarized calculation
 Conjugate gradient for all bands, subspace preconditioning
 perform sub-space diagonalisation
    before iterative eigenvector-optimisation
 modified Broyden-mixing scheme, WC =      100.0
 initial mixing is a Kerker type mixing with AMIX =  0.4000 and BMIX =      1.0000
 Hartree-type preconditioning will be used
 using additional bands           24
 reciprocal scheme for non local part
 use partial core corrections
 no Harris-corrections to forces 
 use gradient corrections 
 use of overlap-Matrix (Vanderbilt PP)
 Methfessel and Paxton  Order N= 1 SIGMA  =   0.10


--------------------------------------------------------------------------------------------------------


  energy-cutoff  :      400.00
  volume of cell :      221.90
      direct lattice vectors                 reciprocal lattice vectors
     3.224796000 -5.643830000  0.031572000     0.154525165 -0.088592321  0.053460880
     3.224796000  5.643830000  0.031572000     0.154525165  0.088592321  0.053460880
    -2.101946000  0.000000000  6.075537000    -0.001606004  0.000000000  0.164038877

  length of vectors
     6.500240234  6.500240234  6.428866683     0.185969598  0.185969598  0.164046738


 
 old parameters found on file WAVECAR:
  energy-cutoff  :      400.00
  volume of cell :      222.35
      direct lattice vectors                 reciprocal lattice vectors
     3.227235519 -5.642745207  0.030241751     0.154430495 -0.088609353  0.053450002
     3.227235519  5.642745207  0.030241751     0.154430495  0.088609353  0.053450002
    -2.106135241  0.000000000  6.085154262    -0.001534965  0.000000000  0.163803104

  length of vectors

 
 k-points in units of 2pi/SCALE and weight: pymatgen 4.7.6+ generated KPOINTS with g
   0.00000000  0.00000000  0.00000000       0.013
   0.03863129 -0.02214808  0.01336522       0.025
   0.07726258 -0.04429616  0.02673044       0.013
   0.03863129  0.02214808  0.01336522       0.025
   0.07726258  0.00000000  0.02673044       0.025
   0.11589387 -0.02214808  0.04009566       0.025
   0.00000000  0.04429616  0.00000000       0.025
   0.07726258  0.04429616  0.02673044       0.013
   0.11589387  0.02214808  0.04009566       0.025
   0.15452516  0.00000000  0.05346088       0.013
  -0.00032120  0.00000000  0.03280778       0.025
   0.03831009 -0.02214808  0.04617300       0.025
   0.07694138 -0.04429616  0.05953822       0.025
  -0.03895249  0.02214808  0.01944256       0.025
   0.03831009  0.02214808  0.04617300       0.025
   0.07694138  0.00000000  0.05953822       0.025
   0.11557267 -0.02214808  0.07290344       0.025
  -0.00032120  0.04429616  0.03280778       0.025
   0.07694138  0.04429616  0.05953822       0.025
   0.11557267  0.02214808  0.07290344       0.025
   0.15420396  0.00000000  0.08626865       0.025
   0.03831009  0.06644424  0.04617300       0.025
  -0.03895249 -0.02214808  0.01944256       0.025
  -0.00032120 -0.04429616  0.03280778       0.025
   0.03831009 -0.06644424  0.04617300       0.025
  -0.07758378  0.00000000  0.00607734       0.025
  -0.00064240  0.00000000  0.06561555       0.025
   0.03798889 -0.02214808  0.07898077       0.025
   0.07662018 -0.04429616  0.09234599       0.025
  -0.03927369  0.02214808  0.05225033       0.025
   0.03798889  0.02214808  0.07898077       0.025
   0.07662018  0.00000000  0.09234599       0.025
   0.11525147 -0.02214808  0.10571121       0.025
  -0.00064240  0.04429616  0.06561555       0.025
   0.07662018  0.04429616  0.09234599       0.025
   0.11525147  0.02214808  0.10571121       0.025
   0.15388276  0.00000000  0.11907643       0.025
   0.03798889  0.06644424  0.07898077       0.025
  -0.03927369 -0.02214808  0.05225033       0.025
  -0.00064240 -0.04429616  0.06561555       0.025
   0.03798889 -0.06644424  0.07898077       0.025
  -0.07790498  0.00000000  0.03888511       0.025
 
 k-points in reciprocal lattice and weights: pymatgen 4.7.6+ generated KPOINTS with g
   0.00000000  0.00000000  0.00000000       0.013
   0.25000000  0.00000000  0.00000000       0.025
   0.50000000  0.00000000  0.00000000       0.013
   0.00000000  0.25000000  0.00000000       0.025
   0.25000000  0.25000000  0.00000000       0.025
   0.50000000  0.25000000 -0.00000000       0.025
  -0.25000000  0.25000000  0.00000000       0.025
   0.00000000  0.50000000  0.00000000       0.013
   0.25000000  0.50000000 -0.00000000       0.025
   0.50000000  0.50000000  0.00000000       0.013
  -0.00000000 -0.00000000  0.20000000       0.025
   0.25000000  0.00000000  0.20000000       0.025
   0.50000000  0.00000000  0.20000000       0.025
  -0.25000000 -0.00000000  0.20000000       0.025
   0.00000000  0.25000000  0.20000000       0.025
   0.25000000  0.25000000  0.20000000       0.025
   0.50000000  0.25000000  0.20000000       0.025
  -0.25000000  0.25000000  0.20000000       0.025
   0.00000000  0.50000000  0.20000000       0.025
   0.25000000  0.50000000  0.20000000       0.025
   0.50000000  0.50000000  0.20000000       0.025
  -0.25000000  0.50000000  0.20000000       0.025
  -0.00000000 -0.25000000  0.20000000       0.025
   0.25000000 -0.25000000  0.20000000       0.025
   0.50000000 -0.25000000  0.20000000       0.025
  -0.25000000 -0.25000000  0.20000000       0.025
  -0.00000000 -0.00000000  0.40000000       0.025
   0.25000000  0.00000000  0.40000000       0.025
   0.50000000  0.00000000  0.40000000       0.025
  -0.25000000  0.00000000  0.40000000       0.025
   0.00000000  0.25000000  0.40000000       0.025
   0.25000000  0.25000000  0.40000000       0.025
   0.50000000  0.25000000  0.40000000       0.025
  -0.25000000  0.25000000  0.40000000       0.025
   0.00000000  0.50000000  0.40000000       0.025
   0.25000000  0.50000000  0.40000000       0.025
   0.50000000  0.50000000  0.40000000       0.025
  -0.25000000  0.50000000  0.40000000       0.025
   0.00000000 -0.25000000  0.40000000       0.025
   0.25000000 -0.25000000  0.40000000       0.025
   0.50000000 -0.25000000  0.40000000       0.025
  -0.25000000 -0.25000000  0.40000000       0.025
 
 position of ions in fractional coordinates (direct lattice) 
   0.61690460  0.12117100  0.11953300
   0.12117100  0.61844300  0.61953300
   0.96295700  0.79032200  0.11881300
   0.79032200  0.96295700  0.61881300
   0.43973200  0.26728100  0.59904700
   0.26728100  0.43973200  0.09904700
   0.07949800  0.91167500  0.49736300
   0.57140300  0.41236400  0.98018400
   0.73711100  0.25006200  0.49504900
   0.41236400  0.57140300  0.48018400
   0.91167500  0.07949800  0.99736300
   0.25006200  0.73711100  0.99504900
 
 position of ions in cartesian coordinates  (Angst):
   2.12889132 -2.79783614  0.74952969
   1.08287936  2.80651863  3.78734676
   5.40422860 -0.97432259  0.77720730
   4.35325560  0.97432259  3.81497580
   1.02080825 -0.97328413  3.66185403
   2.07178125  0.97328413  0.62408553
   2.15090056  4.69666552  3.05304062
   1.11215405 -0.89758908  5.98620365
   2.14286528 -2.74882176  3.03885554
   2.16312705  0.89758908  2.94843515
   1.09992756 -4.69666552  6.09080912
   1.09189228  2.74882176  6.07662404
 


--------------------------------------------------------------------------------------------------------


 k-point  1 :   0.0000 0.0000 0.0000  plane waves:    4051
 k-point  2 :   0.2500 0.0000 0.0000  plane waves:    4032
 k-point  3 :   0.5000 0.0000 0.0000  plane waves:    4030
 k-point  4 :   0.0000 0.2500 0.0000  plane waves:    4032
 k-point  5 :   0.2500 0.2500 0.0000  plane waves:    4038
 k-point  6 :   0.5000 0.2500-0.0000  plane waves:    4037
 k-point  7 :  -0.2500 0.2500 0.0000  plane waves:    4042
 k-point  8 :   0.0000 0.5000 0.0000  plane waves:    4030
 k-point  9 :   0.2500 0.5000-0.0000  plane waves:    4037
 k-point 10 :   0.5000 0.5000 0.0000  plane waves:    4026
 k-point 11 :  -0.0000-0.0000 0.2000  plane waves:    4046
 k-point 12 :   0.2500 0.0000 0.2000  plane waves:    4034
 k-point 13 :   0.5000 0.0000 0.2000  plane waves:    4025
 k-point 14 :  -0.2500-0.0000 0.2000  plane waves:    4044
 k-point 15 :   0.0000 0.2500 0.2000  plane waves:    4034
 k-point 16 :   0.2500 0.2500 0.2000  plane waves:    4017
 k-point 17 :   0.5000 0.2500 0.2000  plane waves:    4039
 k-point 18 :  -0.2500 0.2500 0.2000  plane waves:    4042
 k-point 19 :   0.0000 0.5000 0.2000  plane waves:    4025
 k-point 20 :   0.2500 0.5000 0.2000  plane waves:    4039
 k-point 21 :   0.5000 0.5000 0.2000  plane waves:    4030
 k-point 22 :  -0.2500 0.5000 0.2000  plane waves:    4030
 k-point 23 :  -0.0000-0.2500 0.2000  plane waves:    4044
 k-point 24 :   0.2500-0.2500 0.2000  plane waves:    4042
 k-point 25 :   0.5000-0.2500 0.2000  plane waves:    4030
 k-point 26 :  -0.2500-0.2500 0.2000  plane waves:    4020
 k-point 27 :  -0.0000-0.0000 0.4000  plane waves:    4027
 k-point 28 :   0.2500 0.0000 0.4000  plane waves:    4034
 k-point 29 :   0.5000 0.0000 0.4000  plane waves:    4013
 k-point 30 :  -0.2500 0.0000 0.4000  plane waves:    4042
 k-point 31 :   0.0000 0.2500 0.4000  plane waves:    4034
 k-point 32 :   0.2500 0.2500 0.4000  plane waves:    4009
 k-point 33 :   0.5000 0.2500 0.4000  plane waves:    4026
 k-point 34 :  -0.2500 0.2500 0.4000  plane waves:    4027
 k-point 35 :   0.0000 0.5000 0.4000  plane waves:    4013
 k-point 36 :   0.2500 0.5000 0.4000  plane waves:    4026
 k-point 37 :   0.5000 0.5000 0.4000  plane waves:    4037
 k-point 38 :  -0.2500 0.5000 0.4000  plane waves:    4022
 k-point 39 :   0.0000-0.2500 0.4000  plane waves:    4042
 k-point 40 :   0.2500-0.2500 0.4000  plane waves:    4027
 k-point 41 :   0.5000-0.2500 0.4000  plane waves:    4022
 k-point 42 :  -0.2500-0.2500 0.4000  plane waves:    4015

 maximum and minimum number of plane-waves per node :      4051     4009

 maximum number of plane-waves:      4051
 maximum index in each direction: 
   IXMAX=   10   IYMAX=   10   IZMAX=   10
   IXMIN=  -11   IYMIN=  -11   IZMIN=  -10

 WARNING: aliasing errors must be expected set NGX to  44 to avoid them
 WARNING: aliasing errors must be expected set NGY to  44 to avoid them
 WARNING: aliasing errors must be expected set NGZ to  42 to avoid them
 aliasing errors are usually negligible using standard VASP settings
 and one can safely disregard these warnings

 serial   3D FFT for wavefunctions
 parallel 3D FFT for charge:
    minimum data exchange during FFTs selected (reduces bandwidth)


 FFT grid for exact exchange (Hartree Fock) 
  NGX = 24; NGY = 24; NGZ = 24

 
 Radii for the augmentation spheres in the non-local exchange
 for species   1 augmentation radius   1.120 (default was   0.830)
       energy cutoff for augmentation   1600.0
 for species   2 augmentation radius   1.570 (default was   1.163)
       energy cutoff for augmentation   1600.0
 for species   3 augmentation radius   1.034 (default was   0.970)
       energy cutoff for augmentation   1600.0

 total amount of memory used by VASP on root node   151697. kBytes
========================================================================

   base      :      30000. kBytes
   nonl-proj :      74517. kBytes
   fftplans  :        702. kBytes
   grid      :       2400. kBytes
   one-center:        186. kBytes
   HF        :        194. kBytes
   nonlr-proj:       1122. kBytes
   wavefun   :      42576. kBytes
 
 Broyden mixing: mesh for mixing (old mesh)
   NGX = 21   NGY = 21   NGZ = 21
  (NGX  = 64   NGY  = 64   NGZ  = 64)
  gives a total of   9261 points

 charge density for first step will be calculated from the start-wavefunctions


--------------------------------------------------------------------------------------------------------


 Maximum index for augmentation-charges          485 (set IRDMAX)


--------------------------------------------------------------------------------------------------------


 initial charge from wavefunction
 First call to EWALD:  gamma=   0.293
 Maximum number of real-space cells 3x 3x 3
 Maximum number of reciprocal cells 3x 3x 3

 FEWALD executed in parallel
    FEWALD:  cpu time    0.00: real time    0.00


----------------------------------------- Iteration    1(   1)  ---------------------------------------


    POTLOK:  cpu time    0.05: real time    0.05
    SETDIJ:  cpu time    2.00: real time    1.99
 
    SUBROT:  cpu time    0.74: real time    0.75
    SUBROT:  cpu time    0.33: real time    0.36
    SUBROT:  cpu time    0.39: real time    0.39
    --------------------------------------------
    SUBRT+:  cpu time    1.46: real time    1.50

 Broyden mixing:
  rms(total) = 0.30320E-01    rms(broyden)= 0.30304E-01
  rms(prec ) = 0.46414E-01
  weight for this iteration     100.00

 eigenvalues of (default mixing * dielectric matrix)
  average eigenvalue GAMMA=   1.7389
  1.0305  2.4472
 
    TRIAL :  cpu time  259.37: real time  259.20
    CORREC:  cpu time    0.00: real time    0.00
    CHARGE:  cpu time    0.06: real time    0.06
    --------------------------------------------
      LOOP:  cpu time  261.49: real time  261.31

 eigenvalue-minimisations  :     0
 total energy-change (2. order) : 0.7570734E+02  (-0.2136244E+03)
 number of electron     112.0001405 magnetization 
 augmentation part       38.9144118 magnetization 

 Free energy of the ion-electron system (eV)
  ---------------------------------------------------
  alpha Z        PSCENC =       339.31929130
  Ewald energy   TEWEN  =     -9065.38622517
  -1/2 Hartree   DENC   =     -8066.52331555
  -exchange  EXHF       =       327.44024945
  -V(xc)+E(xc)   XCENC  =       369.89424776
  PAW double counting   =     16957.83153799   -17450.57027359
  entropy T*S    EENTRO =        -0.00145532
  eigenvalues    EBANDS =     -1657.28185521
  atomic energy  EATOM  =     18320.98302006
  ---------------------------------------------------
  free energy    TOTEN  =        75.70734033 eV

  energy without entropy =       75.70879566  energy(sigma->0) =       75.70782544


--------------------------------------------------------------------------------------------------------




----------------------------------------- Iteration    1(   2)  ---------------------------------------


    POTLOK:  cpu time    0.05: real time    0.05
    SETDIJ:  cpu time    1.98: real time    1.98
 
    SUBROT:  cpu time    0.69: real time    0.69
    SUBROT:  cpu time    0.34: real time    0.34
    SUBROT:  cpu time    0.36: real time    0.36
    SUBROT:  cpu time    0.37: real time    0.37
    --------------------------------------------
    SUBRT+:  cpu time    1.78: real time    1.79

 Broyden mixing:
  rms(total) = 0.28400E-01    rms(broyden)= 0.28390E-01
  rms(prec ) = 0.51633E-01
  weight for this iteration     100.00

 eigenvalues of (default mixing * dielectric matrix)
  average eigenvalue GAMMA=   1.5568
  2.5396  1.2716  0.8592
 
    TRIAL :  cpu time  267.68: real time  267.46
    CORREC:  cpu time    0.00: real time    0.00
    CHARGE:  cpu time    0.06: real time    0.06
    --------------------------------------------
      LOOP:  cpu time  269.78: real time  269.56

 eigenvalue-minimisations  :     0
 total energy-change (2. order) :-0.8394998E+02  (-0.1472034E+03)
 number of electron     112.0001315 magnetization 
 augmentation part       35.4487927 magnetization 

 Free energy of the ion-electron system (eV)
  ---------------------------------------------------
  alpha Z        PSCENC =       339.31929130
  Ewald energy   TEWEN  =     -9065.38622517
  -1/2 Hartree   DENC   =     -8370.37217574
  -exchange  EXHF       =       338.96866261
  -V(xc)+E(xc)   XCENC  =       377.33866386
  PAW double counting   =     17432.33617109   -17971.60074333
  entropy T*S    EENTRO =        -0.00083630
  eigenvalues    EBANDS =     -1409.82784681
  atomic energy  EATOM  =     18320.98302006
  ---------------------------------------------------
  free energy    TOTEN  =        -8.24263746 eV

  energy without entropy =       -8.24180115  energy(sigma->0) =       -8.24235869


--------------------------------------------------------------------------------------------------------




----------------------------------------- Iteration    1(   3)  ---------------------------------------


    POTLOK:  cpu time    0.05: real time    0.05
    SETDIJ:  cpu time    2.05: real time    2.05
 
    SUBROT:  cpu time    0.72: real time    0.72
    SUBROT:  cpu time    0.35: real time    0.35
    SUBROT:  cpu time    0.33: real time    0.33
    SUBROT:  cpu time    0.34: real time    0.34
    --------------------------------------------
    SUBRT+:  cpu time    1.73: real time    1.75

 Broyden mixing:
  rms(total) = 0.28107E-01    rms(broyden)= 0.28096E-01
  rms(prec ) = 0.52410E-01
  weight for this iteration     100.00

 eigenvalues of (default mixing * dielectric matrix)
  average eigenvalue GAMMA=   1.7749
  1.0116  2.4992  1.8139
 
    TRIAL :  cpu time  265.15: real time  264.93
    CORREC:  cpu time    0.00: real time    0.00
    CHARGE:  cpu time    0.06: real time    0.06
    --------------------------------------------
      LOOP:  cpu time  267.31: real time  267.10

 eigenvalue-minimisations  :     0
 total energy-change (2. order) :-0.6782198E+01  (-0.2050627E+03)
 number of electron     112.0001435 magnetization 
 augmentation part       39.6873408 magnetization 

 Free energy of the ion-electron system (eV)
  ---------------------------------------------------
  alpha Z        PSCENC =       339.31929130
  Ewald energy   TEWEN  =     -9065.38622517
  -1/2 Hartree   DENC   =     -7475.44586615
  -exchange  EXHF       =       324.95599726
  -V(xc)+E(xc)   XCENC  =       357.36191373
  PAW double counting   =     15151.17320194   -15580.55510496
  entropy T*S    EENTRO =         0.00020344
  eigenvalues    EBANDS =     -2387.43022726
  atomic energy  EATOM  =     18320.98302006
  ---------------------------------------------------
  free energy    TOTEN  =       -15.02483556 eV

  energy without entropy =      -15.02503900  energy(sigma->0) =      -15.02490338


--------------------------------------------------------------------------------------------------------




----------------------------------------- Iteration    1(   4)  ---------------------------------------


    POTLOK:  cpu time    0.05: real time    0.05
    SETDIJ:  cpu time    2.05: real time    2.05
 
    SUBROT:  cpu time    0.71: real time    0.71
    SUBROT:  cpu time    0.35: real time    0.35
    SUBROT:  cpu time    0.36: real time    0.36
    SUBROT:  cpu time    0.34: real time    0.34
    SUBROT:  cpu time    0.37: real time    0.37
    --------------------------------------------
    SUBRT+:  cpu time    2.13: real time    2.17

 Broyden mixing:
  rms(total) = 0.11977E+00    rms(broyden)= 0.11957E+00
  rms(prec ) = 0.21073E+00
  weight for this iteration     100.00

 eigenvalues of (default mixing * dielectric matrix)
  average eigenvalue GAMMA=   1.1888
  2.5261  1.2161  0.6311  0.3820
 
    TRIAL :  cpu time  267.09: real time  266.89
    CORREC:  cpu time    0.00: real time    0.00
    CHARGE:  cpu time    0.07: real time    0.07
    --------------------------------------------
      LOOP:  cpu time  269.27: real time  269.07

 eigenvalue-minimisations  :     0
 total energy-change (2. order) :-0.7493764E+01  (-0.1076596E+03)
 number of electron     112.0001358 magnetization 
 augmentation part       37.2429946 magnetization 

 Free energy of the ion-electron system (eV)
  ---------------------------------------------------
  alpha Z        PSCENC =       339.31929130
  Ewald energy   TEWEN  =     -9065.38622517
  -1/2 Hartree   DENC   =     -8542.89359729
  -exchange  EXHF       =       342.99455818
  -V(xc)+E(xc)   XCENC  =       381.66709120
  PAW double counting   =     17635.70698274   -18216.61823959
  entropy T*S    EENTRO =         0.00037248
  eigenvalues    EBANDS =     -1218.29168471
  atomic energy  EATOM  =     18320.98302006
  ---------------------------------------------------
  free energy    TOTEN  =       -22.51859984 eV

  energy without entropy =      -22.51897232  energy(sigma->0) =      -22.51872400


--------------------------------------------------------------------------------------------------------




----------------------------------------- Iteration    1(   5)  ---------------------------------------


    POTLOK:  cpu time    0.05: real time    0.05
    SETDIJ:  cpu time    2.07: real time    2.06
 
    SUBROT:  cpu time    0.74: real time    0.74
    SUBROT:  cpu time    0.35: real time    0.35
    SUBROT:  cpu time    0.34: real time    0.34
    SUBROT:  cpu time    0.35: real time    0.35
    --------------------------------------------
    SUBRT+:  cpu time    1.78: real time    1.79

 Broyden mixing:
  rms(total) = 0.47822E-01    rms(broyden)= 0.47810E-01
  rms(prec ) = 0.96439E-01
  weight for this iteration     100.00

 eigenvalues of (default mixing * dielectric matrix)
  average eigenvalue GAMMA=   1.6732
  2.4621  0.9364  1.6211
 
    TRIAL :  cpu time  267.15: real time  266.93
    CORREC:  cpu time    0.00: real time    0.00
    CHARGE:  cpu time    0.06: real time    0.06
    --------------------------------------------
      LOOP:  cpu time  269.32: real time  269.11

 eigenvalue-minimisations  :     0
 total energy-change (2. order) :-0.3827455E+02  (-0.1509259E+02)
 number of electron     112.0001358 magnetization 
 augmentation part       37.2395896 magnetization 

 Free energy of the ion-electron system (eV)
  ---------------------------------------------------
  alpha Z        PSCENC =       339.31929130
  Ewald energy   TEWEN  =     -9065.38622517
  -1/2 Hartree   DENC   =     -8007.20149082
  -exchange  EXHF       =       336.37326025
  -V(xc)+E(xc)   XCENC  =       368.39060987
  PAW double counting   =     15869.59850895   -16339.06826164
  entropy T*S    EENTRO =         0.00062177
  eigenvalues    EBANDS =     -1883.80223700
  atomic energy  EATOM  =     18320.98302006
  ---------------------------------------------------
  free energy    TOTEN  =       -60.79315172 eV

  energy without entropy =      -60.79377349  energy(sigma->0) =      -60.79335898


--------------------------------------------------------------------------------------------------------




----------------------------------------- Iteration    1(   6)  ---------------------------------------


    POTLOK:  cpu time    0.05: real time    0.05
    SETDIJ:  cpu time    2.05: real time    2.04
 
    SUBROT:  cpu time    0.71: real time    0.71
    SUBROT:  cpu time    0.34: real time    0.34
    SUBROT:  cpu time    0.35: real time    0.35
    SUBROT:  cpu time    0.35: real time    0.35
    --------------------------------------------
    SUBRT+:  cpu time    1.75: real time    1.77

 Broyden mixing:
  rms(total) = 0.27841E-02    rms(broyden)= 0.27834E-02
  rms(prec ) = 0.45972E-02
  weight for this iteration     100.00

 eigenvalues of (default mixing * dielectric matrix)
  average eigenvalue GAMMA=   1.8004
  0.9998  1.8722  2.5290
 
    TRIAL :  cpu time  266.75: real time  266.53
    CORREC:  cpu time    0.00: real time    0.00
    CHARGE:  cpu time    0.06: real time    0.06
    --------------------------------------------
      LOOP:  cpu time  268.91: real time  268.70

 eigenvalue-minimisations  :     0
 total energy-change (2. order) :-0.5105591E+01  (-0.8268633E+01)
 number of electron     112.0001387 magnetization 
 augmentation part       38.2304318 magnetization 

 Free energy of the ion-electron system (eV)
  ---------------------------------------------------
  alpha Z        PSCENC =       339.31929130
  Ewald energy   TEWEN  =     -9065.38622517
  -1/2 Hartree   DENC   =     -7998.65841910
  -exchange  EXHF       =       337.10556817
  -V(xc)+E(xc)   XCENC  =       368.74208796
  PAW double counting   =     15768.19613872   -16237.12927580
  entropy T*S    EENTRO =         0.00066404
  eigenvalues    EBANDS =     -1899.07155095
  atomic energy  EATOM  =     18320.98302006
  ---------------------------------------------------
  free energy    TOTEN  =       -65.89874303 eV

  energy without entropy =      -65.89940707  energy(sigma->0) =      -65.89896438


--------------------------------------------------------------------------------------------------------




----------------------------------------- Iteration    1(   7)  ---------------------------------------


    POTLOK:  cpu time    0.06: real time    0.06
    SETDIJ:  cpu time    2.04: real time    2.04
 
    SUBROT:  cpu time    0.71: real time    0.71
    SUBROT:  cpu time    0.33: real time    0.33
    SUBROT:  cpu time    0.33: real time    0.33
    SUBROT:  cpu time    0.35: real time    0.35
    --------------------------------------------
    SUBRT+:  cpu time    1.74: real time    1.75

 Broyden mixing:
  rms(total) = 0.13447E-01    rms(broyden)= 0.13443E-01
  rms(prec ) = 0.23866E-01
  weight for this iteration     100.00

 eigenvalues of (default mixing * dielectric matrix)
  average eigenvalue GAMMA=   1.6001
  2.5021  0.8872  1.4109
 
    TRIAL :  cpu time  267.14: real time  266.91
    CORREC:  cpu time    0.00: real time    0.00
    CHARGE:  cpu time    0.06: real time    0.06
    --------------------------------------------
      LOOP:  cpu time  269.31: real time  269.08

 eigenvalue-minimisations  :     0
 total energy-change (2. order) :-0.1554440E+01  (-0.4175474E+01)
 number of electron     112.0001371 magnetization 
 augmentation part       37.7047101 magnetization 

 Free energy of the ion-electron system (eV)
  ---------------------------------------------------
  alpha Z        PSCENC =       339.31929130
  Ewald energy   TEWEN  =     -9065.38622517
  -1/2 Hartree   DENC   =     -8243.10472889
  -exchange  EXHF       =       341.62123053
  -V(xc)+E(xc)   XCENC  =       374.57147833
  PAW double counting   =     16209.05523854   -16712.60653749
  entropy T*S    EENTRO =         0.00043358
  eigenvalues    EBANDS =     -1631.90661452
  atomic energy  EATOM  =     18320.98302006
  ---------------------------------------------------
  free energy    TOTEN  =       -67.45318328 eV

  energy without entropy =      -67.45361686  energy(sigma->0) =      -67.45332780


--------------------------------------------------------------------------------------------------------




----------------------------------------- Iteration    1(   8)  ---------------------------------------


    POTLOK:  cpu time    0.05: real time    0.06
    SETDIJ:  cpu time    2.05: real time    2.04
 
    SUBROT:  cpu time    0.70: real time    0.70
    SUBROT:  cpu time    0.36: real time    0.36
    SUBROT:  cpu time    0.38: real time    0.38
    SUBROT:  cpu time    0.34: real time    0.34
    --------------------------------------------
    SUBRT+:  cpu time    1.78: real time    1.78

 Broyden mixing:
  rms(total) = 0.84944E-02    rms(broyden)= 0.84919E-02
  rms(prec ) = 0.14228E-01
  weight for this iteration     100.00

 eigenvalues of (default mixing * dielectric matrix)
  average eigenvalue GAMMA=   1.6690
  2.4578  0.9461  1.6031
 
    TRIAL :  cpu time  268.64: real time  268.50
    CORREC:  cpu time    0.00: real time    0.00
    CHARGE:  cpu time    0.08: real time    0.08
    --------------------------------------------
      LOOP:  cpu time  270.82: real time  270.69

 eigenvalue-minimisations  :     0
 total energy-change (2. order) :-0.1628498E+01  (-0.7754269E+00)
 number of electron     112.0001371 magnetization 
 augmentation part       37.7233390 magnetization 

 Free energy of the ion-electron system (eV)
  ---------------------------------------------------
  alpha Z        PSCENC =       339.31929130
  Ewald energy   TEWEN  =     -9065.38622517
  -1/2 Hartree   DENC   =     -8115.70046042
  -exchange  EXHF       =       339.51101815
  -V(xc)+E(xc)   XCENC  =       371.37389520
  PAW double counting   =     15915.86442014   -16397.23077741
  entropy T*S    EENTRO =         0.00072361
  eigenvalues    EBANDS =     -1777.81629651
  atomic energy  EATOM  =     18320.98302006
  ---------------------------------------------------
  free energy    TOTEN  =       -69.08168108 eV

  energy without entropy =      -69.08240469  energy(sigma->0) =      -69.08192229


--------------------------------------------------------------------------------------------------------




----------------------------------------- Iteration    1(   9)  ---------------------------------------


    POTLOK:  cpu time    0.05: real time    0.05
    SETDIJ:  cpu time    2.05: real time    2.05
 
    SUBROT:  cpu time    0.74: real time    0.74
    SUBROT:  cpu time    0.35: real time    0.35
    SUBROT:  cpu time    0.36: real time    0.36
    SUBROT:  cpu time    0.35: real time    0.35
    --------------------------------------------
    SUBRT+:  cpu time    1.80: real time    1.80

 Broyden mixing:
  rms(total) = 0.53597E-03    rms(broyden)= 0.53534E-03
  rms(prec ) = 0.85612E-03
  weight for this iteration     100.00

 eigenvalues of (default mixing * dielectric matrix)
  average eigenvalue GAMMA=   1.6453
  2.5105  0.9956  1.4298
 
    TRIAL :  cpu time  268.88: real time  268.64
    CORREC:  cpu time    0.00: real time    0.00
    CHARGE:  cpu time    0.06: real time    0.06
    --------------------------------------------
      LOOP:  cpu time  271.05: real time  270.81

 eigenvalue-minimisations  :     0
 total energy-change (2. order) :-0.3118627E+00  (-0.3904804E+00)
 number of electron     112.0001377 magnetization 
 augmentation part       37.9061382 magnetization 

 Free energy of the ion-electron system (eV)
  ---------------------------------------------------
  alpha Z        PSCENC =       339.31929130
  Ewald energy   TEWEN  =     -9065.38622517
  -1/2 Hartree   DENC   =     -8123.34313499
  -exchange  EXHF       =       339.58654748
  -V(xc)+E(xc)   XCENC  =       371.43610584
  PAW double counting   =     15912.01581003   -16393.23902707
  entropy T*S    EENTRO =         0.00086022
  eigenvalues    EBANDS =     -1770.76665484
  atomic energy  EATOM  =     18320.98302006
  ---------------------------------------------------
  free energy    TOTEN  =       -69.39354376 eV

  energy without entropy =      -69.39440398  energy(sigma->0) =      -69.39383050


--------------------------------------------------------------------------------------------------------




----------------------------------------- Iteration    1(  10)  ---------------------------------------


    POTLOK:  cpu time    0.05: real time    0.05
    SETDIJ:  cpu time    2.02: real time    2.02
 
    SUBROT:  cpu time    0.74: real time    0.74
    SUBROT:  cpu time    0.38: real time    0.38
    SUBROT:  cpu time    0.36: real time    0.36
    SUBROT:  cpu time    0.38: real time    0.38
    --------------------------------------------
    SUBRT+:  cpu time    1.86: real time    1.88

 Broyden mixing:
  rms(total) = 0.23206E-02    rms(broyden)= 0.23201E-02
  rms(prec ) = 0.38925E-02
  weight for this iteration     100.00

 eigenvalues of (default mixing * dielectric matrix)
  average eigenvalue GAMMA=   1.6776
  2.4766  0.9876  1.5684
 
    TRIAL :  cpu time  268.48: real time  268.27
    CORREC:  cpu time    0.00: real time    0.00
    CHARGE:  cpu time    0.07: real time    0.07
    --------------------------------------------
      LOOP:  cpu time  270.63: real time  270.42

 eigenvalue-minimisations  :     0
 total energy-change (2. order) :-0.1047583E+00  (-0.1535154E+00)
 number of electron     112.0001374 magnetization 
 augmentation part       37.8186382 magnetization 

 Free energy of the ion-electron system (eV)
  ---------------------------------------------------
  alpha Z        PSCENC =       339.31929130
  Ewald energy   TEWEN  =     -9065.38622517
  -1/2 Hartree   DENC   =     -8171.14606018
  -exchange  EXHF       =       340.39865953
  -V(xc)+E(xc)   XCENC  =       372.54312089
  PAW double counting   =     15994.53145705   -16482.52926573
  entropy T*S    EENTRO =         0.00071834
  eigenvalues    EBANDS =     -1718.21315999
  atomic energy  EATOM  =     18320.98302006
  ---------------------------------------------------
  free energy    TOTEN  =       -69.49830202 eV

  energy without entropy =      -69.49902036  energy(sigma->0) =      -69.49854147


--------------------------------------------------------------------------------------------------------




----------------------------------------- Iteration    1(  11)  ---------------------------------------


    POTLOK:  cpu time    0.06: real time    0.06
    SETDIJ:  cpu time    2.05: real time    2.05
 
    SUBROT:  cpu time    0.75: real time    0.75
    SUBROT:  cpu time    0.36: real time    0.36
    SUBROT:  cpu time    0.37: real time    0.37
    SUBROT:  cpu time    0.37: real time    0.37
    --------------------------------------------
    SUBRT+:  cpu time    1.85: real time    1.86

 Broyden mixing:
  rms(total) = 0.78569E-03    rms(broyden)= 0.78544E-03
  rms(prec ) = 0.15727E-02
  weight for this iteration     100.00

 eigenvalues of (default mixing * dielectric matrix)
  average eigenvalue GAMMA=   1.6702
  2.4946  0.9841  1.5320
 
    TRIAL :  cpu time  268.49: real time  268.26
    CORREC:  cpu time    0.00: real time    0.00
    CHARGE:  cpu time    0.09: real time    0.09
    --------------------------------------------
      LOOP:  cpu time  270.69: real time  270.47

 eigenvalue-minimisations  :     0
 total energy-change (2. order) :-0.7019879E-01  (-0.3707295E-01)
 number of electron     112.0001373 magnetization 
 augmentation part       37.7855451 magnetization 

 Free energy of the ion-electron system (eV)
  ---------------------------------------------------
  alpha Z        PSCENC =       339.31929130
  Ewald energy   TEWEN  =     -9065.38622517
  -1/2 Hartree   DENC   =     -8149.69782251
  -exchange  EXHF       =       340.06971019
  -V(xc)+E(xc)   XCENC  =       372.06811882
  PAW double counting   =     15942.23063994   -16427.17060410
  entropy T*S    EENTRO =         0.00060322
  eigenvalues    EBANDS =     -1741.98534768
  atomic energy  EATOM  =     18320.98302006
  ---------------------------------------------------
  free energy    TOTEN  =       -69.56850081 eV

  energy without entropy =      -69.56910403  energy(sigma->0) =      -69.56870189


--------------------------------------------------------------------------------------------------------




----------------------------------------- Iteration    1(  12)  ---------------------------------------


    POTLOK:  cpu time    0.05: real time    0.05
    SETDIJ:  cpu time    2.05: real time    2.04
 
    SUBROT:  cpu time    0.77: real time    0.77
    SUBROT:  cpu time    0.39: real time    0.39
    SUBROT:  cpu time    0.35: real time    0.35
    SUBROT:  cpu time    0.37: real time    0.37
    --------------------------------------------
    SUBRT+:  cpu time    1.88: real time    1.89

 Broyden mixing:
  rms(total) = 0.21358E-03    rms(broyden)= 0.21348E-03
  rms(prec ) = 0.46304E-03
  weight for this iteration     100.00

 eigenvalues of (default mixing * dielectric matrix)
  average eigenvalue GAMMA=   1.6210
  2.5083  0.9980  1.3567
 
    TRIAL :  cpu time  267.77: real time  267.54
    CORREC:  cpu time    0.00: real time    0.00
    CHARGE:  cpu time    0.08: real time    0.09
    --------------------------------------------
      LOOP:  cpu time  269.95: real time  269.73

 eigenvalue-minimisations  :     0
 total energy-change (2. order) :-0.1234311E-01  (-0.2306445E-01)
 number of electron     112.0001375 magnetization 
 augmentation part       37.8260995 magnetization 

 Free energy of the ion-electron system (eV)
  ---------------------------------------------------
  alpha Z        PSCENC =       339.31929130
  Ewald energy   TEWEN  =     -9065.38622517
  -1/2 Hartree   DENC   =     -8141.24766417
  -exchange  EXHF       =       339.95260527
  -V(xc)+E(xc)   XCENC  =       371.89149530
  PAW double counting   =     15920.15305856   -16403.99638317
  entropy T*S    EENTRO =         0.00055022
  eigenvalues    EBANDS =     -1751.25064513
  atomic energy  EATOM  =     18320.98302006
  ---------------------------------------------------
  free energy    TOTEN  =       -69.58084392 eV

  energy without entropy =      -69.58139414  energy(sigma->0) =      -69.58102733


--------------------------------------------------------------------------------------------------------




----------------------------------------- Iteration    1(  13)  ---------------------------------------


    POTLOK:  cpu time    0.06: real time    0.06
    SETDIJ:  cpu time    2.07: real time    2.06
 
    SUBROT:  cpu time    0.75: real time    0.75
    SUBROT:  cpu time    0.37: real time    0.37
    SUBROT:  cpu time    0.39: real time    0.39
    SUBROT:  cpu time    0.36: real time    0.37
    --------------------------------------------
    SUBRT+:  cpu time    1.88: real time    1.91

 Broyden mixing:
  rms(total) = 0.55882E-03    rms(broyden)= 0.55871E-03
  rms(prec ) = 0.94997E-03
  weight for this iteration     100.00

 eigenvalues of (default mixing * dielectric matrix)
  average eigenvalue GAMMA=   1.6919
  2.4807  0.9960  1.5991
 
    TRIAL :  cpu time  268.03: real time  267.82
    CORREC:  cpu time    0.00: real time    0.00
    CHARGE:  cpu time    0.09: real time    0.09
    --------------------------------------------
      LOOP:  cpu time  270.25: real time  270.06

 eigenvalue-minimisations  :     0
 total energy-change (2. order) :-0.9758716E-02  (-0.5148419E-02)
 number of electron     112.0001375 magnetization 
 augmentation part       37.8300565 magnetization 

 Free energy of the ion-electron system (eV)
  ---------------------------------------------------
  alpha Z        PSCENC =       339.31929130
  Ewald energy   TEWEN  =     -9065.38622517
  -1/2 Hartree   DENC   =     -8151.19958651
  -exchange  EXHF       =       340.12595191
  -V(xc)+E(xc)   XCENC  =       372.12679329
  PAW double counting   =     15936.40457287   -16421.75035939
  entropy T*S    EENTRO =         0.00053820
  eigenvalues    EBANDS =     -1740.21461122
  atomic energy  EATOM  =     18320.98302006
  ---------------------------------------------------
  free energy    TOTEN  =       -69.59060264 eV

  energy without entropy =      -69.59114084  energy(sigma->0) =      -69.59078204


--------------------------------------------------------------------------------------------------------




----------------------------------------- Iteration    1(  14)  ---------------------------------------


    POTLOK:  cpu time    0.07: real time    0.07
    SETDIJ:  cpu time    2.05: real time    2.04
 
    SUBROT:  cpu time    0.77: real time    0.77
    SUBROT:  cpu time    0.37: real time    0.37
    SUBROT:  cpu time    0.37: real time    0.37
    SUBROT:  cpu time    0.37: real time    0.37
    --------------------------------------------
    SUBRT+:  cpu time    1.89: real time    1.91

 Broyden mixing:
  rms(total) = 0.70362E-04    rms(broyden)= 0.70348E-04
  rms(prec ) = 0.14366E-03
  weight for this iteration     100.00

 eigenvalues of (default mixing * dielectric matrix)
  average eigenvalue GAMMA=   1.6366
  2.5194  0.9882  1.4021
 
    TRIAL :  cpu time  268.11: real time  267.88
    CORREC:  cpu time    0.00: real time    0.00
    CHARGE:  cpu time    0.09: real time    0.09
    --------------------------------------------
      LOOP:  cpu time  270.33: real time  270.10

 eigenvalue-minimisations  :     0
 total energy-change (2. order) :-0.2467797E-02  (-0.3818808E-02)
 number of electron     112.0001374 magnetization 
 augmentation part       37.8123822 magnetization 

 Free energy of the ion-electron system (eV)
  ---------------------------------------------------
  alpha Z        PSCENC =       339.31929130
  Ewald energy   TEWEN  =     -9065.38622517
  -1/2 Hartree   DENC   =     -8151.74227619
  -exchange  EXHF       =       340.12410771
  -V(xc)+E(xc)   XCENC  =       372.13643904
  PAW double counting   =     15934.33814153   -16419.85109798
  entropy T*S    EENTRO =         0.00055686
  eigenvalues    EBANDS =     -1739.51500893
  atomic energy  EATOM  =     18320.98302006
  ---------------------------------------------------
  free energy    TOTEN  =       -69.59307043 eV

  energy without entropy =      -69.59362730  energy(sigma->0) =      -69.59325605


--------------------------------------------------------------------------------------------------------




----------------------------------------- Iteration    1(  15)  ---------------------------------------


    POTLOK:  cpu time    0.06: real time    0.06
    SETDIJ:  cpu time    2.04: real time    2.04
 
    SUBROT:  cpu time    0.76: real time    0.76
    SUBROT:  cpu time    0.38: real time    0.38
    SUBROT:  cpu time    0.37: real time    0.37
    SUBROT:  cpu time    0.37: real time    0.37
    --------------------------------------------
    SUBRT+:  cpu time    1.88: real time    1.88

 Broyden mixing:
  rms(total) = 0.19490E-03    rms(broyden)= 0.19484E-03
  rms(prec ) = 0.33232E-03
  weight for this iteration     100.00

 eigenvalues of (default mixing * dielectric matrix)
  average eigenvalue GAMMA=   1.6769
  2.4734  0.9886  1.5687
 
    TRIAL :  cpu time  267.23: real time  266.99
    CORREC:  cpu time    0.00: real time    0.00
    CHARGE:  cpu time    0.09: real time    0.09
    --------------------------------------------
      LOOP:  cpu time  269.42: real time  269.19

 eigenvalue-minimisations  :     0
 total energy-change (2. order) :-0.1521151E-02  (-0.1046095E-02)
 number of electron     112.0001374 magnetization 
 augmentation part       37.8167234 magnetization 

 Free energy of the ion-electron system (eV)
  ---------------------------------------------------
  alpha Z        PSCENC =       339.31929130
  Ewald energy   TEWEN  =     -9065.38622517
  -1/2 Hartree   DENC   =     -8146.99496624
  -exchange  EXHF       =       340.03429161
  -V(xc)+E(xc)   XCENC  =       372.02438476
  PAW double counting   =     15922.19136517   -16407.08982739
  entropy T*S    EENTRO =         0.00057005
  eigenvalues    EBANDS =     -1744.67648254
  atomic energy  EATOM  =     18320.98302006
  ---------------------------------------------------
  free energy    TOTEN  =       -69.59459158 eV

  energy without entropy =      -69.59516163  energy(sigma->0) =      -69.59478160


--------------------------------------------------------------------------------------------------------




----------------------------------------- Iteration    1(  16)  ---------------------------------------


    POTLOK:  cpu time    0.05: real time    0.06
    SETDIJ:  cpu time    2.05: real time    2.05
 
    SUBROT:  cpu time    0.79: real time    0.79
    SUBROT:  cpu time    0.37: real time    0.37
    SUBROT:  cpu time    0.38: real time    0.38
    SUBROT:  cpu time    0.37: real time    0.37
    --------------------------------------------
    SUBRT+:  cpu time    1.91: real time    1.93

 Broyden mixing:
  rms(total) = 0.85355E-04    rms(broyden)= 0.85337E-04
  rms(prec ) = 0.14222E-03
  weight for this iteration     100.00

 eigenvalues of (default mixing * dielectric matrix)
  average eigenvalue GAMMA=   1.6883
  2.4859  0.9897  1.5894
 
    TRIAL :  cpu time  265.68: real time  265.47
    CORREC:  cpu time    0.00: real time    0.00
    CHARGE:  cpu time    0.09: real time    0.09
    --------------------------------------------
      LOOP:  cpu time  267.88: real time  267.67

 eigenvalue-minimisations  :     0
 total energy-change (2. order) :-0.5763102E-03  (-0.4132945E-03)
 number of electron     112.0001374 magnetization 
 augmentation part       37.8215671 magnetization 

 Free energy of the ion-electron system (eV)
  ---------------------------------------------------
  alpha Z        PSCENC =       339.31929130
  Ewald energy   TEWEN  =     -9065.38622517
  -1/2 Hartree   DENC   =     -8148.11695069
  -exchange  EXHF       =       340.05291547
  -V(xc)+E(xc)   XCENC  =       372.05168361
  PAW double counting   =     15923.04027265   -16408.12857537
  entropy T*S    EENTRO =         0.00057066
  eigenvalues    EBANDS =     -1743.41116981
  atomic energy  EATOM  =     18320.98302006
  ---------------------------------------------------
  free energy    TOTEN  =       -69.59516789 eV

[...]
     22      -2.2896      2.00000
     23      -1.9520      2.00000
     24      -1.6204      2.00000
     25      -1.2147      2.00000
     26      -1.0093      2.00000
     27      -0.9754      2.00000
     28      -0.7102      2.00000
     29      -0.5533      2.00000
     30      -0.3896      2.00000
     31      -0.2853      2.00000
     32      -0.1964      2.00000
     33      -0.1810      2.00000
     34      -0.1410      2.00000
     35      -0.0178      2.00000
     36       0.0193      2.00000
     37       1.2962      2.00000
     38       1.3085      2.00000
     39       1.3682      2.00000
     40       1.4112      2.00000
     41       1.4509      2.00000
     42       1.4655      2.00000
     43       1.5064      2.00000
     44       1.5499      2.00000
     45       1.7645      2.00000
     46       1.8942      2.00000
     47       1.9804      2.00000
     48       2.1517      2.00000
     49       2.3715      2.00000
     50       2.5763      2.00000
     51       2.7035      2.00000
     52       2.9095      2.00000
     53       3.0134      2.00000
     54       3.2209      2.00000
     55       3.3993      2.00000
     56       3.6563      2.00000
     57       6.3778     -0.00000
     58       6.5200     -0.00000
     59       7.7176      0.00000
     60       7.9017      0.00000
     61       8.2981      0.00000
     62       8.5731      0.00000
     63       9.3253      0.00000
     64       9.8447      0.00000
     65      10.0223      0.00000
     66      10.3526      0.00000
     67      10.5853      0.00000
     68      10.7892      0.00000
     69      10.9777      0.00000
     70      11.2537      0.00000
     71      11.3054      0.00000
     72      11.7040      0.00000
     73      12.2523      0.00000
     74      12.4631      0.00000
     75      13.0964      0.00000
     76      13.4869      0.00000
     77      13.8200      0.00000
     78      14.6890      0.00000
     79      15.0010      0.00000
     80      15.7155      0.00000

 k-point  40 :       0.2500   -0.2500    0.4000
  band No.  band energies     occupation 
      1     -68.6457      2.00000
      2     -68.6449      2.00000
      3     -68.6336      2.00000
      4     -68.6327      2.00000
      5     -68.6140      2.00000
      6     -68.6137      2.00000
      7     -68.5972      2.00000
      8     -68.5964      2.00000
      9     -68.5776      2.00000
     10     -68.5766      2.00000
     11     -68.5607      2.00000
     12     -68.5599      2.00000
     13     -12.2211      2.00000
     14     -11.8197      2.00000
     15     -10.8241      2.00000
     16     -10.6700      2.00000
     17     -10.3493      2.00000
     18     -10.2749      2.00000
     19      -5.4467      2.00000
     20      -5.1167      2.00000
     21      -2.4298      2.00000
     22      -2.1534      2.00000
     23      -2.0183      2.00000
     24      -1.5241      2.00000
     25      -1.3563      2.00000
     26      -1.1686      2.00000
     27      -0.9339      2.00000
     28      -0.8108      2.00000
     29      -0.5843      2.00000
     30      -0.5380      2.00000
     31      -0.2813      2.00000
     32      -0.2400      2.00000
     33      -0.1362      2.00000
     34      -0.0879      2.00000
     35      -0.0231      2.00000
     36       0.0347      2.00000
     37       1.3123      2.00000
     38       1.3450      2.00000
     39       1.3643      2.00000
     40       1.3954      2.00000
     41       1.4523      2.00000
     42       1.4817      2.00000
     43       1.4991      2.00000
     44       1.5656      2.00000
     45       1.8018      2.00000
     46       1.8460      2.00000
     47       1.9599      2.00000
     48       2.1100      2.00000
     49       2.2959      2.00000
     50       2.5306      2.00000
     51       2.6411      2.00000
     52       2.7707      2.00000
     53       2.9280      2.00000
     54       3.1596      2.00000
     55       3.3021      2.00000
     56       3.5743      2.00000
     57       6.5620     -0.00000
     58       6.7182     -0.00000
     59       7.9646      0.00000
     60       8.0018      0.00000
     61       8.7307      0.00000
     62       9.0924      0.00000
     63       9.4548      0.00000
     64       9.8262      0.00000
     65      10.2999      0.00000
     66      10.3674      0.00000
     67      10.7785      0.00000
     68      10.8479      0.00000
     69      11.1153      0.00000
     70      11.2725      0.00000
     71      11.3717      0.00000
     72      11.6209      0.00000
     73      12.0470      0.00000
     74      12.2945      0.00000
     75      12.6494      0.00000
     76      13.1194      0.00000
     77      13.2779      0.00000
     78      14.2386      0.00000
     79      15.6318      0.00000
     80      15.8470      0.00000

 k-point  41 :       0.5000   -0.2500    0.4000
  band No.  band energies     occupation 
      1     -68.6455      2.00000
      2     -68.6449      2.00000
      3     -68.6333      2.00000
      4     -68.6326      2.00000
      5     -68.6139      2.00000
      6     -68.6138      2.00000
      7     -68.5969      2.00000
      8     -68.5963      2.00000
      9     -68.5775      2.00000
     10     -68.5767      2.00000
     11     -68.5607      2.00000
     12     -68.5598      2.00000
     13     -12.0810      2.00000
     14     -11.7773      2.00000
     15     -10.8469      2.00000
     16     -10.7587      2.00000
     17     -10.5324      2.00000
     18     -10.3142      2.00000
     19      -5.4193      2.00000
     20      -4.9410      2.00000
     21      -2.4001      2.00000
     22      -2.1309      2.00000
     23      -1.8637      2.00000
     24      -1.7206      2.00000
     25      -1.4493      2.00000
     26      -1.1223      2.00000
     27      -0.8843      2.00000
     28      -0.6445      2.00000
     29      -0.6029      2.00000
     30      -0.4500      2.00000
     31      -0.2641      2.00000
     32      -0.1857      2.00000
     33      -0.1222      2.00000
     34      -0.0538      2.00000
     35      -0.0180      2.00000
     36       0.0257      2.00000
     37       1.2616      2.00000
     38       1.3165      2.00000
     39       1.4104      2.00000
     40       1.4371      2.00000
     41       1.4840      2.00000
     42       1.4920      2.00000
     43       1.5157      2.00000
     44       1.5743      2.00000
     45       1.7614      2.00000
     46       1.8412      2.00000
     47       2.1173      2.00000
     48       2.1845      2.00000
     49       2.3677      2.00000
     50       2.4608      2.00000
     51       2.4918      2.00000
     52       2.6937      2.00000
     53       2.8243      2.00000
     54       3.0871      2.00000
     55       3.2907      2.00000
     56       3.5252      2.00000
     57       6.4960     -0.00000
     58       6.5839     -0.00000
     59       7.4539      0.00000
     60       7.7197      0.00000
     61       8.5897      0.00000
     62       8.7446      0.00000
     63       9.2995      0.00000
     64       9.5327      0.00000
     65       9.9505      0.00000
     66      10.1860      0.00000
     67      10.6811      0.00000
     68      11.1139      0.00000
     69      11.2492      0.00000
     70      11.5681      0.00000
     71      11.7064      0.00000
     72      11.8920      0.00000
     73      12.3014      0.00000
     74      12.6572      0.00000
     75      13.0114      0.00000
     76      13.2287      0.00000
     77      13.6658      0.00000
     78      14.0692      0.00000
     79      14.3922      0.00000
     80      16.5169      0.00000

 k-point  42 :      -0.2500   -0.2500    0.4000
  band No.  band energies     occupation 
      1     -68.6458      2.00000
      2     -68.6450      2.00000
      3     -68.6330      2.00000
      4     -68.6328      2.00000
      5     -68.6139      2.00000
      6     -68.6138      2.00000
      7     -68.5970      2.00000
      8     -68.5963      2.00000
      9     -68.5774      2.00000
     10     -68.5769      2.00000
     11     -68.5608      2.00000
     12     -68.5600      2.00000
     13     -12.1802      2.00000
     14     -11.7073      2.00000
     15     -10.7166      2.00000
     16     -10.6950      2.00000
     17     -10.5838      2.00000
     18     -10.3913      2.00000
     19      -5.4461      2.00000
     20      -5.0725      2.00000
     21      -2.5076      2.00000
     22      -2.3804      2.00000
     23      -1.9654      2.00000
     24      -1.3673      2.00000
     25      -1.3321      2.00000
     26      -1.0535      2.00000
     27      -0.8350      2.00000
     28      -0.7653      2.00000
     29      -0.4224      2.00000
     30      -0.3391      2.00000
     31      -0.2712      2.00000
     32      -0.2085      2.00000
     33      -0.1430      2.00000
     34      -0.1374      2.00000
     35      -0.0124      2.00000
     36       0.0290      2.00000
     37       1.1733      2.00000
     38       1.3711      2.00000
     39       1.3975      2.00000
     40       1.4530      2.00000
     41       1.4539      2.00000
     42       1.4996      2.00000
     43       1.5169      2.00000
     44       1.5487      2.00000
     45       1.7447      2.00000
     46       1.8220      2.00000
     47       1.9727      2.00000
     48       2.2249      2.00000
     49       2.3975      2.00000
     50       2.6117      2.00000
     51       2.6547      2.00000
     52       2.9155      2.00000
     53       3.0695      2.00000
     54       3.1167      2.00000
     55       3.2881      2.00000
     56       3.5815      2.00000
     57       6.2908     -0.00000
     58       6.3795     -0.00000
     59       7.3573      0.00000
     60       7.5256      0.00000
     61       8.3081      0.00000
     62       8.3349      0.00000
     63       9.1046      0.00000
     64       9.3595      0.00000
     65       9.7167      0.00000
     66       9.9471      0.00000
     67      10.5241      0.00000
     68      10.9887      0.00000
     69      11.4252      0.00000
     70      11.5654      0.00000
     71      12.0187      0.00000
     72      12.2833      0.00000
     73      12.4286      0.00000
     74      12.4767      0.00000
     75      13.0338      0.00000
     76      13.1481      0.00000
     77      14.1423      0.00000
     78      14.4386      0.00000
     79      15.1658      0.00000
     80      15.8664      0.00000


--------------------------------------------------------------------------------------------------------


 soft charge-density along one line, spin component           1
         0         1         2         3         4         5         6         7         8         9
 total charge-density along one line
 
 pseudopotential strength for first ion, spin component:           1
-65.424   0.003   0.005   7.363  -0.000  -0.002   0.001   0.007
  0.003 -65.394  -0.005  -0.000   7.353   0.002  -0.001  -0.024
  0.005  -0.005 -65.384  -0.002   0.002   7.349  -0.036  -0.001
  7.363  -0.000  -0.002   6.110   0.000   0.001   0.002  -0.003
 -0.000   7.353   0.002   0.000   6.113  -0.000   0.000   0.007
 -0.002   0.002   7.349   0.001  -0.000   6.114   0.008   0.000
  0.001  -0.001  -0.036   0.002   0.000   0.008  -2.980  -0.003
  0.007  -0.024  -0.001  -0.003   0.007   0.000  -0.003  -2.985
  0.022   0.043   0.010  -0.005  -0.008  -0.003  -0.003   0.008
 -0.001  -0.017   0.007   0.000   0.005  -0.004   0.005   0.007
  0.025   0.000  -0.035  -0.007  -0.000   0.007  -0.000   0.006
  0.001  -0.001  -0.036   0.002   0.000   0.008  -3.626  -0.003
  0.007  -0.023  -0.001  -0.003   0.007   0.000  -0.003  -3.631
  0.021   0.042   0.009  -0.005  -0.008  -0.003  -0.002   0.008
 -0.001  -0.017   0.007   0.000   0.004  -0.004   0.005   0.007
  0.025   0.000  -0.034  -0.007  -0.000   0.007  -0.000   0.006
  0.007  -0.005   0.004  -0.001   0.001  -0.001  -0.001   0.000
  0.015  -0.010   0.009  -0.002   0.001  -0.002  -0.003   0.001
 total augmentation occupancy for first ion, spin component:           1
  2.000  -0.000   0.000  -0.003  -0.000   0.000   0.007  -0.005   0.001  -0.001  -0.004  -0.008   0.005  -0.001   0.001   0.004
 -0.000   2.000  -0.000  -0.000  -0.003   0.000  -0.001   0.005   0.004   0.001   0.000   0.001  -0.005  -0.005  -0.001  -0.000
  0.000  -0.000   2.000   0.000   0.000  -0.003  -0.001  -0.000  -0.001  -0.005  -0.004   0.001   0.000   0.001   0.005   0.005
 -0.003  -0.000   0.000   0.094   0.005  -0.004  -0.331   0.232  -0.071   0.015   0.020   0.278  -0.196   0.055  -0.010  -0.014
 -0.000  -0.003   0.000   0.005   0.103   0.002   0.024  -0.048  -0.445   0.015   0.012  -0.017   0.038   0.378  -0.011  -0.010
  0.000   0.000  -0.003  -0.004   0.002   0.100   0.095   0.001  -0.016   0.237   0.355  -0.074  -0.002   0.013  -0.204  -0.298
  0.007  -0.001  -0.001  -0.331   0.024   0.095   4.009  -0.789   0.090   0.212   0.146  -1.736   0.739  -0.078  -0.176  -0.140
 -0.005   0.005  -0.000   0.232  -0.048   0.001  -0.789   3.507   0.287   0.170   0.301   0.739  -1.264  -0.210  -0.127  -0.213
  0.001   0.004  -0.001  -0.071  -0.445  -0.016   0.090   0.287   4.691  -0.036  -0.125  -0.078  -0.211  -2.400   0.030   0.096
 -0.001   0.001  -0.005   0.015   0.015   0.237   0.212   0.170  -0.036   3.637   0.801  -0.176  -0.127   0.030  -1.358  -0.764
 -0.004   0.000  -0.004   0.020   0.012   0.355   0.146   0.301  -0.125   0.801   3.993  -0.140  -0.213   0.095  -0.764  -1.739
 -0.008   0.001   0.001   0.278  -0.017  -0.074  -1.736   0.739  -0.078  -0.176  -0.140   1.440  -0.690   0.068   0.146   0.134
  0.005  -0.005   0.000  -0.196   0.038  -0.002   0.739  -1.264  -0.211  -0.127  -0.213  -0.690   0.998   0.149   0.093   0.141
 -0.001  -0.005   0.001   0.055   0.378   0.013  -0.078  -0.210  -2.400   0.030   0.095   0.068   0.149   2.084  -0.025  -0.073
  0.001  -0.001   0.005  -0.010  -0.011  -0.204  -0.176  -0.127   0.030  -1.358  -0.764   0.146   0.093  -0.025   1.065   0.726
  0.004  -0.000   0.005  -0.014  -0.010  -0.298  -0.140  -0.213   0.096  -0.764  -1.739   0.134   0.141  -0.073   0.726   1.459
 -0.024   0.016  -0.014  -0.017   0.011  -0.008   0.051  -0.081  -0.026  -0.016   0.012  -0.039   0.072   0.037   0.014   0.016
  0.011  -0.008   0.006   0.001  -0.000   0.000  -0.005   0.001  -0.004   0.005  -0.018   0.002  -0.004  -0.002  -0.002   0.002


------------------------ aborting loop because EDIFF is reached ----------------------------------------


    FORLOC:  cpu time    0.00: real time    0.00
    FORHF :  cpu time  487.15: real time  486.71
    FORNL :  cpu time    0.42: real time    0.42
    FORCOR:  cpu time    2.16: real time    2.15

 VOLUME and BASIS-vectors are now :
 -----------------------------------------------------------------------------
  energy-cutoff  :      400.00
  volume of cell :      221.90
      direct lattice vectors                 reciprocal lattice vectors
     3.224796000 -5.643830000  0.031572000     0.154525165 -0.088592321  0.053460880
     3.224796000  5.643830000  0.031572000     0.154525165  0.088592321  0.053460880
    -2.101946000  0.000000000  6.075537000    -0.001606004  0.000000000  0.164038877

  length of vectors
     6.500240234  6.500240234  6.428866683     0.185969598  0.185969598  0.164046738


 FORCES acting on ions:
    Electron-Ion                     Ewald-Force                    Non-Local-Force
 -----------------------------------------------------------------------------------------------
   -.169E+02 -.940E+02 0.112E+02   0.156E+02 0.916E+02 -.964E+01   0.111E+01 0.201E+01 -.142E+01
   -.140E+02 0.979E+02 0.122E+02   0.127E+02 -.955E+02 -.106E+02   0.102E+01 -.211E+01 -.141E+01
   0.265E+02 -.184E+02 0.445E+01   -.232E+02 0.182E+02 -.318E+01   -.285E+01 0.148E+00 -.111E+01
   0.253E+02 0.165E+02 0.412E+01   -.220E+02 -.163E+02 -.283E+01   -.284E+01 -.160E+00 -.113E+01
   -.110E+02 -.316E+02 -.113E+02   0.103E+02 0.303E+02 0.101E+02   0.683E+00 0.134E+01 0.113E+01
   -.108E+02 0.312E+02 -.112E+02   0.101E+02 -.298E+02 0.100E+02   0.681E+00 -.134E+01 0.113E+01
   -.135E+03 -.101E+02 -.491E+02   0.132E+03 0.102E+02 0.482E+02   0.279E+01 -.318E-01 0.732E+00
   0.691E+02 -.127E+03 0.967E+02   -.673E+02 0.124E+03 -.946E+02   -.157E+01 0.229E+01 -.187E+01
   0.661E+02 -.132E+03 -.499E+02   -.646E+02 0.129E+03 0.489E+02   -.135E+01 0.218E+01 0.876E+00
   0.703E+02 0.126E+03 0.961E+02   -.686E+02 -.123E+03 -.941E+02   -.156E+01 -.230E+01 -.187E+01
   -.134E+03 0.779E+01 -.501E+02   0.131E+03 -.779E+01 0.493E+02   0.279E+01 0.239E-01 0.726E+00
   0.677E+02 0.133E+03 -.493E+02   -.662E+02 -.131E+03 0.483E+02   -.135E+01 -.218E+01 0.880E+00
 -----------------------------------------------------------------------------------------------
   0.272E+01 0.118E+00 0.378E+01   -.142E-13 0.284E-13 0.284E-13   -.246E+01 -.129E+00 -.334E+01
 
 
 POSITION                                       TOTAL-FORCE (eV/Angst)
 -----------------------------------------------------------------------------------
      2.12889     -2.79784      0.74953         0.028634     -0.037054     -0.000965
      1.08288      2.80652      3.78735        -0.003349      0.001732     -0.000658
      5.40423     -0.97432      0.77721         0.002191      0.001588      0.000669
      4.35326      0.97432      3.81498         0.002125      0.000048      0.001734
      1.02081     -0.97328      3.66185        -0.000733      0.007139     -0.000116
      2.07178      0.97328      0.62409        -0.007860     -0.006517      0.001543
      2.15090      4.69667      3.05304         0.001370      0.001141     -0.002383
      1.11215     -0.89759      5.98620         0.003777     -0.001931      0.000327
      2.14287     -2.74882      3.03886        -0.003086      0.003510     -0.001441
      2.16313      0.89759      2.94844        -0.000315      0.007143      0.000792
      1.09993     -4.69667      6.09081        -0.007854      0.024054      0.009220
      1.09189      2.74882      6.07662        -0.014901     -0.000853     -0.008722
 -----------------------------------------------------------------------------------
    total drift:                               -0.052103     -0.005335     -0.051877


--------------------------------------------------------------------------------------------------------



  FREE ENERGIE OF THE ION-ELECTRON SYSTEM (eV)
  ---------------------------------------------------
  free  energy   TOTEN  =       -69.59551749 eV

  energy  without entropy=      -69.59608176  energy(sigma->0) =      -69.59570558
 


--------------------------------------------------------------------------------------------------------


    POTLOK:  cpu time    2.19: real time    2.19


--------------------------------------------------------------------------------------------------------


 writing wavefunctions
     LOOP+:  cpu time 6137.76: real time 6134.98
    4ORBIT:  cpu time    0.00: real time    0.00

 total amount of memory used by VASP on root node   155705. kBytes
========================================================================

   base      :      30000. kBytes
   nonl-proj :      74517. kBytes
   fftplans  :        702. kBytes
   grid      :       2400. kBytes
   one-center:        186. kBytes
   HF        :        194. kBytes
   nonlr-proj:       5130. kBytes
   wavefun   :      42576. kBytes
 
  
  
 General timing and accounting informations for this job:
 ========================================================
  
                  Total CPU time used (sec):     6179.035
                            User time (sec):     6172.746
                          System time (sec):        6.289
                         Elapsed time (sec):     6181.574
  
                   Maximum memory used (kb):      295116.
                   Average memory used (kb):           0.
  
                          Minor page faults:        78000
                          Major page faults:           15
                 Voluntary context switches:         4133
