<?xml version="1.0" encoding="ISO-8859-1"?>
<modeling>
 <generator>
  <i name="program" type="string">vasp </i>
  <i name="version" type="string">5.3.3  </i>
  <i name="subversion" type="string">18Dez12 (build Nov 13 2015 09:58:40) complex                          parallel </i>
  <i name="platform" type="string">LinuxIFC </i>
  <i name="date" type="string">2017 10 18 </i>
  <i name="time" type="string">16:12:18 </i>
 </generator>
 <incar>
  <i type="string" name="SYSTEM"> CGS</i>
  <i type="string" name="PREC">normal</i>
  <i type="string" name="ALGO"> D</i>
  <i type="logical" name="LDIAG"> T  </i>
  <i name="EDIFF">      0.00001000</i>
  <i name="ENCUT">    400.00000000</i>
  <i name="TIME">      0.40000000</i>
  <i type="int" name="ISMEAR">     1</i>
  <i name="SIGMA">      0.10000000</i>
  <i type="logical" name="LHFCALC"> T  </i>
  <i type="string" name="GGA"> PE</i>
  <i name="HFSCREEN">      0.20000000</i>
  <i name="AEXX">      0.25000000</i>
  <i type="string" name="PRECFOCK">fast</i>
 </incar>
 <kpoints>
  <generation param="Gamma">
   <v type="int" name="divisions">       4        4        5 </v>
   <v name="usershift">      0.00000000       0.00000000       0.00000000 </v>
   <v name="genvec1">      0.25000000       0.00000000       0.00000000 </v>
   <v name="genvec2">      0.00000000       0.25000000       0.00000000 </v>
   <v name="genvec3">      0.00000000       0.00000000       0.20000000 </v>
   <v name="shift">      0.00000000       0.00000000       0.00000000 </v>
  </generation>
  <varray name="kpointlist" >
   <v>       0.00000000       0.00000000       0.00000000 </v>
   <v>       0.25000000       0.00000000       0.00000000 </v>
   <v>       0.50000000       0.00000000       0.00000000 </v>
   <v>       0.00000000       0.25000000       0.00000000 </v>
   <v>       0.25000000       0.25000000       0.00000000 </v>
   <v>       0.50000000       0.25000000      -0.00000000 </v>
   <v>      -0.25000000       0.25000000       0.00000000 </v>
   <v>       0.00000000       0.50000000       0.00000000 </v>
   <v>       0.25000000       0.50000000      -0.00000000 </v>
   <v>       0.50000000       0.50000000       0.00000000 </v>
   <v>      -0.00000000      -0.00000000       0.20000000 </v>
   <v>       0.25000000       0.00000000       0.20000000 </v>
   <v>       0.50000000       0.00000000       0.20000000 </v>
   <v>      -0.25000000      -0.00000000       0.20000000 </v>
   <v>       0.00000000       0.25000000       0.20000000 </v>
   <v>       0.25000000       0.25000000       0.20000000 </v>
   <v>       0.50000000       0.25000000       0.20000000 </v>
   <v>      -0.25000000       0.25000000       0.20000000 </v>
   <v>       0.00000000       0.50000000       0.20000000 </v>
   <v>       0.25000000       0.50000000       0.20000000 </v>
   <v>       0.50000000       0.50000000       0.20000000 </v>
   <v>      -0.25000000       0.50000000       0.20000000 </v>
   <v>      -0.00000000      -0.25000000       0.20000000 </v>
   <v>       0.25000000      -0.25000000       0.20000000 </v>
   <v>       0.50000000      -0.25000000       0.20000000 </v>
   <v>      -0.25000000      -0.25000000       0.20000000 </v>
   <v>      -0.00000000      -0.00000000       0.40000000 </v>
   <v>       0.25000000       0.00000000       0.40000000 </v>
   <v>       0.50000000       0.00000000       0.40000000 </v>
   <v>      -0.25000000       0.00000000       0.40000000 </v>
   <v>       0.00000000       0.25000000       0.40000000 </v>
   <v>       0.25000000       0.25000000       0.40000000 </v>
   <v>       0.50000000       0.25000000       0.40000000 </v>
   <v>      -0.25000000       0.25000000       0.40000000 </v>
   <v>       0.00000000       0.50000000       0.40000000 </v>
   <v>       0.25000000       0.50000000       0.40000000 </v>
   <v>       0.50000000       0.50000000       0.40000000 </v>
   <v>      -0.25000000       0.50000000       0.40000000 </v>
   <v>       0.00000000      -0.25000000       0.40000000 </v>
   <v>       0.25000000      -0.25000000       0.40000000 </v>
   <v>       0.50000000      -0.25000000       0.40000000 </v>
   <v>      -0.25000000      -0.25000000       0.40000000 </v>
  </varray>
  <varray name="weights" >
   <v>       0.01250000 </v>
   <v>       0.02500000 </v>
   <v>       0.01250000 </v>
   <v>       0.02500000 </v>
   <v>       0.02500000 </v>
   <v>       0.02500000 </v>
   <v>       0.02500000 </v>
   <v>       0.01250000 </v>
   <v>       0.02500000 </v>
   <v>       0.01250000 </v>
   <v>       0.02500000 </v>
   <v>       0.02500000 </v>
   <v>       0.02500000 </v>
   <v>       0.02500000 </v>
   <v>       0.02500000 </v>
   <v>       0.02500000 </v>
   <v>       0.02500000 </v>
   <v>       0.02500000 </v>
   <v>       0.02500000 </v>
   <v>       0.02500000 </v>
   <v>       0.02500000 </v>
   <v>       0.02500000 </v>
   <v>       0.02500000 </v>
   <v>       0.02500000 </v>
   <v>       0.02500000 </v>
   <v>       0.02500000 </v>
   <v>       0.02500000 </v>
   <v>       0.02500000 </v>
   <v>       0.02500000 </v>
   <v>       0.02500000 </v>
   <v>       0.02500000 </v>
   <v>       0.02500000 </v>
   <v>       0.02500000 </v>
   <v>       0.02500000 </v>
   <v>       0.02500000 </v>
   <v>       0.02500000 </v>
   <v>       0.02500000 </v>
   <v>       0.02500000 </v>
   <v>       0.02500000 </v>
   <v>       0.02500000 </v>
   <v>       0.02500000 </v>
   <v>       0.02500000 </v>
  </varray>
 </kpoints>
 <parameters>
  <separator name="general" >
   <i type="string" name="SYSTEM">CGS</i>
   <i type="logical" name="LCOMPAT"> F  </i>
  </separator>
  <separator name="electronic" >
   <i type="string" name="PREC">normal</i>
   <i name="ENMAX">    400.00000000</i>
   <i name="ENAUG">    758.23300000</i>
   <i name="EDIFF">      0.00001000</i>
   <i type="int" name="IALGO">    53</i>
   <i type="int" name="IWAVPR">    10</i>
   <i type="int" name="NBANDS">    80</i>
   <i name="NELECT">    112.00000000</i>
   <i type="int" name="TURBO">     0</i>
   <i type="int" name="IRESTART">     0</i>
   <i type="int" name="NREBOOT">     0</i>
   <i type="int" name="NMIN">     0</i>
   <i name="EREF">      0.00000000</i>
   <separator name="electronic smearing" >
    <i type="int" name="ISMEAR">     1</i>
    <i name="SIGMA">      0.10000000</i>
    <i name="KSPACING">      0.50000000</i>
    <i type="logical" name="KGAMMA"> T  </i>
   </separator>
   <separator name="electronic projectors" >
    <i type="logical" name="LREAL"> F  </i>
    <v name="ROPT">      0.00000000      0.00000000      0.00000000</v>
    <i type="int" name="LMAXPAW">  -100</i>
    <i type="int" name="LMAXMIX">     2</i>
    <i type="logical" name="NLSPLINE"> F  </i>
   </separator>
   <separator name="electronic startup" >
    <i type="int" name="ISTART">     1</i>
    <i type="int" name="ICHARG">     0</i>
    <i type="int" name="INIWAV">     1</i>
   </separator>
   <separator name="electronic spin" >
    <i type="int" name="ISPIN">     1</i>
    <i type="logical" name="LNONCOLLINEAR"> F  </i>
    <v name="MAGMOM">      1.00000000      1.00000000      1.00000000      1.00000000      1.00000000      1.00000000      1.00000000      1.00000000      1.00000000      1.00000000      1.00000000      1.00000000</v>
    <i name="NUPDOWN">     -1.00000000</i>
    <i type="logical" name="LSORBIT"> F  </i>
    <v name="SAXIS">      0.00000000      0.00000000      1.00000000</v>
    <i type="logical" name="LSPIRAL"> F  </i>
    <v name="QSPIRAL">      0.00000000      0.00000000      0.00000000</v>
    <i type="logical" name="LZEROZ"> F  </i>
   </separator>
   <separator name="electronic exchange-correlation" >
    <i type="logical" name="LASPH"> F  </i>
    <i type="logical" name="LMETAGGA"> F  </i>
   </separator>
   <separator name="electronic convergence" >
    <i type="int" name="NELM">    60</i>
    <i type="int" name="NELMDL">     0</i>
    <i type="int" name="NELMIN">     2</i>
    <i name="ENINI">    400.00000000</i>
    <separator name="electronic convergence detail" >
     <i type="logical" name="LDIAG"> T  </i>
     <i type="logical" name="LSUBROT"> T  </i>
     <i name="WEIMIN">      0.00000000</i>
     <i name="EBREAK">      0.00000003</i>
     <i name="DEPER">      0.30000000</i>
     <i type="int" name="NRMM">     4</i>
     <i name="TIME">      0.40000000</i>
    </separator>
   </separator>
   <separator name="electronic mixer" >
    <i name="AMIX">      0.40000000</i>
    <i name="BMIX">      1.00000000</i>
    <i name="AMIN">      0.10000000</i>
    <i name="AMIX_MAG">      1.60000000</i>
    <i name="BMIX_MAG">      1.00000000</i>
    <separator name="electronic mixer details" >
     <i type="int" name="IMIX">     4</i>
     <i type="int" name="MAXMIX">   -45</i>
     <i name="WC">    100.00000000</i>
     <i type="int" name="INIMIX">     1</i>
     <i type="int" name="MIXPRE">     1</i>
     <i type="int" name="MREMOVE">     5</i>
    </separator>
   </separator>
   <separator name="electronic dipolcorrection" >
    <i type="logical" name="LDIPOL"> F  </i>
    <i type="logical" name="LMONO"> F  </i>
    <i type="int" name="IDIPOL">     0</i>
    <i name="EPSILON">      1.00000000</i>
    <v name="DIPOL">   -100.00000000   -100.00000000   -100.00000000</v>
    <i name="EFIELD">      0.00000000</i>
   </separator>
  </separator>
  <separator name="grids" >
   <i type="int" name="NGX">    32</i>
   <i type="int" name="NGY">    32</i>
   <i type="int" name="NGZ">    32</i>
   <i type="int" name="NGXF">    64</i>
   <i type="int" name="NGYF">    64</i>
   <i type="int" name="NGZF">    64</i>
   <i type="logical" name="ADDGRID"> F  </i>
  </separator>
  <separator name="ionic" >
   <i type="int" name="NSW">     0</i>
   <i type="int" name="IBRION">    -1</i>
   <i type="int" name="ISIF">     0</i>
   <i name="PSTRESS">      0.00000000</i>
   <i name="EDIFFG">      0.00010000</i>
   <i type="int" name="NFREE">     0</i>
   <i name="POTIM">      0.50000000</i>
   <i name="SMASS">     -3.00000000</i>
   <i name="SCALEE">      1.00000000</i>
  </separator>
  <separator name="ionic md" >
   <i name="TEBEG">      0.00010000</i>
   <i name="TEEND">      0.00010000</i>
   <i type="int" name="NBLOCK">     1</i>
   <i type="int" name="KBLOCK">     1</i>
   <i type="int" name="NPACO">   256</i>
   <i name="APACO">     16.00000000</i>
  </separator>
  <separator name="symmetry" >
   <i type="int" name="ISYM">     3</i>
   <i name="SYMPREC">      0.00001000</i>
  </separator>
  <separator name="dos" >
   <i type="logical" name="LORBIT"> F  </i>
   <v name="RWIGS">     -1.00000000     -1.00000000     -1.00000000</v>
   <i type="int" name="NEDOS">   301</i>
   <i name="EMIN">     10.00000000</i>
   <i name="EMAX">    -10.00000000</i>
   <i name="EFERMI">      0.00000000</i>
  </separator>
  <separator name="writing" >
   <i type="int" name="NWRITE">     2</i>
   <i type="logical" name="LWAVE"> T  </i>
   <i type="logical" name="LCHARG"> T  </i>
   <i type="logical" name="LPARD"> F  </i>
   <i type="logical" name="LVTOT"> F  </i>
   <i type="logical" name="LVHAR"> F  </i>
   <i type="logical" name="LELF"> F  </i>
   <i type="logical" name="LOPTICS"> F  </i>
   <v name="STM">      0.00000000      0.00000000      0.00000000      0.00000000      0.00000000      0.00000000      0.00000000</v>
  </separator>
  <separator name="performance" >
   <i type="int" name="NPAR">    16</i>
   <i type="int" name="NSIM">     4</i>
   <i type="int" name="NBLK">    -1</i>
   <i type="logical" name="LPLANE"> T  </i>
   <i type="logical" name="LSCALAPACK"> T  </i>
   <i type="logical" name="LSCAAWARE"> F  </i>
   <i type="logical" name="LSCALU"> F  </i>
   <i type="logical" name="LASYNC"> F  </i>
   <i type="logical" name="LORBITALREAL"> F  </i>
  </separator>
  <separator name="miscellaneous" >
   <i type="int" name="IDIOT">     3</i>
   <i type="logical" name="LMUSIC"> F  </i>
   <v name="POMASS">     63.54600000     72.61000000     32.06600000</v>
   <v name="DARWINR">      0.00000000      0.00000000      0.00000000</v>
   <v name="DARWINV">      1.00000000      1.00000000      1.00000000</v>
   <i type="logical" name="LCORR"> T  </i>
  </separator>
  <i type="logical" name="GGA_COMPAT"> T  </i>
  <i type="logical" name="LBERRY"> F  </i>
  <i type="int" name="ICORELEVEL">     0</i>
  <i type="logical" name="LDAU"> F  </i>
  <i type="int" name="I_CONSTRAINED_M">     0</i>
  <separator name="electronic exchange-correlation" >
   <i type="string" name="GGA">PE</i>
   <i type="int" name="VOSKOWN">     0</i>
   <i type="logical" name="LHFCALC"> T  </i>
   <i type="string" name="PRECFOCK">fast</i>
   <i type="logical" name="LSYMGRAD"> F  </i>
   <i type="logical" name="LHFONE"> F  </i>
   <i type="logical" name="LRHFCALC"> F  </i>
   <i type="logical" name="LTHOMAS"> F  </i>
   <i type="logical" name="LMODELHF"> F  </i>
   <i name="ENCUT4O">     -1.00000000</i>
   <i type="int" name="EXXOEP">     0</i>
   <i type="int" name="FOURORBIT">     0</i>
   <i name="AEXX">      0.25000000</i>
   <i name="HFALPHA">     -1.00000000</i>
   <i name="MCALPHA">      0.00000000</i>
   <i name="ALDAX">      0.75000000</i>
   <i name="AGGAX">      0.75000000</i>
   <i name="ALDAC">      1.00000000</i>
   <i name="AGGAC">      1.00000000</i>
   <i type="int" name="NKREDX">     1</i>
   <i type="int" name="NKREDY">     1</i>
   <i type="int" name="NKREDZ">     1</i>
   <i type="logical" name="SHIFTRED"> F  </i>
   <i type="logical" name="ODDONLY"> F  </i>
   <i type="logical" name="EVENONLY"> F  </i>
   <i type="int" name="LMAXFOCK">     4</i>
   <i type="int" name="NMAXFOCKAE">     1</i>
   <i type="logical" name="LFOCKAEDFT"> F  </i>
   <i name="HFSCREEN">      0.20000000</i>
   <i name="HFSCREENC">      0.20000000</i>
   <i type="int" name="NBANDSGWLOW">     1</i>
  </separator>
  <separator name="vdW DFT" >
   <i type="logical" name="LUSE_VDW"> F  </i>
   <i name="Zab_VDW">     -0.84910000</i>
   <i name="PARAM1">      0.12340000</i>
   <i name="PARAM2">      1.00000000</i>
   <i name="PARAM3">      0.00000000</i>
  </separator>
  <separator name="model GW" >
   <i type="int" name="MODEL_GW">     0</i>
   <i name="MODEL_EPS0">     11.09505304</i>
   <i name="MODEL_ALPHA">      1.00000000</i>
  </separator>
  <separator name="linear response parameters" >
   <i type="logical" name="LEPSILON"> F  </i>
   <i type="logical" name="LRPA"> F  </i>
   <i type="logical" name="LNABLA"> F  </i>
   <i type="logical" name="LVEL"> F  </i>
   <i type="int" name="KINTER">     0</i>
   <i name="CSHIFT">      0.10000000</i>
   <i name="OMEGAMAX">     -1.00000000</i>
   <i name="DEG_THRESHOLD">      0.00200000</i>
  </separator>
  <separator name="orbital magnetization" >
   <i type="logical" name="NUCIND"> F  </i>
   <v name="MAGPOS">      0.00000000      0.00000000      0.00000000</v>
   <i type="logical" name="LNICSALL"> T  </i>
   <i type="logical" name="ORBITALMAG"> F  </i>
   <i type="logical" name="LMAGBLOCH"> F  </i>
   <i type="logical" name="LCHIMAG"> F  </i>
   <i type="logical" name="LGAUGE"> T  </i>
   <i type="int" name="MAGATOM">     0</i>
   <v name="MAGDIPOL">      0.00000000      0.00000000      0.00000000</v>
   <v name="AVECCONST">      0.00000000      0.00000000      0.00000000</v>
  </separator>
  <separator name="response functions" >
   <i type="logical" name="LADDER"> F  </i>
   <i type="logical" name="LFXC"> F  </i>
   <i type="logical" name="LHARTREE"> T  </i>
   <i type="int" name="IBSE">     0</i>
   <i type="logical" name="LTCTE"> F  </i>
   <i type="logical" name="LTETE"> F  </i>
   <i type="logical" name="LTRIPLET"> F  </i>
   <i type="logical" name="LFXCEPS"> F  </i>
   <i type="logical" name="L2ORDER"> F  </i>
   <i type="logical" name="LUSEW"> F  </i>
   <i name="ENCUTGW">     -2.00000000</i>
   <i name="ENCUTGWSOFT">     -2.00000000</i>
   <i name="ENCUTLF">     -1.00000000</i>
   <i type="int" name="LMAXMP2">    -1</i>
   <i name="SCISSOR">      0.00000000</i>
   <i type="int" name="NOMEGA">     0</i>
   <i type="int" name="NOMEGAR">     0</i>
   <i type="int" name="NBANDSGW">    -1</i>
   <i type="int" name="NBANDSO">    -1</i>
   <i type="int" name="NBANDSV">    -1</i>
   <i type="int" name="NELM">     1</i>
   <i type="int" name="DIM">     3</i>
   <i type="int" name="ANTIRES">     0</i>
   <i name="OMEGAMAX">    -30.00000000</i>
   <i name="OMEGATL">   -200.00000000</i>
   <i type="int" name="OMEGAGRID">     0</i>
   <i name="CSHIFT">     -0.10000000</i>
   <i type="logical" name="SELFENERGY"> F  </i>
   <i type="logical" name="LSPECTRAL"> F  </i>
   <i type="logical" name="ODDONLYGW"> F  </i>
   <i type="logical" name="EVENONLYGW"> F  </i>
   <i type="int" name="NKREDLFX">     1</i>
   <i type="int" name="NKREDLFY">     1</i>
   <i type="int" name="NKREDLFZ">     1</i>
   <i type="int" name="MAXMEM">  1800</i>
   <i type="int" name="TELESCOPE">     0</i>
  </separator>
 </parameters>
 <atominfo>
  <atoms>      12 </atoms>
  <types>       3 </types>
  <array name="atoms" >
   <dimension dim="1">ion</dimension>
   <field type="string">element</field>
   <field type="int">atomtype</field>
   <set>
    <rc><c>Cu</c><c>   1</c></rc>
    <rc><c>Cu</c><c>   1</c></rc>
    <rc><c>Cu</c><c>   1</c></rc>
    <rc><c>Cu</c><c>   1</c></rc>
    <rc><c>Ge</c><c>   2</c></rc>
    <rc><c>Ge</c><c>   2</c></rc>
    <rc><c>S </c><c>   3</c></rc>
    <rc><c>S </c><c>   3</c></rc>
    <rc><c>S </c><c>   3</c></rc>
    <rc><c>S </c><c>   3</c></rc>
    <rc><c>S </c><c>   3</c></rc>
    <rc><c>S </c><c>   3</c></rc>
   </set>
  </array>
  <array name="atomtypes" >
   <dimension dim="1">type</dimension>
   <field type="int">atomspertype</field>
   <field type="string">element</field>
   <field>mass</field>
   <field>valence</field>
   <field type="string">pseudopotential</field>
   <set>
    <rc><c>   4</c><c>Cu</c><c>     63.54600000</c><c>     17.00000000</c><c>  PAW_PBE Cu_pv 06Sep2000               </c></rc>
    <rc><c>   2</c><c>Ge</c><c>     72.61000000</c><c>      4.00000000</c><c>  PAW_PBE Ge 05Jan2001                  </c></rc>
    <rc><c>   6</c><c>S </c><c>     32.06600000</c><c>      6.00000000</c><c>  PAW_PBE S 17Jan2003                   </c></rc>
   </set>
  </array>
 </atominfo>
 <structure name="initialpos" >
  <crystal>
   <varray name="basis" >
    <v>       3.22479600      -5.64383000       0.03157200 </v>
    <v>       3.22479600       5.64383000       0.03157200 </v>
    <v>      -2.10194600       0.00000000       6.07553700 </v>
   </varray>
   <i name="volume">    221.90106089 </i>
   <varray name="rec_basis" >
    <v>       0.15452516      -0.08859232       0.05346088 </v>
    <v>       0.15452516       0.08859232       0.05346088 </v>
    <v>      -0.00160600       0.00000000       0.16403888 </v>
   </varray>
  </crystal>
  <varray name="positions" >
   <v>       0.61998140       0.12117100       0.11953300 </v>
   <v>       0.12117100       0.61844300       0.61953300 </v>
   <v>       0.96295700       0.79032200       0.11881300 </v>
   <v>       0.79032200       0.96295700       0.61881300 </v>
   <v>       0.43973200       0.26728100       0.59904700 </v>
   <v>       0.26728100       0.43973200       0.09904700 </v>
   <v>       0.07949800       0.91167500       0.49736300 </v>
   <v>       0.57140300       0.41236400       0.98018400 </v>
   <v>       0.73711100       0.25006200       0.49504900 </v>
   <v>       0.41236400       0.57140300       0.48018400 </v>
   <v>       0.91167500       0.07949800       0.99736300 </v>
   <v>       0.25006200       0.73711100       0.99504900 </v>
  </varray>
 </structure>
 <calculation>
  <scstep>
   <time name="total">  243.93  243.83</time>
   <energy>
    <i name="alphaZ">    339.31929130 </i>
    <i name="ewald">  -9063.86968040 </i>
    <i name="hartreedc">  -8067.45644997 </i>
    <i name="XCdc">    369.89302370 </i>
    <i name="pawpsdc">  16957.88207770 </i>
    <i name="pawaedc"> -17450.62163322 </i>
    <i name="eentropy">     -0.00146280 </i>
    <i name="bandstr">  -1657.84942786 </i>
    <i name="atom">  18320.98302006 </i>
    <i name="e_fr_energy">     75.71990695 </i>
    <i name="e_wo_entrp">     75.72136974 </i>
    <i name="e_0_energy">     75.72039454 </i>
   </energy>
  </scstep>
  <scstep>
   <time name="total">  237.50  237.36</time>
   <energy>
    <i name="e_fr_energy">     -8.22551749 </i>
    <i name="e_wo_entrp">     -8.22420855 </i>
    <i name="e_0_energy">     -8.22508117 </i>
   </energy>
  </scstep>
  <scstep>
   <time name="total">  240.10  239.90</time>
   <energy>
    <i name="e_fr_energy">    -14.96458330 </i>
    <i name="e_wo_entrp">    -14.96486479 </i>
    <i name="e_0_energy">    -14.96467713 </i>
   </energy>
  </scstep>
  <scstep>
   <time name="total">  240.13  239.93</time>
   <energy>
    <i name="e_fr_energy">    -22.44353694 </i>
    <i name="e_wo_entrp">    -22.44389434 </i>
    <i name="e_0_energy">    -22.44365607 </i>
   </energy>
  </scstep>
  <scstep>
   <time name="total">  239.40  239.23</time>
   <energy>
    <i name="e_fr_energy">    -60.77714670 </i>
    <i name="e_wo_entrp">    -60.77776907 </i>
    <i name="e_0_energy">    -60.77735416 </i>
   </energy>
  </scstep>
  <scstep>
   <time name="total">  236.67  236.50</time>
   <energy>
    <i name="e_fr_energy">    -65.90905522 </i>
    <i name="e_wo_entrp">    -65.90970469 </i>
    <i name="e_0_energy">    -65.90927171 </i>
   </energy>
  </scstep>
  <scstep>
   <time name="total">  239.32  239.15</time>
   <energy>
    <i name="e_fr_energy">    -67.45813697 </i>
    <i name="e_wo_entrp">    -67.45857100 </i>
    <i name="e_0_energy">    -67.45828165 </i>
   </energy>
  </scstep>
  <scstep>
   <time name="total">  239.34  239.15</time>
   <energy>
    <i name="e_fr_energy">    -69.08126902 </i>
    <i name="e_wo_entrp">    -69.08200328 </i>
    <i name="e_0_energy">    -69.08151378 </i>
   </energy>
  </scstep>
  <scstep>
   <time name="total">  238.44  238.27</time>
   <energy>
    <i name="e_fr_energy">    -69.39405637 </i>
    <i name="e_wo_entrp">    -69.39492167 </i>
    <i name="e_0_energy">    -69.39434481 </i>
   </energy>
  </scstep>
  <scstep>
   <time name="total">  254.97  254.76</time>
   <energy>
    <i name="e_fr_energy">    -69.49839616 </i>
    <i name="e_wo_entrp">    -69.49910829 </i>
    <i name="e_0_energy">    -69.49863354 </i>
   </energy>
  </scstep>
  <scstep>
   <time name="total">  254.08  253.89</time>
   <energy>
    <i name="e_fr_energy">    -69.56842715 </i>
    <i name="e_wo_entrp">    -69.56903094 </i>
    <i name="e_0_energy">    -69.56862841 </i>
   </energy>
  </scstep>
  <scstep>
   <time name="total">  253.30  253.15</time>
   <energy>
    <i name="e_fr_energy">    -69.58082395 </i>
    <i name="e_wo_entrp">    -69.58137718 </i>
    <i name="e_0_energy">    -69.58100836 </i>
   </energy>
  </scstep>
  <scstep>
   <time name="total">  248.12  247.92</time>
   <energy>
    <i name="e_fr_energy">    -69.59054296 </i>
    <i name="e_wo_entrp">    -69.59108424 </i>
    <i name="e_0_energy">    -69.59072339 </i>
   </energy>
  </scstep>
  <scstep>
   <time name="total">  252.32  252.11</time>
   <energy>
    <i name="e_fr_energy">    -69.59302075 </i>
    <i name="e_wo_entrp">    -69.59357986 </i>
    <i name="e_0_energy">    -69.59320712 </i>
   </energy>
  </scstep>
  <scstep>
   <time name="total">  252.33  252.13</time>
   <energy>
    <i name="e_fr_energy">    -69.59453984 </i>
    <i name="e_wo_entrp">    -69.59511144 </i>
    <i name="e_0_energy">    -69.59473038 </i>
   </energy>
  </scstep>
  <scstep>
   <time name="total">  249.59  249.42</time>
   <energy>
    <i name="e_fr_energy">    -69.59511697 </i>
    <i name="e_wo_entrp">    -69.59568903 </i>
    <i name="e_0_energy">    -69.59530766 </i>
   </energy>
  </scstep>
  <scstep>
   <time name="total">  250.41  250.19</time>
   <energy>
    <i name="e_fr_energy">    -69.59529255 </i>
    <i name="e_wo_entrp">    -69.59586169 </i>
    <i name="e_0_energy">    -69.59548226 </i>
   </energy>
  </scstep>
  <scstep>
   <time name="total">  250.40  250.20</time>
   <energy>
    <i name="e_fr_energy">    -69.59541090 </i>
    <i name="e_wo_entrp">    -69.59597722 </i>
    <i name="e_0_energy">    -69.59559967 </i>
   </energy>
  </scstep>
  <scstep>
   <time name="total">  249.65  249.44</time>
   <energy>
    <i name="e_fr_energy">    -69.59544047 </i>
    <i name="e_wo_entrp">    -69.59600542 </i>
    <i name="e_0_energy">    -69.59562878 </i>
   </energy>
  </scstep>
  <scstep>
   <time name="total">  249.29  249.08</time>
   <energy>
    <i name="e_fr_energy">    -69.59546060 </i>
    <i name="e_wo_entrp">    -69.59602593 </i>
    <i name="e_0_energy">    -69.59564904 </i>
   </energy>
  </scstep>
  <scstep>
   <time name="total">  249.70  249.50</time>
   <energy>
    <i name="alphaZ">    339.31929130 </i>
    <i name="ewald">  -9063.86968040 </i>
    <i name="hartreedc">  -8150.23507062 </i>
    <i name="XCdc">    372.06856524 </i>
    <i name="pawpsdc">  15922.09081419 </i>
    <i name="pawaedc"> -16407.28426091 </i>
    <i name="eentropy">      0.00056593 </i>
    <i name="bandstr">  -1742.73480757 </i>
    <i name="atom">  18320.98302006 </i>
    <i name="e_fr_energy">    -69.59546817 </i>
    <i name="e_wo_entrp">    -69.59603411 </i>
    <i name="e_0_energy">    -69.59565682 </i>
   </energy>
  </scstep>
  <structure>
   <crystal>
    <varray name="basis" >
     <v>       3.22479600      -5.64383000       0.03157200 </v>
     <v>       3.22479600       5.64383000       0.03157200 </v>
     <v>      -2.10194600       0.00000000       6.07553700 </v>
    </varray>
    <i name="volume">    221.90106089 </i>
    <varray name="rec_basis" >
     <v>       0.15452516      -0.08859232       0.05346088 </v>
     <v>       0.15452516       0.08859232       0.05346088 </v>
     <v>      -0.00160600       0.00000000       0.16403888 </v>
    </varray>
   </crystal>
   <varray name="positions" >
    <v>       0.61998140       0.12117100       0.11953300 </v>
    <v>       0.12117100       0.61844300       0.61953300 </v>
    <v>       0.96295700       0.79032200       0.11881300 </v>
    <v>       0.79032200       0.96295700       0.61881300 </v>
    <v>       0.43973200       0.26728100       0.59904700 </v>
    <v>       0.26728100       0.43973200       0.09904700 </v>
    <v>       0.07949800       0.91167500       0.49736300 </v>
    <v>       0.57140300       0.41236400       0.98018400 </v>
    <v>       0.73711100       0.25006200       0.49504900 </v>
    <v>       0.41236400       0.57140300       0.48018400 </v>
    <v>       0.91167500       0.07949800       0.99736300 </v>
    <v>       0.25006200       0.73711100       0.99504900 </v>
   </varray>
  </structure>
  <varray name="forces" >
   <v>      -0.03280169       0.04204605       0.00315945 </v>
   <v>      -0.00248463       0.00053066       0.00079360 </v>
   <v>       0.00211039      -0.00330715       0.00104111 </v>
   <v>       0.00331697      -0.00113490      -0.00011400 </v>
   <v>       0.00147484       0.00616259       0.00314056 </v>
   <v>       0.00853316      -0.00734963       0.00144453 </v>
   <v>       0.00211633       0.00107446      -0.00176640 </v>
   <v>      -0.00442960      -0.01234587       0.00084198 </v>
   <v>      -0.00070286       0.00102314      -0.00110940 </v>
   <v>      -0.00041506       0.00641263       0.00056420 </v>
   <v>       0.01251378      -0.02868148      -0.01409233 </v>
   <v>       0.01076838      -0.00443050       0.00609669 </v>
  </varray>
  <energy>
   <i name="e_fr_energy">    -69.59546817 </i>
   <i name="e_wo_entrp">    -69.59565682 </i>
   <i name="e_0_energy">      0.00056593 </i>
  </energy>
  <time name="totalsc"> 5628.48 5625.79</time>
  <eigenvalues>
   <array>
    <dimension dim="1">band</dimension>
    <dimension dim="2">kpoint</dimension>
    <dimension dim="3">spin</dimension>
    <field>eigene</field>
    <field>occ</field>
    <set>
     <set comment="spin 1">
      <set comment="kpoint 1">
       <r>  -68.6461    1.0000 </r>
       <r>  -68.6450    1.0000 </r>
       <r>  -68.6339    1.0000 </r>
       <r>  -68.6336    1.0000 </r>
       <r>  -68.6130    1.0000 </r>
       <r>  -68.6129    1.0000 </r>
       <r>  -68.5955    1.0000 </r>
       <r>  -68.5950    1.0000 </r>
       <r>  -68.5783    1.0000 </r>
       <r>  -68.5778    1.0000 </r>
       <r>  -68.5613    1.0000 </r>
       <r>  -68.5610    1.0000 </r>
       <r>  -12.7203    1.0000 </r>
       <r>  -11.1304    1.0000 </r>
       <r>  -10.9153    1.0000 </r>
       <r>  -10.6036    1.0000 </r>
       <r>  -10.2517    1.0000 </r>
       <r>  -10.2366    1.0000 </r>
       <r>   -5.9849    1.0000 </r>
       <r>   -4.9838    1.0000 </r>
       <r>   -2.7586    1.0000 </r>
       <r>   -2.2087    1.0000 </r>
       <r>   -2.0684    1.0000 </r>
       <r>   -1.9229    1.0000 </r>
       <r>   -1.5781    1.0000 </r>
       <r>   -0.9858    1.0000 </r>
       <r>   -0.9520    1.0000 </r>
       <r>   -0.6846    1.0000 </r>
       <r>   -0.3998    1.0000 </r>
       <r>   -0.2796    1.0000 </r>
       <r>   -0.2575    1.0000 </r>
       <r>   -0.2343    1.0000 </r>
       <r>   -0.1900    1.0000 </r>
       <r>   -0.1580    1.0000 </r>
       <r>   -0.0416    1.0000 </r>
       <r>    0.0344    1.0000 </r>
       <r>    1.3509    1.0000 </r>
       <r>    1.3615    1.0000 </r>
       <r>    1.4128    1.0000 </r>
       <r>    1.4571    1.0000 </r>
       <r>    1.4711    1.0000 </r>
       <r>    1.4736    1.0000 </r>
       <r>    1.5206    1.0000 </r>
       <r>    1.5317    1.0000 </r>
       <r>    1.5748    1.0000 </r>
       <r>    1.7117    1.0000 </r>
       <r>    1.8921    1.0000 </r>
       <r>    1.9282    1.0000 </r>
       <r>    2.0594    1.0000 </r>
       <r>    2.6538    1.0000 </r>
       <r>    2.7271    1.0000 </r>
       <r>    3.0913    1.0000 </r>
       <r>    3.2177    1.0000 </r>
       <r>    4.0067    1.0049 </r>
       <r>    4.0364    1.0128 </r>
       <r>    4.1723    0.8615 </r>
       <r>    5.5391   -0.0000 </r>
       <r>    6.3573   -0.0000 </r>
       <r>    7.6300    0.0000 </r>
       <r>    7.9867    0.0000 </r>
       <r>    8.6186    0.0000 </r>
       <r>    8.7923    0.0000 </r>
       <r>    9.5739    0.0000 </r>
       <r>    9.7380    0.0000 </r>
       <r>    9.8140    0.0000 </r>
       <r>   10.4201    0.0000 </r>
       <r>   10.5808    0.0000 </r>
       <r>   10.6986    0.0000 </r>
       <r>   10.7125    0.0000 </r>
       <r>   11.2822    0.0000 </r>
       <r>   11.7099    0.0000 </r>
       <r>   12.3937    0.0000 </r>
       <r>   12.4521    0.0000 </r>
       <r>   12.7286    0.0000 </r>
       <r>   13.3220    0.0000 </r>
       <r>   13.3847    0.0000 </r>
       <r>   13.8342    0.0000 </r>
       <r>   13.8848    0.0000 </r>
       <r>   14.1461    0.0000 </r>
       <r>   14.1771    0.0000 </r>
      </set>
      <set comment="kpoint 2">
       <r>  -68.6461    1.0000 </r>
       <r>  -68.6450    1.0000 </r>
       <r>  -68.6338    1.0000 </r>
       <r>  -68.6335    1.0000 </r>
       <r>  -68.6129    1.0000 </r>
       <r>  -68.6128    1.0000 </r>
       <r>  -68.5956    1.0000 </r>
       <r>  -68.5950    1.0000 </r>
       <r>  -68.5782    1.0000 </r>
       <r>  -68.5778    1.0000 </r>
       <r>  -68.5612    1.0000 </r>
       <r>  -68.5610    1.0000 </r>
       <r>  -12.5951    1.0000 </r>
       <r>  -11.1294    1.0000 </r>
       <r>  -10.9799    1.0000 </r>
       <r>  -10.6778    1.0000 </r>
       <r>  -10.3651    1.0000 </r>
       <r>  -10.2801    1.0000 </r>
       <r>   -5.9333    1.0000 </r>
       <r>   -4.7730    1.0000 </r>
       <r>   -2.6434    1.0000 </r>
       <r>   -2.2521    1.0000 </r>
       <r>   -2.0855    1.0000 </r>
       <r>   -1.6902    1.0000 </r>
       <r>   -1.3482    1.0000 </r>
       <r>   -0.9982    1.0000 </r>
       <r>   -0.7675    1.0000 </r>
       <r>   -0.6244    1.0000 </r>
       <r>   -0.5528    1.0000 </r>
       <r>   -0.4389    1.0000 </r>
       <r>   -0.3603    1.0000 </r>
       <r>   -0.2427    1.0000 </r>
       <r>   -0.1924    1.0000 </r>
       <r>   -0.1690    1.0000 </r>
       <r>   -0.0470    1.0000 </r>
       <r>    0.0409    1.0000 </r>
       <r>    1.2783    1.0000 </r>
       <r>    1.3351    1.0000 </r>
       <r>    1.3540    1.0000 </r>
       <r>    1.3930    1.0000 </r>
       <r>    1.4272    1.0000 </r>
       <r>    1.4717    1.0000 </r>
       <r>    1.4976    1.0000 </r>
       <r>    1.5292    1.0000 </r>
       <r>    1.7247    1.0000 </r>
       <r>    1.8605    1.0000 </r>
       <r>    2.0574    1.0000 </r>
       <r>    2.0936    1.0000 </r>
       <r>    2.2314    1.0000 </r>
       <r>    2.4141    1.0000 </r>
       <r>    2.5545    1.0000 </r>
       <r>    2.8256    1.0000 </r>
       <r>    2.9502    1.0000 </r>
       <r>    3.2419    1.0000 </r>
       <r>    3.6616    1.0000 </r>
       <r>    4.0405    1.0144 </r>
       <r>    6.1714   -0.0000 </r>
       <r>    6.9055   -0.0000 </r>
       <r>    8.1383    0.0000 </r>
       <r>    8.2675    0.0000 </r>
       <r>    8.5941    0.0000 </r>
       <r>    9.0138    0.0000 </r>
       <r>    9.2439    0.0000 </r>
       <r>    9.5307    0.0000 </r>
       <r>    9.8633    0.0000 </r>
       <r>   10.3771    0.0000 </r>
       <r>   10.6357    0.0000 </r>
       <r>   10.8118    0.0000 </r>
       <r>   10.9384    0.0000 </r>
       <r>   11.1923    0.0000 </r>
       <r>   11.6596    0.0000 </r>
       <r>   11.7713    0.0000 </r>
       <r>   12.1174    0.0000 </r>
       <r>   12.4414    0.0000 </r>
       <r>   12.6178    0.0000 </r>
       <r>   13.0076    0.0000 </r>
       <r>   13.5052    0.0000 </r>
       <r>   13.8732    0.0000 </r>
       <r>   14.2138    0.0000 </r>
       <r>   14.7103    0.0000 </r>
      </set>
      <set comment="kpoint 3">
       <r>  -68.6460    1.0000 </r>
       <r>  -68.6449    1.0000 </r>
       <r>  -68.6338    1.0000 </r>
       <r>  -68.6334    1.0000 </r>
       <r>  -68.6128    1.0000 </r>
       <r>  -68.6128    1.0000 </r>
       <r>  -68.5955    1.0000 </r>
       <r>  -68.5950    1.0000 </r>
       <r>  -68.5782    1.0000 </r>
       <r>  -68.5777    1.0000 </r>
       <r>  -68.5611    1.0000 </r>
       <r>  -68.5608    1.0000 </r>
       <r>  -12.4352    1.0000 </r>
       <r>  -11.2518    1.0000 </r>
       <r>  -10.9544    1.0000 </r>
       <r>  -10.7649    1.0000 </r>
       <r>  -10.4253    1.0000 </r>
       <r>  -10.3617    1.0000 </r>
       <r>   -5.8710    1.0000 </r>
       <r>   -4.5476    1.0000 </r>
       <r>   -2.4909    1.0000 </r>
       <r>   -2.2450    1.0000 </r>
       <r>   -1.9471    1.0000 </r>
       <r>   -1.4642    1.0000 </r>
       <r>   -1.2261    1.0000 </r>
       <r>   -1.1020    1.0000 </r>
       <r>   -0.8993    1.0000 </r>
       <r>   -0.8676    1.0000 </r>
       <r>   -0.5993    1.0000 </r>
       <r>   -0.5381    1.0000 </r>
       <r>   -0.2745    1.0000 </r>
       <r>   -0.2060    1.0000 </r>
       <r>   -0.2020    1.0000 </r>
       <r>   -0.1417    1.0000 </r>
       <r>   -0.0315    1.0000 </r>
       <r>    0.0830    1.0000 </r>
       <r>    1.2535    1.0000 </r>
       <r>    1.3266    1.0000 </r>
       <r>    1.3480    1.0000 </r>
       <r>    1.3969    1.0000 </r>
       <r>    1.4711    1.0000 </r>
       <r>    1.4786    1.0000 </r>
       <r>    1.4999    1.0000 </r>
       <r>    1.5521    1.0000 </r>
       <r>    1.7515    1.0000 </r>
       <r>    1.7904    1.0000 </r>
       <r>    1.9680    1.0000 </r>
       <r>    2.1488    1.0000 </r>
       <r>    2.3226    1.0000 </r>
       <r>    2.3627    1.0000 </r>
       <r>    2.5546    1.0000 </r>
       <r>    2.6709    1.0000 </r>
       <r>    2.9371    1.0000 </r>
       <r>    3.0765    1.0000 </r>
       <r>    3.2486    1.0000 </r>
       <r>    3.8643    1.0000 </r>
       <r>    6.3857   -0.0000 </r>
       <r>    7.0964    0.0000 </r>
       <r>    7.9810    0.0000 </r>
       <r>    8.2051    0.0000 </r>
       <r>    8.5190    0.0000 </r>
       <r>    8.8198    0.0000 </r>
       <r>    9.3278    0.0000 </r>
       <r>    9.8897    0.0000 </r>
       <r>   10.0117    0.0000 </r>
       <r>   10.5161    0.0000 </r>
       <r>   10.6948    0.0000 </r>
       <r>   10.7946    0.0000 </r>
       <r>   11.1422    0.0000 </r>
       <r>   11.4072    0.0000 </r>
       <r>   11.6101    0.0000 </r>
       <r>   11.7734    0.0000 </r>
       <r>   11.9427    0.0000 </r>
       <r>   12.5053    0.0000 </r>
       <r>   12.7806    0.0000 </r>
       <r>   13.0002    0.0000 </r>
       <r>   13.3927    0.0000 </r>
       <r>   13.5403    0.0000 </r>
       <r>   13.9414    0.0000 </r>
       <r>   14.2702    0.0000 </r>
      </set>
      <set comment="kpoint 4">
       <r>  -68.6461    1.0000 </r>
       <r>  -68.6450    1.0000 </r>
       <r>  -68.6339    1.0000 </r>
       <r>  -68.6335    1.0000 </r>
       <r>  -68.6129    1.0000 </r>
       <r>  -68.6129    1.0000 </r>
       <r>  -68.5956    1.0000 </r>
       <r>  -68.5950    1.0000 </r>
       <r>  -68.5782    1.0000 </r>
       <r>  -68.5778    1.0000 </r>
       <r>  -68.5612    1.0000 </r>
       <r>  -68.5610    1.0000 </r>
       <r>  -12.5952    1.0000 </r>
       <r>  -11.1273    1.0000 </r>
       <r>  -10.9808    1.0000 </r>
       <r>  -10.6802    1.0000 </r>
       <r>  -10.3659    1.0000 </r>
       <r>  -10.2777    1.0000 </r>
       <r>   -5.9333    1.0000 </r>
       <r>   -4.7734    1.0000 </r>
       <r>   -2.6444    1.0000 </r>
       <r>   -2.2515    1.0000 </r>
       <r>   -2.0872    1.0000 </r>
       <r>   -1.6876    1.0000 </r>
       <r>   -1.3469    1.0000 </r>
       <r>   -0.9991    1.0000 </r>
       <r>   -0.7699    1.0000 </r>
       <r>   -0.6223    1.0000 </r>
       <r>   -0.5490    1.0000 </r>
       <r>   -0.4397    1.0000 </r>
       <r>   -0.3613    1.0000 </r>
       <r>   -0.2432    1.0000 </r>
       <r>   -0.1944    1.0000 </r>
       <r>   -0.1686    1.0000 </r>
       <r>   -0.0465    1.0000 </r>
       <r>    0.0391    1.0000 </r>
       <r>    1.2795    1.0000 </r>
       <r>    1.3347    1.0000 </r>
       <r>    1.3545    1.0000 </r>
       <r>    1.3919    1.0000 </r>
       <r>    1.4279    1.0000 </r>
       <r>    1.4715    1.0000 </r>
       <r>    1.4978    1.0000 </r>
       <r>    1.5304    1.0000 </r>
       <r>    1.7251    1.0000 </r>
       <r>    1.8580    1.0000 </r>
       <r>    2.0570    1.0000 </r>
       <r>    2.0939    1.0000 </r>
       <r>    2.2308    1.0000 </r>
       <r>    2.4133    1.0000 </r>
       <r>    2.5576    1.0000 </r>
       <r>    2.8274    1.0000 </r>
       <r>    2.9464    1.0000 </r>
       <r>    3.2412    1.0000 </r>
       <r>    3.6640    1.0000 </r>
       <r>    4.0402    1.0142 </r>
       <r>    6.1720   -0.0000 </r>
       <r>    6.9060   -0.0000 </r>
       <r>    8.1382    0.0000 </r>
       <r>    8.2684    0.0000 </r>
       <r>    8.5937    0.0000 </r>
       <r>    9.0136    0.0000 </r>
       <r>    9.2426    0.0000 </r>
       <r>    9.5307    0.0000 </r>
       <r>    9.8643    0.0000 </r>
       <r>   10.3764    0.0000 </r>
       <r>   10.6345    0.0000 </r>
       <r>   10.8157    0.0000 </r>
       <r>   10.9372    0.0000 </r>
       <r>   11.1892    0.0000 </r>
       <r>   11.6567    0.0000 </r>
       <r>   11.7719    0.0000 </r>
       <r>   12.1163    0.0000 </r>
       <r>   12.4410    0.0000 </r>
       <r>   12.6183    0.0000 </r>
       <r>   13.0106    0.0000 </r>
       <r>   13.5163    0.0000 </r>
       <r>   13.8983    0.0000 </r>
       <r>   14.2707    0.0000 </r>
       <r>   14.8414    0.0000 </r>
      </set>
      <set comment="kpoint 5">
       <r>  -68.6461    1.0000 </r>
       <r>  -68.6450    1.0000 </r>
       <r>  -68.6338    1.0000 </r>
       <r>  -68.6334    1.0000 </r>
       <r>  -68.6130    1.0000 </r>
       <r>  -68.6130    1.0000 </r>
       <r>  -68.5955    1.0000 </r>
       <r>  -68.5949    1.0000 </r>
       <r>  -68.5783    1.0000 </r>
       <r>  -68.5779    1.0000 </r>
       <r>  -68.5613    1.0000 </r>
       <r>  -68.5610    1.0000 </r>
       <r>  -12.4393    1.0000 </r>
       <r>  -11.1913    1.0000 </r>
       <r>  -10.9409    1.0000 </r>
       <r>  -10.8808    1.0000 </r>
       <r>  -10.3927    1.0000 </r>
       <r>  -10.3492    1.0000 </r>
       <r>   -5.8761    1.0000 </r>
       <r>   -4.5215    1.0000 </r>
       <r>   -2.4156    1.0000 </r>
       <r>   -2.2459    1.0000 </r>
       <r>   -1.7926    1.0000 </r>
       <r>   -1.6811    1.0000 </r>
       <r>   -1.3551    1.0000 </r>
       <r>   -1.3005    1.0000 </r>
       <r>   -1.0834    1.0000 </r>
       <r>   -0.6806    1.0000 </r>
       <r>   -0.5222    1.0000 </r>
       <r>   -0.2998    1.0000 </r>
       <r>   -0.2825    1.0000 </r>
       <r>   -0.2229    1.0000 </r>
       <r>   -0.1879    1.0000 </r>
       <r>   -0.1254    1.0000 </r>
       <r>   -0.0942    1.0000 </r>
       <r>    0.0804    1.0000 </r>
       <r>    1.2931    1.0000 </r>
       <r>    1.3109    1.0000 </r>
       <r>    1.4156    1.0000 </r>
       <r>    1.4259    1.0000 </r>
       <r>    1.4638    1.0000 </r>
       <r>    1.4820    1.0000 </r>
       <r>    1.4944    1.0000 </r>
       <r>    1.5702    1.0000 </r>
       <r>    1.6706    1.0000 </r>
       <r>    1.8786    1.0000 </r>
       <r>    1.9408    1.0000 </r>
       <r>    2.1355    1.0000 </r>
       <r>    2.2791    1.0000 </r>
       <r>    2.3219    1.0000 </r>
       <r>    2.5572    1.0000 </r>
       <r>    2.6507    1.0000 </r>
       <r>    2.9029    1.0000 </r>
       <r>    2.9462    1.0000 </r>
       <r>    3.6989    1.0000 </r>
       <r>    3.8336    1.0000 </r>
       <r>    6.1723   -0.0000 </r>
       <r>    6.9902    0.0000 </r>
       <r>    8.0047    0.0000 </r>
       <r>    8.3277    0.0000 </r>
       <r>    8.4342    0.0000 </r>
       <r>    8.5720    0.0000 </r>
       <r>    9.1463    0.0000 </r>
       <r>    9.2488    0.0000 </r>
       <r>   10.3618    0.0000 </r>
       <r>   10.4964    0.0000 </r>
       <r>   10.9201    0.0000 </r>
       <r>   11.1851    0.0000 </r>
       <r>   11.3278    0.0000 </r>
       <r>   11.5562    0.0000 </r>
       <r>   11.8157    0.0000 </r>
       <r>   11.9614    0.0000 </r>
       <r>   12.3132    0.0000 </r>
       <r>   12.5028    0.0000 </r>
       <r>   12.7104    0.0000 </r>
       <r>   12.9145    0.0000 </r>
       <r>   13.3375    0.0000 </r>
       <r>   13.4468    0.0000 </r>
       <r>   14.2575    0.0000 </r>
       <r>   14.3669    0.0000 </r>
      </set>
      <set comment="kpoint 6">
       <r>  -68.6459    1.0000 </r>
       <r>  -68.6448    1.0000 </r>
       <r>  -68.6338    1.0000 </r>
       <r>  -68.6335    1.0000 </r>
       <r>  -68.6128    1.0000 </r>
       <r>  -68.6128    1.0000 </r>
       <r>  -68.5955    1.0000 </r>
       <r>  -68.5950    1.0000 </r>
       <r>  -68.5781    1.0000 </r>
       <r>  -68.5777    1.0000 </r>
       <r>  -68.5611    1.0000 </r>
       <r>  -68.5608    1.0000 </r>
       <r>  -12.4397    1.0000 </r>
       <r>  -11.3551    1.0000 </r>
       <r>  -10.9361    1.0000 </r>
       <r>  -10.7401    1.0000 </r>
       <r>  -10.3872    1.0000 </r>
       <r>  -10.2742    1.0000 </r>
       <r>   -5.9479    1.0000 </r>
       <r>   -4.6425    1.0000 </r>
       <r>   -2.3897    1.0000 </r>
       <r>   -2.2247    1.0000 </r>
       <r>   -2.0584    1.0000 </r>
       <r>   -1.6399    1.0000 </r>
       <r>   -1.3618    1.0000 </r>
       <r>   -1.2815    1.0000 </r>
       <r>   -1.0242    1.0000 </r>
       <r>   -0.5144    1.0000 </r>
       <r>   -0.4864    1.0000 </r>
       <r>   -0.3305    1.0000 </r>
       <r>   -0.2840    1.0000 </r>
       <r>   -0.2131    1.0000 </r>
       <r>   -0.1498    1.0000 </r>
       <r>   -0.1330    1.0000 </r>
       <r>   -0.0120    1.0000 </r>
       <r>    0.1142    1.0000 </r>
       <r>    1.2463    1.0000 </r>
       <r>    1.3152    1.0000 </r>
       <r>    1.3822    1.0000 </r>
       <r>    1.4369    1.0000 </r>
       <r>    1.4620    1.0000 </r>
       <r>    1.4919    1.0000 </r>
       <r>    1.4965    1.0000 </r>
       <r>    1.5488    1.0000 </r>
       <r>    1.7498    1.0000 </r>
       <r>    1.8277    1.0000 </r>
       <r>    1.9221    1.0000 </r>
       <r>    2.1354    1.0000 </r>
       <r>    2.2214    1.0000 </r>
       <r>    2.3844    1.0000 </r>
       <r>    2.5620    1.0000 </r>
       <r>    2.7887    1.0000 </r>
       <r>    2.9793    1.0000 </r>
       <r>    3.3109    1.0000 </r>
       <r>    3.6018    1.0000 </r>
       <r>    3.7505    1.0000 </r>
       <r>    6.0878   -0.0000 </r>
       <r>    6.9391   -0.0000 </r>
       <r>    7.6125    0.0000 </r>
       <r>    8.0690    0.0000 </r>
       <r>    8.4110    0.0000 </r>
       <r>    8.6165    0.0000 </r>
       <r>    8.9825    0.0000 </r>
       <r>    9.1526    0.0000 </r>
       <r>   10.0875    0.0000 </r>
       <r>   10.3369    0.0000 </r>
       <r>   10.7323    0.0000 </r>
       <r>   11.1087    0.0000 </r>
       <r>   11.4598    0.0000 </r>
       <r>   11.5955    0.0000 </r>
       <r>   11.8012    0.0000 </r>
       <r>   12.0850    0.0000 </r>
       <r>   12.4763    0.0000 </r>
       <r>   12.9182    0.0000 </r>
       <r>   13.0324    0.0000 </r>
       <r>   13.8287    0.0000 </r>
       <r>   14.1928    0.0000 </r>
       <r>   14.6485    0.0000 </r>
       <r>   15.4319    0.0000 </r>
       <r>   15.6418    0.0000 </r>
      </set>
      <set comment="kpoint 7">
       <r>  -68.6461    1.0000 </r>
       <r>  -68.6450    1.0000 </r>
       <r>  -68.6338    1.0000 </r>
       <r>  -68.6335    1.0000 </r>
       <r>  -68.6128    1.0000 </r>
       <r>  -68.6128    1.0000 </r>
       <r>  -68.5955    1.0000 </r>
       <r>  -68.5950    1.0000 </r>
       <r>  -68.5782    1.0000 </r>
       <r>  -68.5777    1.0000 </r>
       <r>  -68.5612    1.0000 </r>
       <r>  -68.5610    1.0000 </r>
       <r>  -12.5982    1.0000 </r>
       <r>  -11.2522    1.0000 </r>
       <r>  -10.9894    1.0000 </r>
       <r>  -10.5728    1.0000 </r>
       <r>  -10.3653    1.0000 </r>
       <r>  -10.1817    1.0000 </r>
       <r>   -6.0102    1.0000 </r>
       <r>   -4.8951    1.0000 </r>
       <r>   -2.6457    1.0000 </r>
       <r>   -2.3131    1.0000 </r>
       <r>   -1.9710    1.0000 </r>
       <r>   -1.6460    1.0000 </r>
       <r>   -1.4948    1.0000 </r>
       <r>   -1.1838    1.0000 </r>
       <r>   -0.7896    1.0000 </r>
       <r>   -0.5885    1.0000 </r>
       <r>   -0.4510    1.0000 </r>
       <r>   -0.3314    1.0000 </r>
       <r>   -0.2951    1.0000 </r>
       <r>   -0.2306    1.0000 </r>
       <r>   -0.1756    1.0000 </r>
       <r>   -0.1318    1.0000 </r>
       <r>   -0.0073    1.0000 </r>
       <r>    0.0709    1.0000 </r>
       <r>    1.2591    1.0000 </r>
       <r>    1.3204    1.0000 </r>
       <r>    1.3652    1.0000 </r>
       <r>    1.4220    1.0000 </r>
       <r>    1.4311    1.0000 </r>
       <r>    1.4763    1.0000 </r>
       <r>    1.5034    1.0000 </r>
       <r>    1.5435    1.0000 </r>
       <r>    1.7253    1.0000 </r>
       <r>    1.8126    1.0000 </r>
       <r>    1.9951    1.0000 </r>
       <r>    2.0722    1.0000 </r>
       <r>    2.4170    1.0000 </r>
       <r>    2.4622    1.0000 </r>
       <r>    2.5293    1.0000 </r>
       <r>    2.8737    1.0000 </r>
       <r>    3.1420    1.0000 </r>
       <r>    3.2282    1.0000 </r>
       <r>    3.7831    1.0000 </r>
       <r>    4.0696    1.0271 </r>
       <r>    5.9799   -0.0000 </r>
       <r>    6.6885   -0.0000 </r>
       <r>    7.5344    0.0000 </r>
       <r>    8.2232    0.0000 </r>
       <r>    8.6184    0.0000 </r>
       <r>    8.9138    0.0000 </r>
       <r>    9.3062    0.0000 </r>
       <r>    9.4328    0.0000 </r>
       <r>    9.8038    0.0000 </r>
       <r>   10.2752    0.0000 </r>
       <r>   10.5421    0.0000 </r>
       <r>   10.8291    0.0000 </r>
       <r>   10.9712    0.0000 </r>
       <r>   11.3827    0.0000 </r>
       <r>   11.4711    0.0000 </r>
       <r>   11.7346    0.0000 </r>
       <r>   12.1018    0.0000 </r>
       <r>   12.6649    0.0000 </r>
       <r>   12.9407    0.0000 </r>
       <r>   13.1014    0.0000 </r>
       <r>   13.3504    0.0000 </r>
       <r>   13.5184    0.0000 </r>
       <r>   14.4760    0.0000 </r>
       <r>   14.7556    0.0000 </r>
      </set>
      <set comment="kpoint 8">
       <r>  -68.6460    1.0000 </r>
       <r>  -68.6448    1.0000 </r>
       <r>  -68.6338    1.0000 </r>
       <r>  -68.6334    1.0000 </r>
       <r>  -68.6128    1.0000 </r>
       <r>  -68.6128    1.0000 </r>
       <r>  -68.5955    1.0000 </r>
       <r>  -68.5950    1.0000 </r>
       <r>  -68.5782    1.0000 </r>
       <r>  -68.5778    1.0000 </r>
       <r>  -68.5611    1.0000 </r>
       <r>  -68.5608    1.0000 </r>
       <r>  -12.4357    1.0000 </r>
       <r>  -11.2482    1.0000 </r>
       <r>  -10.9552    1.0000 </r>
       <r>  -10.7705    1.0000 </r>
       <r>  -10.4258    1.0000 </r>
       <r>  -10.3577    1.0000 </r>
       <r>   -5.8711    1.0000 </r>
       <r>   -4.5485    1.0000 </r>
       <r>   -2.4939    1.0000 </r>
       <r>   -2.2442    1.0000 </r>
       <r>   -1.9452    1.0000 </r>
       <r>   -1.4642    1.0000 </r>
       <r>   -1.2233    1.0000 </r>
       <r>   -1.1033    1.0000 </r>
       <r>   -0.8987    1.0000 </r>
       <r>   -0.8681    1.0000 </r>
       <r>   -0.5972    1.0000 </r>
       <r>   -0.5351    1.0000 </r>
       <r>   -0.2752    1.0000 </r>
       <r>   -0.2097    1.0000 </r>
       <r>   -0.1999    1.0000 </r>
       <r>   -0.1443    1.0000 </r>
       <r>   -0.0284    1.0000 </r>
       <r>    0.0776    1.0000 </r>
       <r>    1.2546    1.0000 </r>
       <r>    1.3269    1.0000 </r>
       <r>    1.3471    1.0000 </r>
       <r>    1.3965    1.0000 </r>
       <r>    1.4705    1.0000 </r>
       <r>    1.4792    1.0000 </r>
       <r>    1.5003    1.0000 </r>
       <r>    1.5537    1.0000 </r>
       <r>    1.7531    1.0000 </r>
       <r>    1.7915    1.0000 </r>
       <r>    1.9687    1.0000 </r>
       <r>    2.1455    1.0000 </r>
       <r>    2.3174    1.0000 </r>
       <r>    2.3630    1.0000 </r>
       <r>    2.5551    1.0000 </r>
       <r>    2.6689    1.0000 </r>
       <r>    2.9383    1.0000 </r>
       <r>    3.0820    1.0000 </r>
       <r>    3.2493    1.0000 </r>
       <r>    3.8619    1.0000 </r>
       <r>    6.3867   -0.0000 </r>
       <r>    7.0987    0.0000 </r>
       <r>    7.9830    0.0000 </r>
       <r>    8.2037    0.0000 </r>
       <r>    8.5191    0.0000 </r>
       <r>    8.8200    0.0000 </r>
       <r>    9.3283    0.0000 </r>
       <r>    9.8867    0.0000 </r>
       <r>   10.0100    0.0000 </r>
       <r>   10.5178    0.0000 </r>
       <r>   10.6919    0.0000 </r>
       <r>   10.7937    0.0000 </r>
       <r>   11.1397    0.0000 </r>
       <r>   11.4069    0.0000 </r>
       <r>   11.6105    0.0000 </r>
       <r>   11.7760    0.0000 </r>
       <r>   11.9401    0.0000 </r>
       <r>   12.5089    0.0000 </r>
       <r>   12.8250    0.0000 </r>
       <r>   13.0292    0.0000 </r>
       <r>   13.5479    0.0000 </r>
       <r>   13.6850    0.0000 </r>
       <r>   14.5523    0.0000 </r>
       <r>   15.2456    0.0000 </r>
      </set>
      <set comment="kpoint 9">
       <r>  -68.6459    1.0000 </r>
       <r>  -68.6448    1.0000 </r>
       <r>  -68.6338    1.0000 </r>
       <r>  -68.6335    1.0000 </r>
       <r>  -68.6128    1.0000 </r>
       <r>  -68.6128    1.0000 </r>
       <r>  -68.5955    1.0000 </r>
       <r>  -68.5950    1.0000 </r>
       <r>  -68.5781    1.0000 </r>
       <r>  -68.5778    1.0000 </r>
       <r>  -68.5611    1.0000 </r>
       <r>  -68.5608    1.0000 </r>
       <r>  -12.4399    1.0000 </r>
       <r>  -11.3538    1.0000 </r>
       <r>  -10.9361    1.0000 </r>
       <r>  -10.7422    1.0000 </r>
       <r>  -10.3876    1.0000 </r>
       <r>  -10.2725    1.0000 </r>
       <r>   -5.9479    1.0000 </r>
       <r>   -4.6428    1.0000 </r>
       <r>   -2.3911    1.0000 </r>
       <r>   -2.2261    1.0000 </r>
       <r>   -2.0563    1.0000 </r>
       <r>   -1.6403    1.0000 </r>
       <r>   -1.3606    1.0000 </r>
       <r>   -1.2814    1.0000 </r>
       <r>   -1.0229    1.0000 </r>
       <r>   -0.5111    1.0000 </r>
       <r>   -0.4851    1.0000 </r>
       <r>   -0.3337    1.0000 </r>
       <r>   -0.2833    1.0000 </r>
       <r>   -0.2147    1.0000 </r>
       <r>   -0.1504    1.0000 </r>
       <r>   -0.1340    1.0000 </r>
       <r>   -0.0107    1.0000 </r>
       <r>    0.1121    1.0000 </r>
       <r>    1.2470    1.0000 </r>
       <r>    1.3149    1.0000 </r>
       <r>    1.3836    1.0000 </r>
       <r>    1.4362    1.0000 </r>
       <r>    1.4622    1.0000 </r>
       <r>    1.4918    1.0000 </r>
       <r>    1.4967    1.0000 </r>
       <r>    1.5493    1.0000 </r>
       <r>    1.7483    1.0000 </r>
       <r>    1.8280    1.0000 </r>
       <r>    1.9222    1.0000 </r>
       <r>    2.1361    1.0000 </r>
       <r>    2.2191    1.0000 </r>
       <r>    2.3854    1.0000 </r>
       <r>    2.5604    1.0000 </r>
       <r>    2.7905    1.0000 </r>
       <r>    2.9787    1.0000 </r>
       <r>    3.3136    1.0000 </r>
       <r>    3.6026    1.0000 </r>
       <r>    3.7486    1.0000 </r>
       <r>    6.0883   -0.0000 </r>
       <r>    6.9395   -0.0000 </r>
       <r>    7.6121    0.0000 </r>
       <r>    8.0694    0.0000 </r>
       <r>    8.4108    0.0000 </r>
       <r>    8.6169    0.0000 </r>
       <r>    8.9835    0.0000 </r>
       <r>    9.1516    0.0000 </r>
       <r>   10.0870    0.0000 </r>
       <r>   10.3357    0.0000 </r>
       <r>   10.7328    0.0000 </r>
       <r>   11.1099    0.0000 </r>
       <r>   11.4577    0.0000 </r>
       <r>   11.5767    0.0000 </r>
       <r>   11.7868    0.0000 </r>
       <r>   12.0312    0.0000 </r>
       <r>   12.5220    0.0000 </r>
       <r>   12.6826    0.0000 </r>
       <r>   12.9117    0.0000 </r>
       <r>   13.2092    0.0000 </r>
       <r>   14.2267    0.0000 </r>
       <r>   14.7633    0.0000 </r>
       <r>   15.2482    0.0000 </r>
       <r>   15.9075    0.0000 </r>
      </set>
      <set comment="kpoint 10">
       <r>  -68.6458    1.0000 </r>
       <r>  -68.6446    1.0000 </r>
       <r>  -68.6337    1.0000 </r>
       <r>  -68.6333    1.0000 </r>
       <r>  -68.6126    1.0000 </r>
       <r>  -68.6127    1.0000 </r>
       <r>  -68.5952    1.0000 </r>
       <r>  -68.5949    1.0000 </r>
       <r>  -68.5780    1.0000 </r>
       <r>  -68.5776    1.0000 </r>
       <r>  -68.5609    1.0000 </r>
       <r>  -68.5606    1.0000 </r>
       <r>  -12.4318    1.0000 </r>
       <r>  -11.5017    1.0000 </r>
       <r>  -10.9113    1.0000 </r>
       <r>  -10.6212    1.0000 </r>
       <r>  -10.3959    1.0000 </r>
       <r>  -10.2009    1.0000 </r>
       <r>   -6.0265    1.0000 </r>
       <r>   -4.8111    1.0000 </r>
       <r>   -2.3108    1.0000 </r>
       <r>   -2.2627    1.0000 </r>
       <r>   -2.0931    1.0000 </r>
       <r>   -1.7029    1.0000 </r>
       <r>   -1.2427    1.0000 </r>
       <r>   -1.1103    1.0000 </r>
       <r>   -0.8454    1.0000 </r>
       <r>   -0.7801    1.0000 </r>
       <r>   -0.7326    1.0000 </r>
       <r>   -0.2452    1.0000 </r>
       <r>   -0.1972    1.0000 </r>
       <r>   -0.1787    1.0000 </r>
       <r>   -0.1520    1.0000 </r>
       <r>   -0.0428    1.0000 </r>
       <r>   -0.0027    1.0000 </r>
       <r>    0.1851    1.0000 </r>
       <r>    1.2655    1.0000 </r>
       <r>    1.3181    1.0000 </r>
       <r>    1.3772    1.0000 </r>
       <r>    1.4142    1.0000 </r>
       <r>    1.4321    1.0000 </r>
       <r>    1.4935    1.0000 </r>
       <r>    1.5071    1.0000 </r>
       <r>    1.5489    1.0000 </r>
       <r>    1.7870    1.0000 </r>
       <r>    1.8478    1.0000 </r>
       <r>    1.9957    1.0000 </r>
       <r>    2.1505    1.0000 </r>
       <r>    2.2527    1.0000 </r>
       <r>    2.3382    1.0000 </r>
       <r>    2.5605    1.0000 </r>
       <r>    2.7605    1.0000 </r>
       <r>    2.7740    1.0000 </r>
       <r>    3.3690    1.0000 </r>
       <r>    3.7657    1.0000 </r>
       <r>    4.0062    1.0049 </r>
       <r>    5.8541   -0.0000 </r>
       <r>    6.7664   -0.0000 </r>
       <r>    7.0831    0.0000 </r>
       <r>    8.4117    0.0000 </r>
       <r>    8.5617    0.0000 </r>
       <r>    8.7705    0.0000 </r>
       <r>    9.1412    0.0000 </r>
       <r>    9.2423    0.0000 </r>
       <r>    9.9596    0.0000 </r>
       <r>   10.2850    0.0000 </r>
       <r>   10.7283    0.0000 </r>
       <r>   10.8249    0.0000 </r>
       <r>   10.8748    0.0000 </r>
       <r>   11.2766    0.0000 </r>
       <r>   11.7578    0.0000 </r>
       <r>   11.9169    0.0000 </r>
       <r>   11.9720    0.0000 </r>
       <r>   12.3673    0.0000 </r>
       <r>   12.5406    0.0000 </r>
       <r>   13.4555    0.0000 </r>
       <r>   14.2797    0.0000 </r>
       <r>   14.6669    0.0000 </r>
       <r>   16.7465    0.0000 </r>
       <r>   16.7529    0.0000 </r>
      </set>
      <set comment="kpoint 11">
       <r>  -68.6462    1.0000 </r>
       <r>  -68.6450    1.0000 </r>
       <r>  -68.6339    1.0000 </r>
       <r>  -68.6335    1.0000 </r>
       <r>  -68.6129    1.0000 </r>
       <r>  -68.6128    1.0000 </r>
       <r>  -68.5956    1.0000 </r>
       <r>  -68.5950    1.0000 </r>
       <r>  -68.5782    1.0000 </r>
       <r>  -68.5778    1.0000 </r>
       <r>  -68.5613    1.0000 </r>
       <r>  -68.5610    1.0000 </r>
       <r>  -12.6171    1.0000 </r>
       <r>  -11.4251    1.0000 </r>
       <r>  -10.7778    1.0000 </r>
       <r>  -10.6086    1.0000 </r>
       <r>  -10.2506    1.0000 </r>
       <r>  -10.2385    1.0000 </r>
       <r>   -5.8312    1.0000 </r>
       <r>   -5.0471    1.0000 </r>
       <r>   -2.5985    1.0000 </r>
       <r>   -2.3713    1.0000 </r>
       <r>   -1.9629    1.0000 </r>
       <r>   -1.7742    1.0000 </r>
       <r>   -1.4453    1.0000 </r>
       <r>   -1.1254    1.0000 </r>
       <r>   -1.0666    1.0000 </r>
       <r>   -0.7715    1.0000 </r>
       <r>   -0.4714    1.0000 </r>
       <r>   -0.2938    1.0000 </r>
       <r>   -0.2374    1.0000 </r>
       <r>   -0.2354    1.0000 </r>
       <r>   -0.1908    1.0000 </r>
       <r>   -0.1462    1.0000 </r>
       <r>   -0.0186    1.0000 </r>
       <r>    0.0247    1.0000 </r>
       <r>    1.3341    1.0000 </r>
       <r>    1.3808    1.0000 </r>
       <r>    1.4158    1.0000 </r>
       <r>    1.4397    1.0000 </r>
       <r>    1.4645    1.0000 </r>
       <r>    1.4665    1.0000 </r>
       <r>    1.5146    1.0000 </r>
       <r>    1.5450    1.0000 </r>
       <r>    1.6324    1.0000 </r>
       <r>    1.7592    1.0000 </r>
       <r>    1.7866    1.0000 </r>
       <r>    1.9508    1.0000 </r>
       <r>    2.0884    1.0000 </r>
       <r>    2.6580    1.0000 </r>
       <r>    2.7209    1.0000 </r>
       <r>    3.1959    1.0000 </r>
       <r>    3.2537    1.0000 </r>
       <r>    3.5205    1.0000 </r>
       <r>    3.8950    1.0000 </r>
       <r>    3.9755    1.0014 </r>
       <r>    6.0466   -0.0000 </r>
       <r>    6.4159   -0.0000 </r>
       <r>    7.8249    0.0000 </r>
       <r>    7.9077    0.0000 </r>
       <r>    8.3656    0.0000 </r>
       <r>    8.8191    0.0000 </r>
       <r>    9.7756    0.0000 </r>
       <r>    9.7957    0.0000 </r>
       <r>   10.0636    0.0000 </r>
       <r>   10.5835    0.0000 </r>
       <r>   10.6430    0.0000 </r>
       <r>   10.8137    0.0000 </r>
       <r>   10.8590    0.0000 </r>
       <r>   11.4933    0.0000 </r>
       <r>   11.5575    0.0000 </r>
       <r>   12.0278    0.0000 </r>
       <r>   12.5797    0.0000 </r>
       <r>   12.7766    0.0000 </r>
       <r>   12.9135    0.0000 </r>
       <r>   13.2045    0.0000 </r>
       <r>   13.5365    0.0000 </r>
       <r>   13.8213    0.0000 </r>
       <r>   14.1955    0.0000 </r>
       <r>   14.6996    0.0000 </r>
      </set>
      <set comment="kpoint 12">
       <r>  -68.6461    1.0000 </r>
       <r>  -68.6450    1.0000 </r>
       <r>  -68.6338    1.0000 </r>
       <r>  -68.6335    1.0000 </r>
       <r>  -68.6129    1.0000 </r>
       <r>  -68.6129    1.0000 </r>
       <r>  -68.5955    1.0000 </r>
       <r>  -68.5950    1.0000 </r>
       <r>  -68.5782    1.0000 </r>
       <r>  -68.5778    1.0000 </r>
       <r>  -68.5612    1.0000 </r>
       <r>  -68.5609    1.0000 </r>
       <r>  -12.4577    1.0000 </r>
       <r>  -11.4670    1.0000 </r>
       <r>  -10.8635    1.0000 </r>
       <r>  -10.6900    1.0000 </r>
       <r>  -10.3741    1.0000 </r>
       <r>  -10.2463    1.0000 </r>
       <r>   -5.7667    1.0000 </r>
       <r>   -4.8038    1.0000 </r>
       <r>   -2.4422    1.0000 </r>
       <r>   -2.2329    1.0000 </r>
       <r>   -1.8521    1.0000 </r>
       <r>   -1.7137    1.0000 </r>
       <r>   -1.4344    1.0000 </r>
       <r>   -1.1903    1.0000 </r>
       <r>   -0.8894    1.0000 </r>
       <r>   -0.7455    1.0000 </r>
       <r>   -0.6049    1.0000 </r>
       <r>   -0.5243    1.0000 </r>
       <r>   -0.3096    1.0000 </r>
       <r>   -0.2419    1.0000 </r>
       <r>   -0.1725    1.0000 </r>
       <r>   -0.1241    1.0000 </r>
       <r>   -0.0536    1.0000 </r>
       <r>    0.0606    1.0000 </r>
       <r>    1.3018    1.0000 </r>
       <r>    1.3361    1.0000 </r>
       <r>    1.3694    1.0000 </r>
       <r>    1.4314    1.0000 </r>
       <r>    1.4462    1.0000 </r>
       <r>    1.4788    1.0000 </r>
       <r>    1.5206    1.0000 </r>
       <r>    1.5466    1.0000 </r>
       <r>    1.6433    1.0000 </r>
       <r>    1.8720    1.0000 </r>
       <r>    1.9784    1.0000 </r>
       <r>    2.0480    1.0000 </r>
       <r>    2.1942    1.0000 </r>
       <r>    2.4758    1.0000 </r>
       <r>    2.5932    1.0000 </r>
       <r>    2.8383    1.0000 </r>
       <r>    2.9632    1.0000 </r>
       <r>    3.1346    1.0000 </r>
       <r>    3.5690    1.0000 </r>
       <r>    3.7247    1.0000 </r>
       <r>    6.4423   -0.0000 </r>
       <r>    6.9573    0.0000 </r>
       <r>    8.1713    0.0000 </r>
       <r>    8.2468    0.0000 </r>
       <r>    8.8333    0.0000 </r>
       <r>    9.1289    0.0000 </r>
       <r>    9.4644    0.0000 </r>
       <r>    9.7963    0.0000 </r>
       <r>   10.0847    0.0000 </r>
       <r>   10.2978    0.0000 </r>
       <r>   10.7412    0.0000 </r>
       <r>   11.0769    0.0000 </r>
       <r>   11.2907    0.0000 </r>
       <r>   11.4255    0.0000 </r>
       <r>   11.6343    0.0000 </r>
       <r>   11.7245    0.0000 </r>
       <r>   12.0860    0.0000 </r>
       <r>   12.2670    0.0000 </r>
       <r>   12.5420    0.0000 </r>
       <r>   12.6585    0.0000 </r>
       <r>   12.9538    0.0000 </r>
       <r>   13.0598    0.0000 </r>
       <r>   13.6381    0.0000 </r>
       <r>   14.6932    0.0000 </r>
      </set>
      <set comment="kpoint 13">
       <r>  -68.6459    1.0000 </r>
       <r>  -68.6448    1.0000 </r>
       <r>  -68.6338    1.0000 </r>
       <r>  -68.6334    1.0000 </r>
       <r>  -68.6128    1.0000 </r>
       <r>  -68.6128    1.0000 </r>
       <r>  -68.5954    1.0000 </r>
       <r>  -68.5949    1.0000 </r>
       <r>  -68.5781    1.0000 </r>
       <r>  -68.5778    1.0000 </r>
       <r>  -68.5611    1.0000 </r>
       <r>  -68.5609    1.0000 </r>
       <r>  -12.3550    1.0000 </r>
       <r>  -11.4138    1.0000 </r>
       <r>  -10.9537    1.0000 </r>
       <r>  -10.6840    1.0000 </r>
       <r>  -10.4781    1.0000 </r>
       <r>  -10.3363    1.0000 </r>
       <r>   -5.7519    1.0000 </r>
       <r>   -4.7215    1.0000 </r>
       <r>   -2.5214    1.0000 </r>
       <r>   -2.1837    1.0000 </r>
       <r>   -1.9539    1.0000 </r>
       <r>   -1.5349    1.0000 </r>
       <r>   -1.3029    1.0000 </r>
       <r>   -1.0977    1.0000 </r>
       <r>   -0.8696    1.0000 </r>
       <r>   -0.7573    1.0000 </r>
       <r>   -0.5482    1.0000 </r>
       <r>   -0.4459    1.0000 </r>
       <r>   -0.2911    1.0000 </r>
       <r>   -0.1793    1.0000 </r>
       <r>   -0.1461    1.0000 </r>
       <r>   -0.1038    1.0000 </r>
       <r>   -0.0457    1.0000 </r>
       <r>    0.0223    1.0000 </r>
       <r>    1.2715    1.0000 </r>
       <r>    1.2978    1.0000 </r>
       <r>    1.3525    1.0000 </r>
       <r>    1.4294    1.0000 </r>
       <r>    1.4519    1.0000 </r>
       <r>    1.4801    1.0000 </r>
       <r>    1.5008    1.0000 </r>
       <r>    1.5872    1.0000 </r>
       <r>    1.7178    1.0000 </r>
       <r>    1.9310    1.0000 </r>
       <r>    2.0761    1.0000 </r>
       <r>    2.1485    1.0000 </r>
       <r>    2.2681    1.0000 </r>
       <r>    2.4035    1.0000 </r>
       <r>    2.5695    1.0000 </r>
       <r>    2.5987    1.0000 </r>
       <r>    2.8967    1.0000 </r>
       <r>    3.0082    1.0000 </r>
       <r>    3.3589    1.0000 </r>
       <r>    3.9006    1.0000 </r>
       <r>    6.3658   -0.0000 </r>
       <r>    6.8967   -0.0000 </r>
       <r>    7.5736    0.0000 </r>
       <r>    8.0846    0.0000 </r>
       <r>    8.5474    0.0000 </r>
       <r>    8.7979    0.0000 </r>
       <r>    9.2803    0.0000 </r>
       <r>    9.6284    0.0000 </r>
       <r>    9.9318    0.0000 </r>
       <r>   10.2763    0.0000 </r>
       <r>   10.6583    0.0000 </r>
       <r>   10.9302    0.0000 </r>
       <r>   10.9732    0.0000 </r>
       <r>   11.2796    0.0000 </r>
       <r>   11.5203    0.0000 </r>
       <r>   11.7877    0.0000 </r>
       <r>   12.2492    0.0000 </r>
       <r>   12.5462    0.0000 </r>
       <r>   13.1050    0.0000 </r>
       <r>   13.5174    0.0000 </r>
       <r>   14.3028    0.0000 </r>
       <r>   14.6645    0.0000 </r>
       <r>   15.1259    0.0000 </r>
       <r>   16.2704    0.0000 </r>
      </set>
      <set comment="kpoint 14">
       <r>  -68.6461    1.0000 </r>
       <r>  -68.6450    1.0000 </r>
       <r>  -68.6338    1.0000 </r>
       <r>  -68.6335    1.0000 </r>
       <r>  -68.6129    1.0000 </r>
       <r>  -68.6129    1.0000 </r>
       <r>  -68.5956    1.0000 </r>
       <r>  -68.5950    1.0000 </r>
       <r>  -68.5783    1.0000 </r>
       <r>  -68.5778    1.0000 </r>
       <r>  -68.5613    1.0000 </r>
       <r>  -68.5610    1.0000 </r>
       <r>  -12.5406    1.0000 </r>
       <r>  -11.3367    1.0000 </r>
       <r>  -10.8742    1.0000 </r>
       <r>  -10.6060    1.0000 </r>
       <r>  -10.3980    1.0000 </r>
       <r>  -10.2853    1.0000 </r>
       <r>   -5.8247    1.0000 </r>
       <r>   -4.9746    1.0000 </r>
       <r>   -2.6636    1.0000 </r>
       <r>   -2.4535    1.0000 </r>
       <r>   -2.0373    1.0000 </r>
       <r>   -1.5767    1.0000 </r>
       <r>   -1.1731    1.0000 </r>
       <r>   -0.9849    1.0000 </r>
       <r>   -0.7930    1.0000 </r>
       <r>   -0.6525    1.0000 </r>
       <r>   -0.5189    1.0000 </r>
       <r>   -0.3902    1.0000 </r>
       <r>   -0.2690    1.0000 </r>
       <r>   -0.2552    1.0000 </r>
       <r>   -0.1918    1.0000 </r>
       <r>   -0.1436    1.0000 </r>
       <r>   -0.0475    1.0000 </r>
       <r>    0.0151    1.0000 </r>
       <r>    1.2892    1.0000 </r>
       <r>    1.3104    1.0000 </r>
       <r>    1.3886    1.0000 </r>
       <r>    1.4090    1.0000 </r>
       <r>    1.4340    1.0000 </r>
       <r>    1.4558    1.0000 </r>
       <r>    1.4919    1.0000 </r>
       <r>    1.5647    1.0000 </r>
       <r>    1.6876    1.0000 </r>
       <r>    1.9150    1.0000 </r>
       <r>    1.9865    1.0000 </r>
       <r>    2.1458    1.0000 </r>
       <r>    2.3365    1.0000 </r>
       <r>    2.5649    1.0000 </r>
       <r>    2.6161    1.0000 </r>
       <r>    2.8295    1.0000 </r>
       <r>    2.9742    1.0000 </r>
       <r>    3.2481    1.0000 </r>
       <r>    3.6819    1.0000 </r>
       <r>    3.9447    1.0003 </r>
       <r>    6.1793   -0.0000 </r>
       <r>    6.6377   -0.0000 </r>
       <r>    7.7663    0.0000 </r>
       <r>    7.9723    0.0000 </r>
       <r>    8.2151    0.0000 </r>
       <r>    8.5623    0.0000 </r>
       <r>    9.3799    0.0000 </r>
       <r>    9.5770    0.0000 </r>
       <r>    9.9082    0.0000 </r>
       <r>   10.2522    0.0000 </r>
       <r>   10.5447    0.0000 </r>
       <r>   10.7884    0.0000 </r>
       <r>   10.8412    0.0000 </r>
       <r>   11.0690    0.0000 </r>
       <r>   11.5690    0.0000 </r>
       <r>   12.0232    0.0000 </r>
       <r>   12.5278    0.0000 </r>
       <r>   12.7535    0.0000 </r>
       <r>   12.9517    0.0000 </r>
       <r>   13.3074    0.0000 </r>
       <r>   13.4116    0.0000 </r>
       <r>   13.7385    0.0000 </r>
       <r>   13.8466    0.0000 </r>
       <r>   14.7268    0.0000 </r>
      </set>
      <set comment="kpoint 15">
       <r>  -68.6461    1.0000 </r>
       <r>  -68.6450    1.0000 </r>
       <r>  -68.6338    1.0000 </r>
       <r>  -68.6335    1.0000 </r>
       <r>  -68.6129    1.0000 </r>
       <r>  -68.6129    1.0000 </r>
       <r>  -68.5955    1.0000 </r>
       <r>  -68.5950    1.0000 </r>
       <r>  -68.5783    1.0000 </r>
       <r>  -68.5778    1.0000 </r>
       <r>  -68.5612    1.0000 </r>
       <r>  -68.5609    1.0000 </r>
       <r>  -12.4579    1.0000 </r>
       <r>  -11.4663    1.0000 </r>
       <r>  -10.8644    1.0000 </r>
       <r>  -10.6898    1.0000 </r>
       <r>  -10.3748    1.0000 </r>
       <r>  -10.2450    1.0000 </r>
       <r>   -5.7668    1.0000 </r>
       <r>   -4.8042    1.0000 </r>
       <r>   -2.4440    1.0000 </r>
       <r>   -2.2327    1.0000 </r>
       <r>   -1.8496    1.0000 </r>
       <r>   -1.7129    1.0000 </r>
       <r>   -1.4348    1.0000 </r>
       <r>   -1.1895    1.0000 </r>
       <r>   -0.8928    1.0000 </r>
       <r>   -0.7453    1.0000 </r>
       <r>   -0.6057    1.0000 </r>
       <r>   -0.5181    1.0000 </r>
       <r>   -0.3135    1.0000 </r>
       <r>   -0.2420    1.0000 </r>
       <r>   -0.1751    1.0000 </r>
       <r>   -0.1229    1.0000 </r>
       <r>   -0.0527    1.0000 </r>
       <r>    0.0601    1.0000 </r>
       <r>    1.3017    1.0000 </r>
       <r>    1.3359    1.0000 </r>
       <r>    1.3697    1.0000 </r>
       <r>    1.4324    1.0000 </r>
       <r>    1.4462    1.0000 </r>
       <r>    1.4785    1.0000 </r>
       <r>    1.5212    1.0000 </r>
       <r>    1.5467    1.0000 </r>
       <r>    1.6431    1.0000 </r>
       <r>    1.8702    1.0000 </r>
       <r>    1.9773    1.0000 </r>
       <r>    2.0479    1.0000 </r>
       <r>    2.1955    1.0000 </r>
       <r>    2.4746    1.0000 </r>
       <r>    2.5967    1.0000 </r>
       <r>    2.8395    1.0000 </r>
       <r>    2.9634    1.0000 </r>
       <r>    3.1328    1.0000 </r>
       <r>    3.5676    1.0000 </r>
       <r>    3.7255    1.0000 </r>
       <r>    6.4431   -0.0000 </r>
       <r>    6.9574    0.0000 </r>
       <r>    8.1718    0.0000 </r>
       <r>    8.2464    0.0000 </r>
       <r>    8.8344    0.0000 </r>
       <r>    9.1294    0.0000 </r>
       <r>    9.4633    0.0000 </r>
       <r>    9.7965    0.0000 </r>
       <r>   10.0840    0.0000 </r>
       <r>   10.2987    0.0000 </r>
       <r>   10.7397    0.0000 </r>
       <r>   11.0780    0.0000 </r>
       <r>   11.2885    0.0000 </r>
       <r>   11.4235    0.0000 </r>
       <r>   11.6322    0.0000 </r>
       <r>   11.7237    0.0000 </r>
       <r>   12.0851    0.0000 </r>
       <r>   12.2673    0.0000 </r>
       <r>   12.5430    0.0000 </r>
       <r>   12.6565    0.0000 </r>
       <r>   12.9556    0.0000 </r>
       <r>   13.0598    0.0000 </r>
       <r>   13.6567    0.0000 </r>
       <r>   14.6994    0.0000 </r>
      </set>
      <set comment="kpoint 16">
       <r>  -68.6460    1.0000 </r>
       <r>  -68.6449    1.0000 </r>
       <r>  -68.6337    1.0000 </r>
       <r>  -68.6333    1.0000 </r>
       <r>  -68.6128    1.0000 </r>
       <r>  -68.6128    1.0000 </r>
       <r>  -68.5954    1.0000 </r>
       <r>  -68.5949    1.0000 </r>
       <r>  -68.5781    1.0000 </r>
       <r>  -68.5777    1.0000 </r>
       <r>  -68.5611    1.0000 </r>
       <r>  -68.5608    1.0000 </r>
       <r>  -12.3257    1.0000 </r>
       <r>  -11.4751    1.0000 </r>
       <r>  -10.8662    1.0000 </r>
       <r>  -10.8546    1.0000 </r>
       <r>  -10.4097    1.0000 </r>
       <r>  -10.2857    1.0000 </r>
       <r>   -5.7480    1.0000 </r>
       <r>   -4.6914    1.0000 </r>
       <r>   -2.2392    1.0000 </r>
       <r>   -2.1388    1.0000 </r>
       <r>   -1.9290    1.0000 </r>
       <r>   -1.8492    1.0000 </r>
       <r>   -1.4542    1.0000 </r>
       <r>   -1.3979    1.0000 </r>
       <r>   -1.0413    1.0000 </r>
       <r>   -0.5214    1.0000 </r>
       <r>   -0.4597    1.0000 </r>
       <r>   -0.3475    1.0000 </r>
       <r>   -0.2472    1.0000 </r>
       <r>   -0.2172    1.0000 </r>
       <r>   -0.1616    1.0000 </r>
       <r>   -0.1116    1.0000 </r>
       <r>   -0.0921    1.0000 </r>
       <r>    0.0796    1.0000 </r>
       <r>    1.2618    1.0000 </r>
       <r>    1.3480    1.0000 </r>
       <r>    1.3970    1.0000 </r>
       <r>    1.4355    1.0000 </r>
       <r>    1.4523    1.0000 </r>
       <r>    1.5097    1.0000 </r>
       <r>    1.5358    1.0000 </r>
       <r>    1.5426    1.0000 </r>
       <r>    1.7529    1.0000 </r>
       <r>    1.8168    1.0000 </r>
       <r>    2.0400    1.0000 </r>
       <r>    2.1348    1.0000 </r>
       <r>    2.2872    1.0000 </r>
       <r>    2.3104    1.0000 </r>
       <r>    2.5208    1.0000 </r>
       <r>    2.7701    1.0000 </r>
       <r>    2.8987    1.0000 </r>
       <r>    3.2611    1.0000 </r>
       <r>    3.4964    1.0000 </r>
       <r>    3.8010    1.0000 </r>
       <r>    6.1850   -0.0000 </r>
       <r>    6.8416   -0.0000 </r>
       <r>    7.8268    0.0000 </r>
       <r>    8.0444    0.0000 </r>
       <r>    8.1903    0.0000 </r>
       <r>    8.7276    0.0000 </r>
       <r>    9.1536    0.0000 </r>
       <r>    9.3067    0.0000 </r>
       <r>   10.2187    0.0000 </r>
       <r>   10.4411    0.0000 </r>
       <r>   10.5931    0.0000 </r>
       <r>   11.0049    0.0000 </r>
       <r>   11.2390    0.0000 </r>
       <r>   11.4882    0.0000 </r>
       <r>   11.8125    0.0000 </r>
       <r>   12.1697    0.0000 </r>
       <r>   12.2064    0.0000 </r>
       <r>   12.5760    0.0000 </r>
       <r>   12.6908    0.0000 </r>
       <r>   13.1171    0.0000 </r>
       <r>   13.4159    0.0000 </r>
       <r>   13.8812    0.0000 </r>
       <r>   14.0053    0.0000 </r>
       <r>   14.5275    0.0000 </r>
      </set>
      <set comment="kpoint 17">
       <r>  -68.6459    1.0000 </r>
       <r>  -68.6447    1.0000 </r>
       <r>  -68.6337    1.0000 </r>
       <r>  -68.6335    1.0000 </r>
       <r>  -68.6128    1.0000 </r>
       <r>  -68.6128    1.0000 </r>
       <r>  -68.5955    1.0000 </r>
       <r>  -68.5949    1.0000 </r>
       <r>  -68.5781    1.0000 </r>
       <r>  -68.5778    1.0000 </r>
       <r>  -68.5610    1.0000 </r>
       <r>  -68.5608    1.0000 </r>
       <r>  -12.3726    1.0000 </r>
       <r>  -11.4737    1.0000 </r>
       <r>  -10.9357    1.0000 </r>
       <r>  -10.6554    1.0000 </r>
       <r>  -10.4181    1.0000 </r>
       <r>  -10.3067    1.0000 </r>
       <r>   -5.8008    1.0000 </r>
       <r>   -4.8364    1.0000 </r>
       <r>   -2.5254    1.0000 </r>
       <r>   -2.2435    1.0000 </r>
       <r>   -1.8708    1.0000 </r>
       <r>   -1.6433    1.0000 </r>
       <r>   -1.5060    1.0000 </r>
       <r>   -1.3076    1.0000 </r>
       <r>   -0.9020    1.0000 </r>
       <r>   -0.5357    1.0000 </r>
       <r>   -0.3793    1.0000 </r>
       <r>   -0.3505    1.0000 </r>
       <r>   -0.2233    1.0000 </r>
       <r>   -0.1782    1.0000 </r>
       <r>   -0.1568    1.0000 </r>
       <r>   -0.0759    1.0000 </r>
       <r>   -0.0283    1.0000 </r>
       <r>    0.0798    1.0000 </r>
       <r>    1.1894    1.0000 </r>
       <r>    1.3639    1.0000 </r>
       <r>    1.3978    1.0000 </r>
       <r>    1.4419    1.0000 </r>
       <r>    1.4634    1.0000 </r>
       <r>    1.5067    1.0000 </r>
       <r>    1.5196    1.0000 </r>
       <r>    1.5847    1.0000 </r>
       <r>    1.7397    1.0000 </r>
       <r>    1.8180    1.0000 </r>
       <r>    2.0370    1.0000 </r>
       <r>    2.2364    1.0000 </r>
       <r>    2.2692    1.0000 </r>
       <r>    2.3621    1.0000 </r>
       <r>    2.4891    1.0000 </r>
       <r>    2.6703    1.0000 </r>
       <r>    3.0523    1.0000 </r>
       <r>    3.4109    1.0000 </r>
       <r>    3.7271    1.0000 </r>
       <r>    3.8637    1.0000 </r>
       <r>    5.9330   -0.0000 </r>
       <r>    6.6138   -0.0000 </r>
       <r>    7.3538    0.0000 </r>
       <r>    7.9424    0.0000 </r>
       <r>    8.0664    0.0000 </r>
       <r>    8.7246    0.0000 </r>
       <r>    8.9060    0.0000 </r>
       <r>    9.1386    0.0000 </r>
       <r>    9.8449    0.0000 </r>
       <r>   10.3276    0.0000 </r>
       <r>   10.5570    0.0000 </r>
       <r>   10.9273    0.0000 </r>
       <r>   11.2233    0.0000 </r>
       <r>   11.4159    0.0000 </r>
       <r>   11.7510    0.0000 </r>
       <r>   12.0027    0.0000 </r>
       <r>   12.4965    0.0000 </r>
       <r>   12.8322    0.0000 </r>
       <r>   13.2049    0.0000 </r>
       <r>   14.1821    0.0000 </r>
       <r>   14.7098    0.0000 </r>
       <r>   15.1632    0.0000 </r>
       <r>   15.9139    0.0000 </r>
       <r>   16.5708    0.0000 </r>
      </set>
      <set comment="kpoint 18">
       <r>  -68.6461    1.0000 </r>
       <r>  -68.6449    1.0000 </r>
       <r>  -68.6339    1.0000 </r>
       <r>  -68.6336    1.0000 </r>
       <r>  -68.6128    1.0000 </r>
       <r>  -68.6129    1.0000 </r>
       <r>  -68.5956    1.0000 </r>
       <r>  -68.5951    1.0000 </r>
       <r>  -68.5782    1.0000 </r>
       <r>  -68.5778    1.0000 </r>
       <r>  -68.5612    1.0000 </r>
       <r>  -68.5609    1.0000 </r>
       <r>  -12.4992    1.0000 </r>
       <r>  -11.4251    1.0000 </r>
       <r>  -10.9474    1.0000 </r>
       <r>  -10.5829    1.0000 </r>
       <r>  -10.3745    1.0000 </r>
       <r>  -10.2091    1.0000 </r>
       <r>   -5.8287    1.0000 </r>
       <r>   -4.9406    1.0000 </r>
       <r>   -2.5710    1.0000 </r>
       <r>   -2.3658    1.0000 </r>
       <r>   -1.9176    1.0000 </r>
       <r>   -1.5932    1.0000 </r>
       <r>   -1.4161    1.0000 </r>
       <r>   -1.1225    1.0000 </r>
       <r>   -0.8154    1.0000 </r>
       <r>   -0.6764    1.0000 </r>
       <r>   -0.5367    1.0000 </r>
       <r>   -0.4700    1.0000 </r>
       <r>   -0.2508    1.0000 </r>
       <r>   -0.1953    1.0000 </r>
       <r>   -0.1682    1.0000 </r>
       <r>   -0.1187    1.0000 </r>
       <r>   -0.0363    1.0000 </r>
       <r>    0.0586    1.0000 </r>
       <r>    1.2804    1.0000 </r>
       <r>    1.3241    1.0000 </r>
       <r>    1.3447    1.0000 </r>
       <r>    1.4340    1.0000 </r>
       <r>    1.4522    1.0000 </r>
       <r>    1.4686    1.0000 </r>
       <r>    1.4939    1.0000 </r>
       <r>    1.5569    1.0000 </r>
       <r>    1.7258    1.0000 </r>
       <r>    1.8425    1.0000 </r>
       <r>    1.9701    1.0000 </r>
       <r>    2.0987    1.0000 </r>
       <r>    2.3358    1.0000 </r>
       <r>    2.4503    1.0000 </r>
       <r>    2.5421    1.0000 </r>
       <r>    2.8512    1.0000 </r>
       <r>    3.0525    1.0000 </r>
       <r>    3.2632    1.0000 </r>
       <r>    3.6714    1.0000 </r>
       <r>    3.7825    1.0000 </r>
       <r>    6.2623   -0.0000 </r>
       <r>    6.7989   -0.0000 </r>
       <r>    7.8149    0.0000 </r>
       <r>    8.1362    0.0000 </r>
       <r>    8.3374    0.0000 </r>
       <r>    8.9315    0.0000 </r>
       <r>    9.3382    0.0000 </r>
[...]
       <r>   11.7065    0.0000 </r>
       <r>   11.8962    0.0000 </r>
       <r>   12.2983    0.0000 </r>
       <r>   12.6586    0.0000 </r>
       <r>   13.0109    0.0000 </r>
       <r>   13.2329    0.0000 </r>
       <r>   13.6704    0.0000 </r>
       <r>   14.0757    0.0000 </r>
       <r>   14.4011    0.0000 </r>
       <r>   16.5501    0.0000 </r>
      </set>
      <set comment="kpoint 42">
       <r>  -68.6460    1.0000 </r>
       <r>  -68.6449    1.0000 </r>
       <r>  -68.6336    1.0000 </r>
       <r>  -68.6333    1.0000 </r>
       <r>  -68.6127    1.0000 </r>
       <r>  -68.6128    1.0000 </r>
       <r>  -68.5952    1.0000 </r>
       <r>  -68.5950    1.0000 </r>
       <r>  -68.5781    1.0000 </r>
       <r>  -68.5777    1.0000 </r>
       <r>  -68.5611    1.0000 </r>
       <r>  -68.5610    1.0000 </r>
       <r>  -12.1780    1.0000 </r>
       <r>  -11.7051    1.0000 </r>
       <r>  -10.7178    1.0000 </r>
       <r>  -10.6916    1.0000 </r>
       <r>  -10.5892    1.0000 </r>
       <r>  -10.3924    1.0000 </r>
       <r>   -5.4455    1.0000 </r>
       <r>   -5.0718    1.0000 </r>
       <r>   -2.5091    1.0000 </r>
       <r>   -2.3808    1.0000 </r>
       <r>   -1.9616    1.0000 </r>
       <r>   -1.3680    1.0000 </r>
       <r>   -1.3300    1.0000 </r>
       <r>   -1.0548    1.0000 </r>
       <r>   -0.8293    1.0000 </r>
       <r>   -0.7674    1.0000 </r>
       <r>   -0.4242    1.0000 </r>
       <r>   -0.3386    1.0000 </r>
       <r>   -0.2720    1.0000 </r>
       <r>   -0.2094    1.0000 </r>
       <r>   -0.1441    1.0000 </r>
       <r>   -0.1385    1.0000 </r>
       <r>   -0.0134    1.0000 </r>
       <r>    0.0268    1.0000 </r>
       <r>    1.1730    1.0000 </r>
       <r>    1.3712    1.0000 </r>
       <r>    1.3971    1.0000 </r>
       <r>    1.4531    1.0000 </r>
       <r>    1.4543    1.0000 </r>
       <r>    1.4982    1.0000 </r>
       <r>    1.5174    1.0000 </r>
       <r>    1.5502    1.0000 </r>
       <r>    1.7431    1.0000 </r>
       <r>    1.8201    1.0000 </r>
       <r>    1.9766    1.0000 </r>
       <r>    2.2289    1.0000 </r>
       <r>    2.3970    1.0000 </r>
       <r>    2.6122    1.0000 </r>
       <r>    2.6558    1.0000 </r>
       <r>    2.9150    1.0000 </r>
       <r>    3.0690    1.0000 </r>
       <r>    3.1174    1.0000 </r>
       <r>    3.2855    1.0000 </r>
       <r>    3.5830    1.0000 </r>
       <r>    6.2908   -0.0000 </r>
       <r>    6.3799   -0.0000 </r>
       <r>    7.3574    0.0000 </r>
       <r>    7.5236    0.0000 </r>
       <r>    8.3096    0.0000 </r>
       <r>    8.3339    0.0000 </r>
       <r>    9.1057    0.0000 </r>
       <r>    9.3595    0.0000 </r>
       <r>    9.7168    0.0000 </r>
       <r>    9.9487    0.0000 </r>
       <r>   10.5259    0.0000 </r>
       <r>   10.9890    0.0000 </r>
       <r>   11.4240    0.0000 </r>
       <r>   11.5640    0.0000 </r>
       <r>   12.0174    0.0000 </r>
       <r>   12.2854    0.0000 </r>
       <r>   12.4295    0.0000 </r>
       <r>   12.4760    0.0000 </r>
       <r>   13.0346    0.0000 </r>
       <r>   13.1503    0.0000 </r>
       <r>   14.1378    0.0000 </r>
       <r>   14.4368    0.0000 </r>
       <r>   15.1654    0.0000 </r>
       <r>   15.8689    0.0000 </r>
      </set>
     </set>
    </set>
   </array>
  </eigenvalues>
  <separator name="orbital magnetization" >
   <v name="MAGDIPOLOUT">      0.00000000      0.00000000      0.00000000</v>
  </separator>
  <dos>
   <i name="efermi">      4.22068228 </i>
   <total>
    <array>
     <dimension dim="1">gridpoints</dimension>
     <dimension dim="2">spin</dimension>
     <field>energy</field>
     <field>total</field>
     <field>integrated</field>
     <set>
      <set comment="spin 1">
       <r>   -72.8301     0.0000     0.0000 </r>
       <r>   -72.5238     0.0000     0.0000 </r>
       <r>   -72.2174     0.0000     0.0000 </r>
       <r>   -71.9110     0.0000     0.0000 </r>
       <r>   -71.6046     0.0000     0.0000 </r>
       <r>   -71.2982     0.0000     0.0000 </r>
       <r>   -70.9918     0.0000     0.0000 </r>
       <r>   -70.6855     0.0000     0.0000 </r>
       <r>   -70.3791     0.0000     0.0000 </r>
       <r>   -70.0727     0.0000     0.0000 </r>
       <r>   -69.7663     0.0000     0.0000 </r>
       <r>   -69.4599    -0.0000    -0.0000 </r>
       <r>   -69.1536    -0.0000    -0.0000 </r>
       <r>   -68.8472    -0.2164    -0.0663 </r>
       <r>   -68.5408    70.2457    21.4557 </r>
       <r>   -68.2344     8.3049    24.0001 </r>
       <r>   -67.9280    -0.0004    24.0000 </r>
       <r>   -67.6217     0.0000    24.0000 </r>
       <r>   -67.3153     0.0000    24.0000 </r>
       <r>   -67.0089     0.0000    24.0000 </r>
       <r>   -66.7025     0.0000    24.0000 </r>
       <r>   -66.3961     0.0000    24.0000 </r>
       <r>   -66.0898     0.0000    24.0000 </r>
       <r>   -65.7834     0.0000    24.0000 </r>
       <r>   -65.4770     0.0000    24.0000 </r>
       <r>   -65.1706     0.0000    24.0000 </r>
       <r>   -64.8642     0.0000    24.0000 </r>
       <r>   -64.5578     0.0000    24.0000 </r>
       <r>   -64.2515     0.0000    24.0000 </r>
       <r>   -63.9451     0.0000    24.0000 </r>
       <r>   -63.6387     0.0000    24.0000 </r>
       <r>   -63.3323     0.0000    24.0000 </r>
       <r>   -63.0259     0.0000    24.0000 </r>
       <r>   -62.7196     0.0000    24.0000 </r>
       <r>   -62.4132     0.0000    24.0000 </r>
       <r>   -62.1068     0.0000    24.0000 </r>
       <r>   -61.8004     0.0000    24.0000 </r>
       <r>   -61.4940     0.0000    24.0000 </r>
       <r>   -61.1877     0.0000    24.0000 </r>
       <r>   -60.8813     0.0000    24.0000 </r>
       <r>   -60.5749     0.0000    24.0000 </r>
       <r>   -60.2685     0.0000    24.0000 </r>
       <r>   -59.9621     0.0000    24.0000 </r>
       <r>   -59.6557     0.0000    24.0000 </r>
       <r>   -59.3494     0.0000    24.0000 </r>
       <r>   -59.0430     0.0000    24.0000 </r>
       <r>   -58.7366     0.0000    24.0000 </r>
       <r>   -58.4302     0.0000    24.0000 </r>
       <r>   -58.1238     0.0000    24.0000 </r>
       <r>   -57.8175     0.0000    24.0000 </r>
       <r>   -57.5111     0.0000    24.0000 </r>
       <r>   -57.2047     0.0000    24.0000 </r>
       <r>   -56.8983     0.0000    24.0000 </r>
       <r>   -56.5919     0.0000    24.0000 </r>
       <r>   -56.2856     0.0000    24.0000 </r>
       <r>   -55.9792     0.0000    24.0000 </r>
       <r>   -55.6728     0.0000    24.0000 </r>
       <r>   -55.3664     0.0000    24.0000 </r>
       <r>   -55.0600     0.0000    24.0000 </r>
       <r>   -54.7537     0.0000    24.0000 </r>
       <r>   -54.4473     0.0000    24.0000 </r>
       <r>   -54.1409     0.0000    24.0000 </r>
       <r>   -53.8345     0.0000    24.0000 </r>
       <r>   -53.5281     0.0000    24.0000 </r>
       <r>   -53.2217     0.0000    24.0000 </r>
       <r>   -52.9154     0.0000    24.0000 </r>
       <r>   -52.6090     0.0000    24.0000 </r>
       <r>   -52.3026     0.0000    24.0000 </r>
       <r>   -51.9962     0.0000    24.0000 </r>
       <r>   -51.6898     0.0000    24.0000 </r>
       <r>   -51.3835     0.0000    24.0000 </r>
       <r>   -51.0771     0.0000    24.0000 </r>
       <r>   -50.7707     0.0000    24.0000 </r>
       <r>   -50.4643     0.0000    24.0000 </r>
       <r>   -50.1579     0.0000    24.0000 </r>
       <r>   -49.8516     0.0000    24.0000 </r>
       <r>   -49.5452     0.0000    24.0000 </r>
       <r>   -49.2388     0.0000    24.0000 </r>
       <r>   -48.9324     0.0000    24.0000 </r>
       <r>   -48.6260     0.0000    24.0000 </r>
       <r>   -48.3197     0.0000    24.0000 </r>
       <r>   -48.0133     0.0000    24.0000 </r>
       <r>   -47.7069     0.0000    24.0000 </r>
       <r>   -47.4005     0.0000    24.0000 </r>
       <r>   -47.0941     0.0000    24.0000 </r>
       <r>   -46.7877     0.0000    24.0000 </r>
       <r>   -46.4814     0.0000    24.0000 </r>
       <r>   -46.1750     0.0000    24.0000 </r>
       <r>   -45.8686     0.0000    24.0000 </r>
       <r>   -45.5622     0.0000    24.0000 </r>
       <r>   -45.2558     0.0000    24.0000 </r>
       <r>   -44.9495     0.0000    24.0000 </r>
       <r>   -44.6431     0.0000    24.0000 </r>
       <r>   -44.3367     0.0000    24.0000 </r>
       <r>   -44.0303     0.0000    24.0000 </r>
       <r>   -43.7239     0.0000    24.0000 </r>
       <r>   -43.4176     0.0000    24.0000 </r>
       <r>   -43.1112     0.0000    24.0000 </r>
       <r>   -42.8048     0.0000    24.0000 </r>
       <r>   -42.4984     0.0000    24.0000 </r>
       <r>   -42.1920     0.0000    24.0000 </r>
       <r>   -41.8856     0.0000    24.0000 </r>
       <r>   -41.5793     0.0000    24.0000 </r>
       <r>   -41.2729     0.0000    24.0000 </r>
       <r>   -40.9665     0.0000    24.0000 </r>
       <r>   -40.6601     0.0000    24.0000 </r>
       <r>   -40.3537     0.0000    24.0000 </r>
       <r>   -40.0474     0.0000    24.0000 </r>
       <r>   -39.7410     0.0000    24.0000 </r>
       <r>   -39.4346     0.0000    24.0000 </r>
       <r>   -39.1282     0.0000    24.0000 </r>
       <r>   -38.8218     0.0000    24.0000 </r>
       <r>   -38.5155     0.0000    24.0000 </r>
       <r>   -38.2091     0.0000    24.0000 </r>
       <r>   -37.9027     0.0000    24.0000 </r>
       <r>   -37.5963     0.0000    24.0000 </r>
       <r>   -37.2899     0.0000    24.0000 </r>
       <r>   -36.9836     0.0000    24.0000 </r>
       <r>   -36.6772     0.0000    24.0000 </r>
       <r>   -36.3708     0.0000    24.0000 </r>
       <r>   -36.0644     0.0000    24.0000 </r>
       <r>   -35.7580     0.0000    24.0000 </r>
       <r>   -35.4516     0.0000    24.0000 </r>
       <r>   -35.1453     0.0000    24.0000 </r>
       <r>   -34.8389     0.0000    24.0000 </r>
       <r>   -34.5325     0.0000    24.0000 </r>
       <r>   -34.2261     0.0000    24.0000 </r>
       <r>   -33.9197     0.0000    24.0000 </r>
       <r>   -33.6134     0.0000    24.0000 </r>
       <r>   -33.3070     0.0000    24.0000 </r>
       <r>   -33.0006     0.0000    24.0000 </r>
       <r>   -32.6942     0.0000    24.0000 </r>
       <r>   -32.3878     0.0000    24.0000 </r>
       <r>   -32.0815     0.0000    24.0000 </r>
       <r>   -31.7751     0.0000    24.0000 </r>
       <r>   -31.4687     0.0000    24.0000 </r>
       <r>   -31.1623     0.0000    24.0000 </r>
       <r>   -30.8559     0.0000    24.0000 </r>
       <r>   -30.5496     0.0000    24.0000 </r>
       <r>   -30.2432     0.0000    24.0000 </r>
       <r>   -29.9368     0.0000    24.0000 </r>
       <r>   -29.6304     0.0000    24.0000 </r>
       <r>   -29.3240     0.0000    24.0000 </r>
       <r>   -29.0176     0.0000    24.0000 </r>
       <r>   -28.7113     0.0000    24.0000 </r>
       <r>   -28.4049     0.0000    24.0000 </r>
       <r>   -28.0985     0.0000    24.0000 </r>
       <r>   -27.7921     0.0000    24.0000 </r>
       <r>   -27.4857     0.0000    24.0000 </r>
       <r>   -27.1794     0.0000    24.0000 </r>
       <r>   -26.8730     0.0000    24.0000 </r>
       <r>   -26.5666     0.0000    24.0000 </r>
       <r>   -26.2602     0.0000    24.0000 </r>
       <r>   -25.9538     0.0000    24.0000 </r>
       <r>   -25.6475     0.0000    24.0000 </r>
       <r>   -25.3411     0.0000    24.0000 </r>
       <r>   -25.0347     0.0000    24.0000 </r>
       <r>   -24.7283     0.0000    24.0000 </r>
       <r>   -24.4219     0.0000    24.0000 </r>
       <r>   -24.1155     0.0000    24.0000 </r>
       <r>   -23.8092     0.0000    24.0000 </r>
       <r>   -23.5028     0.0000    24.0000 </r>
       <r>   -23.1964     0.0000    24.0000 </r>
       <r>   -22.8900     0.0000    24.0000 </r>
       <r>   -22.5836     0.0000    24.0000 </r>
       <r>   -22.2773     0.0000    24.0000 </r>
       <r>   -21.9709     0.0000    24.0000 </r>
       <r>   -21.6645     0.0000    24.0000 </r>
       <r>   -21.3581     0.0000    24.0000 </r>
       <r>   -21.0517     0.0000    24.0000 </r>
       <r>   -20.7454     0.0000    24.0000 </r>
       <r>   -20.4390     0.0000    24.0000 </r>
       <r>   -20.1326     0.0000    24.0000 </r>
       <r>   -19.8262     0.0000    24.0000 </r>
       <r>   -19.5198     0.0000    24.0000 </r>
       <r>   -19.2135     0.0000    24.0000 </r>
       <r>   -18.9071     0.0000    24.0000 </r>
       <r>   -18.6007     0.0000    24.0000 </r>
       <r>   -18.2943     0.0000    24.0000 </r>
       <r>   -17.9879     0.0000    24.0000 </r>
       <r>   -17.6815     0.0000    24.0000 </r>
       <r>   -17.3752     0.0000    24.0000 </r>
       <r>   -17.0688     0.0000    24.0000 </r>
       <r>   -16.7624     0.0000    24.0000 </r>
       <r>   -16.4560     0.0000    24.0000 </r>
       <r>   -16.1496     0.0000    24.0000 </r>
       <r>   -15.8433     0.0000    24.0000 </r>
       <r>   -15.5369     0.0000    24.0000 </r>
       <r>   -15.2305     0.0000    24.0000 </r>
       <r>   -14.9241     0.0000    24.0000 </r>
       <r>   -14.6177     0.0000    24.0000 </r>
       <r>   -14.3114     0.0000    24.0000 </r>
       <r>   -14.0050     0.0000    24.0000 </r>
       <r>   -13.6986    -0.0000    24.0000 </r>
       <r>   -13.3922    -0.0000    24.0000 </r>
       <r>   -13.0858    -0.0000    24.0000 </r>
       <r>   -12.7795    -0.0039    23.9988 </r>
       <r>   -12.4731     1.5373    24.4698 </r>
       <r>   -12.1667     3.5709    25.5638 </r>
       <r>   -11.8603     1.9129    26.1499 </r>
       <r>   -11.5539     2.1529    26.8095 </r>
       <r>   -11.2475     3.1931    27.7878 </r>
       <r>   -10.9412     2.4952    28.5523 </r>
       <r>   -10.6348     9.3756    31.4248 </r>
       <r>   -10.3284     9.3895    34.3016 </r>
       <r>   -10.0220     5.5607    36.0053 </r>
       <r>    -9.7156    -0.0173    36.0000 </r>
       <r>    -9.4093    -0.0000    36.0000 </r>
       <r>    -9.1029     0.0000    36.0000 </r>
       <r>    -8.7965     0.0000    36.0000 </r>
       <r>    -8.4901     0.0000    36.0000 </r>
       <r>    -8.1837     0.0000    36.0000 </r>
       <r>    -7.8774     0.0000    36.0000 </r>
       <r>    -7.5710     0.0000    36.0000 </r>
       <r>    -7.2646     0.0000    36.0000 </r>
       <r>    -6.9582    -0.0000    36.0000 </r>
       <r>    -6.6518    -0.0000    36.0000 </r>
       <r>    -6.3454    -0.0000    36.0000 </r>
       <r>    -6.0391     0.0576    36.0176 </r>
       <r>    -5.7327     3.4943    37.0882 </r>
       <r>    -5.4263     2.0477    37.7156 </r>
       <r>    -5.1199     1.8731    38.2895 </r>
       <r>    -4.8135     3.3060    39.3024 </r>
       <r>    -4.5072     2.2110    39.9798 </r>
       <r>    -4.2008     0.0659    40.0000 </r>
       <r>    -3.8944    -0.0000    40.0000 </r>
       <r>    -3.5880    -0.0000    40.0000 </r>
       <r>    -3.2816    -0.0000    40.0000 </r>
       <r>    -2.9753    -0.0004    39.9999 </r>
       <r>    -2.6689     0.3686    40.1128 </r>
       <r>    -2.3625     6.1487    41.9966 </r>
       <r>    -2.0561     6.7005    44.0495 </r>
       <r>    -1.7497     7.3583    46.3040 </r>
       <r>    -1.4434     6.4167    48.2699 </r>
       <r>    -1.1370     8.7258    50.9434 </r>
       <r>    -0.8306     9.0986    53.7310 </r>
       <r>    -0.5242    11.3485    57.2080 </r>
       <r>    -0.2178    18.1297    62.7626 </r>
       <r>     0.0886    29.0221    71.6544 </r>
       <r>     0.3949     1.1287    72.0002 </r>
       <r>     0.7013    -0.0007    72.0000 </r>
       <r>     1.0077    -0.0202    71.9938 </r>
       <r>     1.3141     7.4203    74.2672 </r>
       <r>     1.6205    44.8420    88.0060 </r>
       <r>     1.9268    13.7933    92.2320 </r>
       <r>     2.2332    13.1565    96.2629 </r>
       <r>     2.5396    12.8592   100.2027 </r>
       <r>     2.8460    11.1726   103.6258 </r>
       <r>     3.1524     9.0689   106.4043 </r>
       <r>     3.4587     7.9166   108.8298 </r>
       <r>     3.7651     6.9368   110.9551 </r>
       <r>     4.0715     3.1653   111.9249 </r>
       <r>     4.3779     0.2458   112.0002 </r>
       <r>     4.6843    -0.0006   112.0000 </r>
       <r>     4.9907    -0.0000   112.0000 </r>
       <r>     5.2970    -0.0001   112.0000 </r>
       <r>     5.6034     0.0766   112.0234 </r>
       <r>     5.9098     0.1677   112.0748 </r>
       <r>     6.2162     2.6322   112.8813 </r>
       <r>     6.5226     4.3739   114.2214 </r>
       <r>     6.8289     3.4484   115.2779 </r>
       <r>     7.1353     2.4232   116.0203 </r>
       <r>     7.4417     1.4309   116.4587 </r>
       <r>     7.7481     3.1826   117.4338 </r>
       <r>     8.0545     5.5568   119.1363 </r>
       <r>     8.3608     5.5600   120.8398 </r>
       <r>     8.6672     4.5850   122.2445 </r>
       <r>     8.9736     4.4738   123.6152 </r>
       <r>     9.2800     5.6041   125.3322 </r>
       <r>     9.5864     5.7004   127.0787 </r>
       <r>     9.8927     4.7847   128.5447 </r>
       <r>    10.1991     4.4538   129.9092 </r>
       <r>    10.5055     6.4998   131.9006 </r>
       <r>    10.8119     8.2796   134.4373 </r>
       <r>    11.1183     8.2668   136.9701 </r>
       <r>    11.4247     7.9701   139.4120 </r>
       <r>    11.7310     7.8959   141.8312 </r>
       <r>    12.0374     6.5788   143.8468 </r>
       <r>    12.3438     5.8629   145.6431 </r>
       <r>    12.6502     6.6352   147.6760 </r>
       <r>    12.9566     5.7830   149.4478 </r>
       <r>    13.2629     6.2084   151.3500 </r>
       <r>    13.5693     5.3542   152.9904 </r>
       <r>    13.8757     4.0868   154.2425 </r>
       <r>    14.1821     3.1596   155.2106 </r>
       <r>    14.4885     4.5733   156.6118 </r>
       <r>    14.7948     3.4989   157.6838 </r>
       <r>    15.1012     1.4047   158.1141 </r>
       <r>    15.4076     1.5949   158.6028 </r>
       <r>    15.7140     1.1992   158.9702 </r>
       <r>    16.0204     1.7024   159.4918 </r>
       <r>    16.3267     0.3302   159.5929 </r>
       <r>    16.6331     0.6768   159.8003 </r>
       <r>    16.9395     0.5346   159.9641 </r>
       <r>    17.2459     0.1173   160.0000 </r>
       <r>    17.5523    -0.0000   160.0000 </r>
       <r>    17.8587     0.0000   160.0000 </r>
       <r>    18.1650     0.0000   160.0000 </r>
       <r>    18.4714     0.0000   160.0000 </r>
       <r>    18.7778     0.0000   160.0000 </r>
       <r>    19.0842     0.0000   160.0000 </r>
      </set>
     </set>
    </array>
   </total>
  </dos>
 </calculation>
 <structure name="finalpos" >
  <crystal>
   <varray name="basis" >
    <v>       3.22479600      -5.64383000       0.03157200 </v>
    <v>       3.22479600       5.64383000       0.03157200 </v>
    <v>      -2.10194600       0.00000000       6.07553700 </v>
   </varray>
   <i name="volume">    221.90106089 </i>
   <varray name="rec_basis" >
    <v>       0.15452516      -0.08859232       0.05346088 </v>
    <v>       0.15452516       0.08859232       0.05346088 </v>
    <v>      -0.00160600       0.00000000       0.16403888 </v>
   </varray>
  </crystal>
  <varray name="positions" >
   <v>       0.61998140       0.12117100       0.11953300 </v>
   <v>       0.12117100       0.61844300       0.61953300 </v>
   <v>       0.96295700       0.79032200       0.11881300 </v>
   <v>       0.79032200       0.96295700       0.61881300 </v>
   <v>       0.43973200       0.26728100       0.59904700 </v>
   <v>       0.26728100       0.43973200       0.09904700 </v>
   <v>       0.07949800       0.91167500       0.49736300 </v>
   <v>       0.57140300       0.41236400       0.98018400 </v>
   <v>       0.73711100       0.25006200       0.49504900 </v>
   <v>       0.41236400       0.57140300       0.48018400 </v>
   <v>       0.91167500       0.07949800       0.99736300 </v>
   <v>       0.25006200       0.73711100       0.99504900 </v>
  </varray>
 </structure>
</modeling>
