   12   12    1    1
  0.1849176E+02  0.6500240E-09  0.6500240E-09  0.6428867E-09  0.5000000E-15
  1.000000000000000E-004
  CAR 
 CGS                                     
  112   42   80
 
  0.0000000E+00  0.0000000E+00  0.0000000E+00  0.1250000E-01
   1      -68.645461
   2      -68.640274
   3      -68.633028
   4      -68.633266
   5      -68.613186
   6      -68.608486
   7      -68.595842
   8      -68.590782
   9      -68.577133
  10      -68.577123
  11      -68.560603
  12      -68.560120
  13      -12.724474
  14      -11.126422
  15      -10.924442
  16      -10.603559
  17      -10.250538
  18      -10.234582
  19       -5.988951
  20       -4.981142
  21       -2.760090
  22       -2.211478
  23       -2.069355
  24       -1.923042
  25       -1.574903
  26       -0.982296
  27       -0.948906
  28       -0.692389
  29       -0.403130
  30       -0.272178
  31       -0.258625
  32       -0.232547
  33       -0.190479
  34       -0.153529
  35       -0.039853
  36        0.034282
  37        1.351809
  38        1.363943
  39        1.415558
  40        1.457941
  41        1.472113
  42        1.474721
  43        1.521863
  44        1.533390
  45        1.576647
  46        1.713720
  47        1.893877
  48        1.930016
  49        2.058604
  50        2.651139
  51        2.728350
  52        3.092092
  53        3.214050
  54        4.004198
  55        4.037310
  56        4.172970
  57        5.541867
  58        6.361718
  59        7.631654
  60        7.995040
  61        8.608332
  62        8.784001
  63        9.569943
  64        9.738429
  65        9.820879
  66       10.423525
  67       10.581314
  68       10.696061
  69       10.716241
  70       11.285981
  71       11.708207
  72       12.392737
  73       12.456051
  74       12.726658
  75       13.316764
  76       13.380775
  77       13.839051
  78       13.880547
  79       14.150876
  80       14.181416
 
  0.2500000E+00  0.7372575E-17  0.1387779E-16  0.2500000E-01
   1      -68.645415
   2      -68.640251
   3      -68.632970
   4      -68.633259
   5      -68.613076
   6      -68.608380
   7      -68.595869
   8      -68.590784
   9      -68.577064
  10      -68.577070
  11      -68.560595
  12      -68.560058
  13      -12.599788
  14      -11.128965
  15      -10.984536
  16      -10.676687
  17      -10.365839
  18      -10.277148
  19       -5.938149
  20       -4.770337
  21       -2.645978
  22       -2.253809
  23       -2.087463
  24       -1.688063
  25       -1.344644
  26       -1.001172
  27       -0.766312
  28       -0.622312
  29       -0.552648
  30       -0.437500
  31       -0.360152
  32       -0.238823
  33       -0.192998
  34       -0.165490
  35       -0.046947
  36        0.040097
  37        1.280722
  38        1.336671
  39        1.355826
  40        1.394127
  41        1.428918
  42        1.473126
  43        1.498764
  44        1.530973
  45        1.724755
  46        1.860888
  47        2.056839
  48        2.093746
  49        2.232495
  50        2.413739
  51        2.557573
  52        2.825721
  53        2.946176
  54        3.243226
  55        3.662644
  56        4.039230
  57        6.178211
  58        6.905190
  59        8.143702
  60        8.271658
  61        8.589098
  62        9.011487
  63        9.243098
  64        9.533135
  65        9.861380
  66       10.376432
  67       10.634801
  68       10.809957
  69       10.938990
  70       11.193334
  71       11.656153
  72       11.771383
  73       12.117115
  74       12.442812
  75       12.618126
  76       13.005762
  77       13.503254
  78       13.873577
  79       14.216292
  80       14.706136
 
  0.5000000E+00  0.1474515E-16  0.2775558E-16  0.1250000E-01
   1      -68.645300
   2      -68.640082
   3      -68.633101
   4      -68.632969
   5      -68.613024
   6      -68.608365
   7      -68.595782
   8      -68.590719
   9      -68.577078
  10      -68.576989
  11      -68.560494
  12      -68.559875
  13      -12.440900
  14      -11.254592
  15      -10.954641
  16      -10.762761
  17      -10.427787
  18      -10.357926
  19       -5.876690
  20       -4.544964
  21       -2.493519
  22       -2.249346
  23       -1.944747
  24       -1.466081
  25       -1.227897
  26       -1.096330
  27       -0.902193
  28       -0.864604
  29       -0.594119
  30       -0.535449
  31       -0.272511
  32       -0.204255
  33       -0.200396
  34       -0.143283
  35       -0.029239
  36        0.080451
  37        1.255625
  38        1.328560
  39        1.349137
  40        1.399430
  41        1.471244
  42        1.479624
  43        1.501616
  44        1.553907
  45        1.750465
  46        1.790312
  47        1.967934
  48        2.147409
  49        2.320379
  50        2.361598
  51        2.558419
  52        2.670425
  53        2.939702
  54        3.078142
  55        3.250374
  56        3.861112
  57        6.394402
  58        7.092789
  59        7.987031
  60        8.205190
  61        8.522468
  62        8.827648
  63        9.324703
  64        9.891979
  65       10.007429
  66       10.513833
  67       10.692602
  68       10.793407
  69       11.139015
  70       11.403478
  71       11.605121
  72       11.775158
  73       11.944499
  74       12.501950
  75       12.774276
  76       12.996104
  77       13.395923
  78       13.537351
  79       13.945171
  80       14.270891
 
  0.7372575E-17  0.2500000E+00  0.1387779E-16  0.2500000E-01
   1      -68.645437
   2      -68.640227
   3      -68.632987
   4      -68.633241
   5      -68.613080
   6      -68.608377
   7      -68.595843
   8      -68.590812
   9      -68.577050
  10      -68.577084
  11      -68.560599
  12      -68.560054
  13      -12.599843
  14      -11.127757
  15      -10.984744
  16      -10.678493
  17      -10.365443
  18      -10.276750
  19       -5.938091
  20       -4.770508
  21       -2.645284
  22       -2.252244
  23       -2.085576
  24       -1.692422
  25       -1.344324
  26       -0.999780
  27       -0.772091
  28       -0.622226
  29       -0.548156
  30       -0.438464
  31       -0.359420
  32       -0.238437
  33       -0.191795
  34       -0.167477
  35       -0.045946
  36        0.039425
  37        1.280162
  38        1.336499
  39        1.355772
  40        1.393430
  41        1.428749
  42        1.473094
  43        1.499457
  44        1.531249
  45        1.725170
  46        1.860678
  47        2.056916
  48        2.095076
  49        2.232864
  50        2.413834
  51        2.556543
  52        2.824666
  53        2.947633
  54        3.243373
  55        3.661391
  56        4.041235
  57        6.174460
  58        6.908526
  59        8.134648
  60        8.273602
  61        8.596334
  62        9.008288
  63        9.237192
  64        9.530354
  65        9.867602
  66       10.378538
  67       10.633509
  68       10.814810
  69       10.938269
  70       11.192712
  71       11.656740
  72       11.770822
  73       12.117724
  74       12.441684
  75       12.620253
  76       13.011603
  77       13.515625
  78       13.899585
  79       14.271527
  80       14.836722
 
  0.2500000E+00  0.2500000E+00  0.0000000E+00  0.2500000E-01
   1      -68.645438
   2      -68.640250
   3      -68.633023
   4      -68.632992
   5      -68.613213
   6      -68.608511
   7      -68.595745
   8      -68.590688
   9      -68.577182
  10      -68.577200
  11      -68.560581
  12      -68.560108
  13      -12.444814
  14      -11.195362
  15      -10.941641
  16      -10.877468
  17      -10.390272
  18      -10.350057
  19       -5.881857
  20       -4.518467
  21       -2.417178
  22       -2.248174
  23       -1.789586
  24       -1.681609
  25       -1.359297
  26       -1.300553
  27       -1.079511
  28       -0.681218
  29       -0.523514
  30       -0.295727
  31       -0.279625
  32       -0.222438
  33       -0.184869
  34       -0.124506
  35       -0.091674
  36        0.079083
  37        1.294688
  38        1.312125
  39        1.416696
  40        1.427826
  41        1.465293
  42        1.483373
  43        1.496150
  44        1.569532
  45        1.670873
  46        1.880450
  47        1.940446
  48        2.134755
  49        2.280247
  50        2.320628
  51        2.560209
  52        2.652373
  53        2.901974
  54        2.945793
  55        3.698469
  56        3.833313
  57        6.176813
  58        6.988890
  59        8.011517
  60        8.323555
  61        8.437997
  62        8.569735
  63        9.158776
  64        9.250957
  65       10.354201
  66       10.491289
  67       10.917264
  68       11.184114
  69       11.321595
  70       11.556907
  71       11.815108
  72       11.960209
  73       12.315584
  74       12.503179
  75       12.712921
  76       12.912431
  77       13.336275
  78       13.444974
  79       14.250959
  80       14.363806
 
  0.5000000E+00  0.2500000E+00 -0.2775558E-16  0.2500000E-01
   1      -68.645213
   2      -68.640004
   3      -68.633134
   4      -68.633060
   5      -68.612986
   6      -68.608282
   7      -68.595800
   8      -68.590739
   9      -68.576990
  10      -68.576989
  11      -68.560087
  12      -68.560311
  13      -12.445062
  14      -11.358678
  15      -10.936334
  16      -10.737007
  17      -10.389201
  18      -10.270954
  19       -5.954118
  20       -4.639981
  21       -2.393446
  22       -2.227430
  23       -2.057396
  24       -1.644228
  25       -1.361981
  26       -1.275049
  27       -1.021383
  28       -0.508303
  29       -0.483488
  30       -0.330328
  31       -0.283417
  32       -0.210470
  33       -0.150858
  34       -0.132876
  35       -0.009757
  36        0.111253
  37        1.247878
  38        1.317323
  39        1.383285
  40        1.437923
  41        1.463412
  42        1.493796
  43        1.497917
  44        1.549826
  45        1.750255
  46        1.828211
  47        1.922533
  48        2.134451
  49        2.219149
  50        2.385605
  51        2.560430
  52        2.791298
  53        2.979110
  54        3.312135
  55        3.604424
  56        3.747681
  57        6.096825
  58        6.937944
  59        7.615445
  60        8.074619
  61        8.407703
  62        8.612405
  63        8.988133
  64        9.154808
  65       10.083100
  66       10.336394
  67       10.728626
  68       11.105929
  69       11.454299
  70       11.594523
  71       11.796576
  72       12.078832
  73       12.472509
  74       12.914022
  75       13.025519
  76       13.816683
  77       14.212859
  78       14.642493
  79       15.432512
  80       15.637170
 
 -0.2500000E+00  0.2500000E+00  0.0000000E+00  0.2500000E-01
   1      -68.645428
   2      -68.640241
   3      -68.632998
   4      -68.633176
   5      -68.613011
   6      -68.608311
   7      -68.595840
   8      -68.590783
   9      -68.577028
  10      -68.577003
  11      -68.560604
  12      -68.560051
  13      -12.602696
  14      -11.254759
  15      -10.991065
  16      -10.570399
  17      -10.366666
  18      -10.179435
  19       -6.015549
  20       -4.892696
  21       -2.648217
  22       -2.312374
  23       -1.973715
  24       -1.646600
  25       -1.495473
  26       -1.183078
  27       -0.789385
  28       -0.583214
  29       -0.443763
  30       -0.331203
  31       -0.294060
  32       -0.230691
  33       -0.172807
  34       -0.133905
  35       -0.007276
  36        0.070474
  37        1.260405
  38        1.321693
  39        1.366937
  40        1.424584
  41        1.432230
  42        1.477069
  43        1.504754
  44        1.545404
  45        1.725975
  46        1.812604
  47        1.995983
  48        2.072611
  49        2.417185
  50        2.463850
  51        2.528675
  52        2.872868
  53        3.142004
  54        3.226504
  55        3.783752
  56        4.069731
  57        5.987390
  58        6.692022
  59        7.533239
  60        8.226821
  61        8.615368
  62        8.903063
  63        9.306999
  64        9.433337
  65        9.805283
  66       10.272531
  67       10.541948
  68       10.830619
  69       10.971908
  70       11.379939
  71       11.472245
  72       11.733205
  73       12.102377
  74       12.668006
  75       12.944487
  76       13.103643
  77       13.347740
  78       13.517684
  79       14.479555
  80       14.755161
 
  0.1474515E-16  0.5000000E+00  0.2775558E-16  0.1250000E-01
   1      -68.645265
   2      -68.640104
   3      -68.633149
   4      -68.632925
   5      -68.613066
   6      -68.608325
   7      -68.595776
   8      -68.590728
   9      -68.577041
  10      -68.577026
  11      -68.560195
  12      -68.560179
  13      -12.441123
  14      -11.251441
  15      -10.955238
  16      -10.767933
  17      -10.425868
  18      -10.357095
  19       -5.876667
  20       -4.545207
  21       -2.494560
  22       -2.244711
  23       -1.942647
  24       -1.469435
  25       -1.227249
  26       -1.102291
  27       -0.896939
  28       -0.866867
  29       -0.597394
  30       -0.533477
  31       -0.272514
  32       -0.202420
  33       -0.200972
  34       -0.143618
  35       -0.027972
  36        0.079552
  37        1.255405
  38        1.328987
  39        1.348853
  40        1.396645
  41        1.472335
  42        1.479845
  43        1.500804
  44        1.554097
  45        1.752626
  46        1.791354
  47        1.967713
  48        2.148022
  49        2.321288
  50        2.362205
  51        2.555006
  52        2.671215
  53        2.938177
  54        3.078800
  55        3.250995
  56        3.863530
  57        6.388898
  58        7.096741
  59        7.982173
  60        8.199141
  61        8.522413
  62        8.828013
  63        9.329057
  64        9.885106
  65       10.017288
  66       10.518844
  67       10.686674
  68       10.794484
  69       11.140868
  70       11.410149
  71       11.604081
  72       11.772753
  73       11.939616
  74       12.506102
  75       12.818502
  76       13.033255
  77       13.550129
  78       13.688331
  79       14.553151
  80       15.247687
 
  0.2500000E+00  0.5000000E+00 -0.2775558E-16  0.2500000E-01
   1      -68.645215
   2      -68.640010
   3      -68.633127
   4      -68.633026
   5      -68.613003
   6      -68.608284
   7      -68.595811
   8      -68.590749
   9      -68.576982
  10      -68.576993
  11      -68.560195
  12      -68.560200
  13      -12.445156
  14      -11.357857
  15      -10.936559
  16      -10.738203
  17      -10.388475
  18      -10.271053
  19       -5.954063
  20       -4.640183
  21       -2.392699
  22       -2.223799
  23       -2.059696
  24       -1.641370
  25       -1.361321
  26       -1.282342
  27       -1.021945
  28       -0.509940
  29       -0.480741
  30       -0.329005
  31       -0.281680
  32       -0.213974
  33       -0.149431
  34       -0.132611
  35       -0.009939
  36        0.111203
  37        1.248009
  38        1.315818
  39        1.384608
  40        1.438790
  41        1.463326
  42        1.492605
  43        1.497596
  44        1.550350
  45        1.750445
  46        1.827143
  47        1.923844
  48        2.135092
  49        2.220566
  50        2.383972
  51        2.561139
  52        2.791793
  53        2.978832
  54        3.311000
  55        3.603447
  56        3.749533
  57        6.093934
  58        6.940419
  59        7.613233
  60        8.075164
  61        8.406658
  62        8.613963
  63        8.987602
  64        9.154201
  65       10.080268
  66       10.331959
  67       10.733800
  68       11.102661
  69       11.456972
  70       11.579034
  71       11.783860
  72       12.028027
  73       12.503447
  74       12.667179
  75       12.914556
  76       13.209377
  77       14.212713
  78       14.721426
  79       15.184277
  80       15.903767
 
  0.5000000E+00  0.5000000E+00  0.0000000E+00  0.1250000E-01
   1      -68.645050
   2      -68.639834
   3      -68.632965
   4      -68.632835
   5      -68.612860
   6      -68.608210
   7      -68.595599
   8      -68.590554
   9      -68.576907
  10      -68.576885
  11      -68.560190
  12      -68.559803
  13      -12.436987
  14      -11.505273
  15      -10.911852
  16      -10.617311
  17      -10.397379
  18      -10.198770
  19       -6.033074
  20       -4.809024
  21       -2.313330
  22       -2.261801
  23       -2.100443
  24       -1.698589
  25       -1.244792
  26       -1.111382
  27       -0.840813
  28       -0.776767
  29       -0.726443
  30       -0.243763
  31       -0.196426
  32       -0.178767
  33       -0.148562
  34       -0.042985
  35       -0.001944
  36        0.183408
  37        1.266904
  38        1.319747
  39        1.377815
  40        1.415344
  41        1.434192
  42        1.494126
  43        1.509892
  44        1.551077
  45        1.786494
  46        1.846176
  47        1.998002
  48        2.151510
  49        2.252433
  50        2.337865
  51        2.558426
  52        2.762341
  53        2.774807
  54        3.368612
  55        3.763419
  56        4.007304
  57        5.863942
  58        6.768607
  59        7.084090
  60        8.410364
  61        8.568893
  62        8.769676
  63        9.136594
  64        9.233330
  65        9.961745
  66       10.279550
  67       10.728896
  68       10.821989
  69       10.874701
  70       11.275239
  71       11.753410
  72       11.915987
  73       11.977412
  74       12.364285
  75       12.537569
  76       13.456182
  77       14.288309
  78       14.676836
  79       16.745451
  80       16.756271
 
 -0.2168404E-18 -0.2168404E-18  0.2000000E+00  0.2500000E-01
   1      -68.645464
   2      -68.640275
   3      -68.632996
   4      -68.633236
   5      -68.613107
   6      -68.608405
   7      -68.595864
   8      -68.590806
   9      -68.577106
  10      -68.577096
  11      -68.560583
  12      -68.560143
  13      -12.621227
  14      -11.426584
  15      -10.781347
  16      -10.608733
  17      -10.249328
  18      -10.236606
  19       -5.834666
  20       -5.045066
  21       -2.600780
  22       -2.374301
  23       -1.962918
  24       -1.773472
  25       -1.441204
  26       -1.124308
  27       -1.065005
  28       -0.777610
  29       -0.472216
  30       -0.292869
  31       -0.236402
  32       -0.230935
  33       -0.188157
  34       -0.145441
  35       -0.017381
  36        0.025746
  37        1.334814
  38        1.383103
  39        1.418143
  40        1.440742
  41        1.465534
  42        1.467567
  43        1.515912
  44        1.546381
  45        1.634626
  46        1.760476
  47        1.788589
  48        1.952176
  49        2.087505
  50        2.658542
  51        2.719003
  52        3.195552
  53        3.250687
  54        3.522653
  55        3.892186
  56        3.976509
  57        6.048871
  58        6.419906
  59        7.830706
  60        7.913159
  61        8.357921
  62        8.811214
  63        9.777066
  64        9.797767
  65       10.061838
  66       10.587582
  67       10.647117
  68       10.815167
  69       10.855578
  70       11.496011
  71       11.556487
  72       12.026233
  73       12.580076
  74       12.774160
  75       12.914481
  76       13.199804
  77       13.533945
  78       13.820943
  79       14.197053
  80       14.702759
 
  0.2500000E+00  0.1517883E-17  0.2000000E+00  0.2500000E-01
   1      -68.645399
   2      -68.640214
   3      -68.632984
   4      -68.633219
   5      -68.613151
   6      -68.608447
   7      -68.595819
   8      -68.590764
   9      -68.577096
  10      -68.577126
  11      -68.560568
  12      -68.560032
  13      -12.462504
  14      -11.469482
  15      -10.864468
  16      -10.689721
  17      -10.372994
  18      -10.245002
  19       -5.770957
  20       -4.801747
  21       -2.446111
  22       -2.236642
  23       -1.847508
  24       -1.713541
  25       -1.434947
  26       -1.188553
  27       -0.889464
  28       -0.745187
  29       -0.605405
  30       -0.524119
  31       -0.308902
  32       -0.241728
  33       -0.169033
  34       -0.120568
  35       -0.052997
  36        0.061268
  37        1.303248
  38        1.338293
  39        1.370877
  40        1.432304
  41        1.448507
  42        1.480402
  43        1.521548
  44        1.547743
  45        1.642260
  46        1.870480
  47        1.979045
  48        2.048777
  49        2.195965
  50        2.475645
  51        2.596483
  52        2.839054
  53        2.962514
  54        3.133967
  55        3.569608
  56        3.724439
  57        6.447939
  58        6.954457
  59        8.173176
  60        8.247026
  61        8.840346
  62        9.123439
  63        9.467913
  64        9.799781
  65       10.085176
  66       10.294766
  67       10.741585
  68       11.075624
  69       11.290565
  70       11.423594
  71       11.634226
  72       11.724019
  73       12.080458
  74       12.264511
  75       12.543297
  76       12.656238
  77       12.954810
  78       13.061688
  79       13.635149
  80       14.688416
 
  0.5000000E+00  0.9107298E-17  0.2000000E+00  0.2500000E-01
   1      -68.645241
   2      -68.639979
   3      -68.633105
   4      -68.632982
   5      -68.613004
   6      -68.608311
   7      -68.595723
   8      -68.590688
   9      -68.577001
  10      -68.577024
  11      -68.560122
  12      -68.560338
  13      -12.360575
  14      -11.418029
  15      -10.951741
  16      -10.683046
  17      -10.478508
  18      -10.334173
  19       -5.756944
  20       -4.720260
  21       -2.523421
  22       -2.185825
  23       -1.954252
  24       -1.535859
  25       -1.299994
  26       -1.099355
  27       -0.869674
  28       -0.751691
  29       -0.549055
  30       -0.445667
  31       -0.288868
  32       -0.177599
  33       -0.143197
  34       -0.104378
  35       -0.044101
  36        0.022778
  37        1.273417
  38        1.299510
  39        1.353482
  40        1.430606
  41        1.453753
  42        1.481426
  43        1.502501
  44        1.589136
  45        1.719136
  46        1.931453
  47        2.075248
  48        2.145607
  49        2.267567
  50        2.404076
  51        2.569659
  52        2.596675
  53        2.900596
  54        3.012125
  55        3.360423
  56        3.898226
  57        6.373774
  58        6.892850
  59        7.575345
  60        8.087727
  61        8.552423
  62        8.801365
  63        9.274744
  64        9.625941
  65        9.934122
  66       10.275703
  67       10.655406
  68       10.928555
  69       10.969146
  70       11.278193
  71       11.521247
  72       11.785970
  73       12.248514
  74       12.548155
  75       13.096845
  76       13.531293
  77       14.296810
  78       14.614738
  79       15.120694
  80       16.262954
 
 -0.2500000E+00 -0.4098284E-16  0.2000000E+00  0.2500000E-01
   1      -68.645459
   2      -68.640267
   3      -68.632952
   4      -68.633230
   5      -68.613109
   6      -68.608415
   7      -68.595850
   8      -68.590793
   9      -68.577107
  10      -68.577130
  11      -68.560623
  12      -68.560089
  13      -12.545135
  14      -11.339842
  15      -10.874978
  16      -10.606229
  17      -10.397666
  18      -10.282516
  19       -5.829038
  20       -4.973341
  21       -2.666467
  22       -2.453816
  23       -2.038476
  24       -1.574963
  25       -1.169464
  26       -0.986797
  27       -0.794413
  28       -0.655222
  29       -0.515724
  30       -0.388494
  31       -0.267947
  32       -0.252751
  33       -0.190165
  34       -0.143107
  35       -0.045292
  36        0.015292
  37        1.290932
  38        1.312684
  39        1.390099
  40        1.410548
  41        1.435897
  42        1.456850
  43        1.493236
  44        1.566077
  45        1.688728
  46        1.917412
  47        1.987146
  48        2.144768
  49        2.335748
  50        2.565077
  51        2.616551
  52        2.829727
  53        2.972917
  54        3.247828
  55        3.684257
  56        3.943046
  57        6.185925
  58        6.638735
  59        7.767409
  60        7.976164
  61        8.214138
  62        8.555594
  63        9.378815
  64        9.580150
  65        9.909845
  66       10.251488
  67       10.542834
  68       10.788585
  69       10.839075
  70       11.066875
  71       11.566756
  72       12.025872
  73       12.530204
  74       12.746026
  75       12.952569
  76       13.314516
  77       13.413192
  78       13.735420
  79       13.848203
  80       14.724695
 
  0.1517883E-17  0.2500000E+00  0.2000000E+00  0.2500000E-01
   1      -68.645401
   2      -68.640212
   3      -68.633001
   4      -68.633202
   5      -68.613145
   6      -68.608454
   7      -68.595826
   8      -68.590756
   9      -68.577105
  10      -68.577118
  11      -68.560575
  12      -68.560026
  13      -12.462577
  14      -11.468981
  15      -10.864585
  16      -10.690580
  17      -10.372925
  18      -10.244557
  19       -5.770937
  20       -4.801936
  21       -2.445536
  22       -2.234594
  23       -1.849538
  24       -1.714564
  25       -1.432838
  26       -1.188920
  27       -0.893047
  28       -0.745925
  29       -0.605888
  30       -0.518557
  31       -0.308683
  32       -0.242678
  33       -0.170379
  34       -0.120683
  35       -0.052363
  36        0.061184
  37        1.303610
  38        1.337347
  39        1.371198
  40        1.432698
  41        1.446834
  42        1.480977
  43        1.521586
  44        1.547093
  45        1.643686
  46        1.871683
  47        1.978549
  48        2.048472
  49        2.196696
  50        2.475322
  51        2.595175
  52        2.840093
  53        2.962481
  54        3.134752
  55        3.568702
  56        3.724360
  57        6.440511
  58        6.960220
  59        8.170609
  60        8.250199
  61        8.837499
  62        9.129149
  63        9.465337
  64        9.796786
  65       10.081561
  66       10.300697
  67       10.738454
  68       11.080103
  69       11.288547
  70       11.425235
  71       11.632347
  72       11.723010
  73       12.082961
  74       12.267746
  75       12.542253
  76       12.659092
  77       12.955202
  78       13.059165
  79       13.654845
  80       14.695255
 
  0.2500000E+00  0.2500000E+00  0.2000000E+00  0.2500000E-01
   1      -68.645309
   2      -68.640122
   3      -68.632959
   4      -68.632942
   5      -68.612988
   6      -68.608288
   7      -68.595698
   8      -68.590642
   9      -68.577023
  10      -68.576939
  11      -68.560428
  12      -68.559993
  13      -12.331234
  14      -11.479062
  15      -10.862954
  16      -10.855685
  17      -10.406839
  18      -10.286478
  19       -5.753152
  20       -4.689750
  21       -2.242874
  22       -2.140750
  23       -1.925705
  24       -1.850039
  25       -1.455945
  26       -1.396631
  27       -1.038819
  28       -0.520576
  29       -0.459667
  30       -0.347647
  31       -0.247317
  32       -0.215615
  33       -0.158635
  34       -0.109401
  35       -0.089445
  36        0.079711
  37        1.263094
  38        1.348772
  39        1.398310
  40        1.436952
  41        1.454182
  42        1.511256
  43        1.536089
  44        1.545040
  45        1.753868
  46        1.818674
  47        2.040427
  48        2.134068
  49        2.285682
  50        2.311151
  51        2.521900
  52        2.769512
  53        2.900396
  54        3.262064
  55        3.497883
  56        3.800624
  57        6.186429
  58        6.840368
  59        7.826085
  60        8.047799
  61        8.190141
  62        8.730956
  63        9.154089
  64        9.312744
  65       10.217370
  66       10.435844
  67       10.589595
  68       11.001974
  69       11.236780
  70       11.489892
  71       11.810641
  72       12.170938
  73       12.208096
  74       12.574397
  75       12.693026
  76       13.117154
  77       13.417577
  78       13.877263
  79       14.004784
  80       14.521514
 
  0.5000000E+00  0.2500000E+00  0.2000000E+00  0.2500000E-01
   1      -68.645177
   2      -68.639953
   3      -68.633164
   4      -68.632999
   5      -68.612987
   6      -68.608326
   7      -68.595771
   8      -68.590707
   9      -68.577064
  10      -68.576954
  11      -68.560190
  12      -68.560170
  13      -12.377718
  14      -11.478195
  15      -10.935381
  16      -10.652637
  17      -10.419018
  18      -10.304113
  19       -5.806343
  20       -4.835286
  21       -2.528404
  22       -2.246316
  23       -1.870838
  24       -1.644493
  25       -1.505213
  26       -1.304185
  27       -0.899578
  28       -0.535274
  29       -0.377693
  30       -0.347246
  31       -0.221203
  32       -0.177965
  33       -0.156017
  34       -0.077290
  35       -0.025791
  36        0.079765
  37        1.191703
  38        1.365243
  39        1.398789
  40        1.443812
  41        1.464442
  42        1.508373
  43        1.520733
  44        1.586143
  45        1.742143
  46        1.817409
  47        2.038359
  48        2.234504
  49        2.269796
  50        2.361832
  51        2.486539
  52        2.672745
  53        3.053392
  54        3.411871
  55        3.728066
  56        3.864275
  57        5.938513
  58        6.614100
  59        7.354736
  60        7.941967
  61        8.063482
  62        8.722738
  63        8.913953
  64        9.138518
  65        9.842653
  66       10.323766
  67       10.554020
  68       10.926754
  69       11.221834
  70       11.411187
  71       11.750484
  72       12.000378
  73       12.497819
  74       12.835720
  75       13.200594
  76       14.096107
  77       14.717280
  78       15.151165
  79       15.919097
  80       16.568047
 
 -0.2500000E+00  0.2500000E+00  0.2000000E+00  0.2500000E-01
   1      -68.645365
   2      -68.640215
   3      -68.633067
   4      -68.633224
   5      -68.613083