       N       E                     dE             d eps       ncg     rms          ort
SDA:   1     0.755414460329E+02    0.75541E+02   -0.21319E+03  3360   0.533E+03 0.000E+00
DMP:   2    -0.838057803476E+01   -0.83922E+02   -0.14688E+03  3360   0.395E+03-0.737E+02
DMP:   3    -0.152143122373E+02   -0.68337E+01   -0.20374E+03  3360   0.694E+03-0.483E+03
DMP:   4    -0.227034174711E+02   -0.74891E+01   -0.10727E+03  3360   0.390E+03-0.319E+03
DMP:   5    -0.608271649756E+02   -0.38124E+02   -0.15040E+02  3360   0.705E+02-0.861E+02
DMP:   6    -0.659370199162E+02   -0.51099E+01   -0.81700E+01  3360   0.246E+02-0.111E+02
DMP:   7    -0.674748884294E+02   -0.15379E+01   -0.41330E+01  3360   0.147E+02-0.114E+02
DMP:   8    -0.690855025256E+02   -0.16106E+01   -0.77008E+00  3360   0.283E+01-0.237E+01
DMP:   9    -0.693950896636E+02   -0.30959E+00   -0.38630E+00  3360   0.111E+01-0.367E+00
DMP:  10    -0.694988653273E+02   -0.10378E+00   -0.15215E+00  3360   0.547E+00-0.437E+00
DMP:  11    -0.695684222609E+02   -0.69557E-01   -0.36896E-01  3360   0.105E+00-0.338E-01
DMP:  12    -0.695807615863E+02   -0.12339E-01   -0.22833E-01  3360   0.689E-01-0.310E-01
DMP:  13    -0.695904144043E+02   -0.96528E-02   -0.51141E-02  3360   0.161E-01-0.876E-02
DMP:  14    -0.695928645002E+02   -0.24501E-02   -0.37767E-02  3360   0.964E-02-0.526E-03
DMP:  15    -0.695943677736E+02   -0.15033E-02   -0.10360E-02  3360   0.333E-02-0.193E-02
DMP:  16    -0.695949373671E+02   -0.56959E-03   -0.40863E-03  3360   0.916E-03 0.277E-03
DMP:  17    -0.695951098942E+02   -0.17253E-03   -0.20846E-03  3360   0.579E-03-0.152E-03
DMP:  18    -0.695952266150E+02   -0.11672E-03   -0.55918E-04  3360   0.119E-03 0.543E-04
DMP:  19    -0.695952553217E+02   -0.28707E-04   -0.35208E-04  3360   0.882E-04-0.466E-06
DMP:  20    -0.695952750068E+02   -0.19685E-04   -0.11511E-04  3360   0.241E-04 0.124E-04
DMP:  21    -0.695952823384E+02   -0.73316E-05   -0.69768E-05  3360   0.140E-04 0.902E-05
   1 F= -.69595282E+02 E0= -.69595465E+02  d E =0.547199E-03
