       N       E                     dE             d eps       ncg     rms          ort
SDA:   1     0.755351335375E+02    0.75535E+02   -0.21316E+03  3360   0.533E+03 0.000E+00
DMP:   2    -0.837852725137E+01   -0.83914E+02   -0.14689E+03  3360   0.395E+03-0.737E+02
DMP:   3    -0.151541014002E+02   -0.67756E+01   -0.20391E+03  3360   0.694E+03-0.482E+03
DMP:   4    -0.226317149422E+02   -0.74776E+01   -0.10742E+03  3360   0.391E+03-0.320E+03
DMP:   5    -0.608182590844E+02   -0.38187E+02   -0.15058E+02  3360   0.706E+02-0.862E+02
DMP:   6    -0.659427755735E+02   -0.51245E+01   -0.81522E+01  3360   0.246E+02-0.110E+02
DMP:   7    -0.674789824995E+02   -0.15362E+01   -0.41251E+01  3360   0.147E+02-0.114E+02
DMP:   8    -0.690859073788E+02   -0.16069E+01   -0.76987E+00  3360   0.283E+01-0.237E+01
DMP:   9    -0.693953757037E+02   -0.30947E+00   -0.38535E+00  3360   0.110E+01-0.367E+00
DMP:  10    -0.694989367540E+02   -0.10356E+00   -0.15196E+00  3360   0.546E+00-0.436E+00
DMP:  11    -0.695683966439E+02   -0.69460E-01   -0.36901E-01  3360   0.105E+00-0.338E-01
DMP:  12    -0.695807661906E+02   -0.12370E-01   -0.22787E-01  3360   0.688E-01-0.309E-01
DMP:  13    -0.695903985936E+02   -0.96324E-02   -0.51153E-02  3360   0.161E-01-0.875E-02
DMP:  14    -0.695928508352E+02   -0.24522E-02   -0.37695E-02  3360   0.962E-02-0.519E-03
DMP:  15    -0.695943521792E+02   -0.15013E-02   -0.10346E-02  3360   0.332E-02-0.192E-02
DMP:  16    -0.695949207753E+02   -0.56860E-03   -0.40822E-03  3360   0.915E-03 0.276E-03
DMP:  17    -0.695950933087E+02   -0.17253E-03   -0.20815E-03  3360   0.578E-03-0.151E-03
DMP:  18    -0.695952099284E+02   -0.11662E-03   -0.55948E-04  3360   0.119E-03 0.546E-04
DMP:  19    -0.695952386568E+02   -0.28728E-04   -0.35129E-04  3360   0.880E-04-0.440E-06
DMP:  20    -0.695952583099E+02   -0.19653E-04   -0.11530E-04  3360   0.241E-04 0.124E-04
DMP:  21    -0.695952656554E+02   -0.73455E-05   -0.69737E-05  3360   0.140E-04 0.904E-05
   1 F= -.69595266E+02 E0= -.69595458E+02  d E =0.576511E-03
