<?xml version="1.0" encoding="ISO-8859-1"?>
<modeling>
 <generator>
  <i name="program" type="string">vasp </i>
  <i name="version" type="string">5.3.3  </i>
  <i name="subversion" type="string">18Dez12 (build Nov 13 2015 09:58:40) complex                          parallel </i>
  <i name="platform" type="string">LinuxIFC </i>
  <i name="date" type="string">2017 10 18 </i>
  <i name="time" type="string">13:22:27 </i>
 </generator>
 <incar>
  <i type="string" name="SYSTEM"> CGS</i>
  <i type="string" name="PREC">normal</i>
  <i type="string" name="ALGO"> D</i>
  <i type="logical" name="LDIAG"> T  </i>
  <i name="EDIFF">      0.00001000</i>
  <i name="ENCUT">    400.00000000</i>
  <i name="TIME">      0.40000000</i>
  <i type="int" name="ISMEAR">     1</i>
  <i name="SIGMA">      0.10000000</i>
  <i type="logical" name="LHFCALC"> T  </i>
  <i type="string" name="GGA"> PE</i>
  <i name="HFSCREEN">      0.20000000</i>
  <i name="AEXX">      0.25000000</i>
  <i type="string" name="PRECFOCK">fast</i>
 </incar>
 <kpoints>
  <generation param="Gamma">
   <v type="int" name="divisions">       4        4        5 </v>
   <v name="usershift">      0.00000000       0.00000000       0.00000000 </v>
   <v name="genvec1">      0.25000000       0.00000000       0.00000000 </v>
   <v name="genvec2">      0.00000000       0.25000000       0.00000000 </v>
   <v name="genvec3">      0.00000000       0.00000000       0.20000000 </v>
   <v name="shift">      0.00000000       0.00000000       0.00000000 </v>
  </generation>
  <varray name="kpointlist" >
   <v>       0.00000000       0.00000000       0.00000000 </v>
   <v>       0.25000000       0.00000000       0.00000000 </v>
   <v>       0.50000000       0.00000000       0.00000000 </v>
   <v>       0.00000000       0.25000000       0.00000000 </v>
   <v>       0.25000000       0.25000000       0.00000000 </v>
   <v>       0.50000000       0.25000000      -0.00000000 </v>
   <v>      -0.25000000       0.25000000       0.00000000 </v>
   <v>       0.00000000       0.50000000       0.00000000 </v>
   <v>       0.25000000       0.50000000      -0.00000000 </v>
   <v>       0.50000000       0.50000000       0.00000000 </v>
   <v>      -0.00000000      -0.00000000       0.20000000 </v>
   <v>       0.25000000       0.00000000       0.20000000 </v>
   <v>       0.50000000       0.00000000       0.20000000 </v>
   <v>      -0.25000000      -0.00000000       0.20000000 </v>
   <v>       0.00000000       0.25000000       0.20000000 </v>
   <v>       0.25000000       0.25000000       0.20000000 </v>
   <v>       0.50000000       0.25000000       0.20000000 </v>
   <v>      -0.25000000       0.25000000       0.20000000 </v>
   <v>       0.00000000       0.50000000       0.20000000 </v>
   <v>       0.25000000       0.50000000       0.20000000 </v>
   <v>       0.50000000       0.50000000       0.20000000 </v>
   <v>      -0.25000000       0.50000000       0.20000000 </v>
   <v>      -0.00000000      -0.25000000       0.20000000 </v>
   <v>       0.25000000      -0.25000000       0.20000000 </v>
   <v>       0.50000000      -0.25000000       0.20000000 </v>
   <v>      -0.25000000      -0.25000000       0.20000000 </v>
   <v>      -0.00000000      -0.00000000       0.40000000 </v>
   <v>       0.25000000       0.00000000       0.40000000 </v>
   <v>       0.50000000       0.00000000       0.40000000 </v>
   <v>      -0.25000000       0.00000000       0.40000000 </v>
   <v>       0.00000000       0.25000000       0.40000000 </v>
   <v>       0.25000000       0.25000000       0.40000000 </v>
   <v>       0.50000000       0.25000000       0.40000000 </v>
   <v>      -0.25000000       0.25000000       0.40000000 </v>
   <v>       0.00000000       0.50000000       0.40000000 </v>
   <v>       0.25000000       0.50000000       0.40000000 </v>
   <v>       0.50000000       0.50000000       0.40000000 </v>
   <v>      -0.25000000       0.50000000       0.40000000 </v>
   <v>       0.00000000      -0.25000000       0.40000000 </v>
   <v>       0.25000000      -0.25000000       0.40000000 </v>
   <v>       0.50000000      -0.25000000       0.40000000 </v>
   <v>      -0.25000000      -0.25000000       0.40000000 </v>
  </varray>
  <varray name="weights" >
   <v>       0.01250000 </v>
   <v>       0.02500000 </v>
   <v>       0.01250000 </v>
   <v>       0.02500000 </v>
   <v>       0.02500000 </v>
   <v>       0.02500000 </v>
   <v>       0.02500000 </v>
   <v>       0.01250000 </v>
   <v>       0.02500000 </v>
   <v>       0.01250000 </v>
   <v>       0.02500000 </v>
   <v>       0.02500000 </v>
   <v>       0.02500000 </v>
   <v>       0.02500000 </v>
   <v>       0.02500000 </v>
   <v>       0.02500000 </v>
   <v>       0.02500000 </v>
   <v>       0.02500000 </v>
   <v>       0.02500000 </v>
   <v>       0.02500000 </v>
   <v>       0.02500000 </v>
   <v>       0.02500000 </v>
   <v>       0.02500000 </v>
   <v>       0.02500000 </v>
   <v>       0.02500000 </v>
   <v>       0.02500000 </v>
   <v>       0.02500000 </v>
   <v>       0.02500000 </v>
   <v>       0.02500000 </v>
   <v>       0.02500000 </v>
   <v>       0.02500000 </v>
   <v>       0.02500000 </v>
   <v>       0.02500000 </v>
   <v>       0.02500000 </v>
   <v>       0.02500000 </v>
   <v>       0.02500000 </v>
   <v>       0.02500000 </v>
   <v>       0.02500000 </v>
   <v>       0.02500000 </v>
   <v>       0.02500000 </v>
   <v>       0.02500000 </v>
   <v>       0.02500000 </v>
  </varray>
 </kpoints>
 <parameters>
  <separator name="general" >
   <i type="string" name="SYSTEM">CGS</i>
   <i type="logical" name="LCOMPAT"> F  </i>
  </separator>
  <separator name="electronic" >
   <i type="string" name="PREC">normal</i>
   <i name="ENMAX">    400.00000000</i>
   <i name="ENAUG">    758.23300000</i>
   <i name="EDIFF">      0.00001000</i>
   <i type="int" name="IALGO">    53</i>
   <i type="int" name="IWAVPR">    10</i>
   <i type="int" name="NBANDS">    80</i>
   <i name="NELECT">    112.00000000</i>
   <i type="int" name="TURBO">     0</i>
   <i type="int" name="IRESTART">     0</i>
   <i type="int" name="NREBOOT">     0</i>
   <i type="int" name="NMIN">     0</i>
   <i name="EREF">      0.00000000</i>
   <separator name="electronic smearing" >
    <i type="int" name="ISMEAR">     1</i>
    <i name="SIGMA">      0.10000000</i>
    <i name="KSPACING">      0.50000000</i>
    <i type="logical" name="KGAMMA"> T  </i>
   </separator>
   <separator name="electronic projectors" >
    <i type="logical" name="LREAL"> F  </i>
    <v name="ROPT">      0.00000000      0.00000000      0.00000000</v>
    <i type="int" name="LMAXPAW">  -100</i>
    <i type="int" name="LMAXMIX">     2</i>
    <i type="logical" name="NLSPLINE"> F  </i>
   </separator>
   <separator name="electronic startup" >
    <i type="int" name="ISTART">     1</i>
    <i type="int" name="ICHARG">     0</i>
    <i type="int" name="INIWAV">     1</i>
   </separator>
   <separator name="electronic spin" >
    <i type="int" name="ISPIN">     1</i>
    <i type="logical" name="LNONCOLLINEAR"> F  </i>
    <v name="MAGMOM">      1.00000000      1.00000000      1.00000000      1.00000000      1.00000000      1.00000000      1.00000000      1.00000000      1.00000000      1.00000000      1.00000000      1.00000000</v>
    <i name="NUPDOWN">     -1.00000000</i>
    <i type="logical" name="LSORBIT"> F  </i>
    <v name="SAXIS">      0.00000000      0.00000000      1.00000000</v>
    <i type="logical" name="LSPIRAL"> F  </i>
    <v name="QSPIRAL">      0.00000000      0.00000000      0.00000000</v>
    <i type="logical" name="LZEROZ"> F  </i>
   </separator>
   <separator name="electronic exchange-correlation" >
    <i type="logical" name="LASPH"> F  </i>
    <i type="logical" name="LMETAGGA"> F  </i>
   </separator>
   <separator name="electronic convergence" >
    <i type="int" name="NELM">    60</i>
    <i type="int" name="NELMDL">     0</i>
    <i type="int" name="NELMIN">     2</i>
    <i name="ENINI">    400.00000000</i>
    <separator name="electronic convergence detail" >
     <i type="logical" name="LDIAG"> T  </i>
     <i type="logical" name="LSUBROT"> T  </i>
     <i name="WEIMIN">      0.00000000</i>
     <i name="EBREAK">      0.00000003</i>
     <i name="DEPER">      0.30000000</i>
     <i type="int" name="NRMM">     4</i>
     <i name="TIME">      0.40000000</i>
    </separator>
   </separator>
   <separator name="electronic mixer" >
    <i name="AMIX">      0.40000000</i>
    <i name="BMIX">      1.00000000</i>
    <i name="AMIN">      0.10000000</i>
    <i name="AMIX_MAG">      1.60000000</i>
    <i name="BMIX_MAG">      1.00000000</i>
    <separator name="electronic mixer details" >
     <i type="int" name="IMIX">     4</i>
     <i type="int" name="MAXMIX">   -45</i>
     <i name="WC">    100.00000000</i>
     <i type="int" name="INIMIX">     1</i>
     <i type="int" name="MIXPRE">     1</i>
     <i type="int" name="MREMOVE">     5</i>
    </separator>
   </separator>
   <separator name="electronic dipolcorrection" >
    <i type="logical" name="LDIPOL"> F  </i>
    <i type="logical" name="LMONO"> F  </i>
    <i type="int" name="IDIPOL">     0</i>
    <i name="EPSILON">      1.00000000</i>
    <v name="DIPOL">   -100.00000000   -100.00000000   -100.00000000</v>
    <i name="EFIELD">      0.00000000</i>
   </separator>
  </separator>
  <separator name="grids" >
   <i type="int" name="NGX">    32</i>
   <i type="int" name="NGY">    32</i>
   <i type="int" name="NGZ">    32</i>
   <i type="int" name="NGXF">    64</i>
   <i type="int" name="NGYF">    64</i>
   <i type="int" name="NGZF">    64</i>
   <i type="logical" name="ADDGRID"> F  </i>
  </separator>
  <separator name="ionic" >
   <i type="int" name="NSW">     0</i>
   <i type="int" name="IBRION">    -1</i>
   <i type="int" name="ISIF">     0</i>
   <i name="PSTRESS">      0.00000000</i>
   <i name="EDIFFG">      0.00010000</i>
   <i type="int" name="NFREE">     0</i>
   <i name="POTIM">      0.50000000</i>
   <i name="SMASS">     -3.00000000</i>
   <i name="SCALEE">      1.00000000</i>
  </separator>
  <separator name="ionic md" >
   <i name="TEBEG">      0.00010000</i>
   <i name="TEEND">      0.00010000</i>
   <i type="int" name="NBLOCK">     1</i>
   <i type="int" name="KBLOCK">     1</i>
   <i type="int" name="NPACO">   256</i>
   <i name="APACO">     16.00000000</i>
  </separator>
  <separator name="symmetry" >
   <i type="int" name="ISYM">     3</i>
   <i name="SYMPREC">      0.00001000</i>
  </separator>
  <separator name="dos" >
   <i type="logical" name="LORBIT"> F  </i>
   <v name="RWIGS">     -1.00000000     -1.00000000     -1.00000000</v>
   <i type="int" name="NEDOS">   301</i>
   <i name="EMIN">     10.00000000</i>
   <i name="EMAX">    -10.00000000</i>
   <i name="EFERMI">      0.00000000</i>
  </separator>
  <separator name="writing" >
   <i type="int" name="NWRITE">     2</i>
   <i type="logical" name="LWAVE"> T  </i>
   <i type="logical" name="LCHARG"> T  </i>
   <i type="logical" name="LPARD"> F  </i>
   <i type="logical" name="LVTOT"> F  </i>
   <i type="logical" name="LVHAR"> F  </i>
   <i type="logical" name="LELF"> F  </i>
   <i type="logical" name="LOPTICS"> F  </i>
   <v name="STM">      0.00000000      0.00000000      0.00000000      0.00000000      0.00000000      0.00000000      0.00000000</v>
  </separator>
  <separator name="performance" >
   <i type="int" name="NPAR">    16</i>
   <i type="int" name="NSIM">     4</i>
   <i type="int" name="NBLK">    -1</i>
   <i type="logical" name="LPLANE"> T  </i>
   <i type="logical" name="LSCALAPACK"> T  </i>
   <i type="logical" name="LSCAAWARE"> F  </i>
   <i type="logical" name="LSCALU"> F  </i>
   <i type="logical" name="LASYNC"> F  </i>
   <i type="logical" name="LORBITALREAL"> F  </i>
  </separator>
  <separator name="miscellaneous" >
   <i type="int" name="IDIOT">     3</i>
   <i type="logical" name="LMUSIC"> F  </i>
   <v name="POMASS">     63.54600000     72.61000000     32.06600000</v>
   <v name="DARWINR">      0.00000000      0.00000000      0.00000000</v>
   <v name="DARWINV">      1.00000000      1.00000000      1.00000000</v>
   <i type="logical" name="LCORR"> T  </i>
  </separator>
  <i type="logical" name="GGA_COMPAT"> T  </i>
  <i type="logical" name="LBERRY"> F  </i>
  <i type="int" name="ICORELEVEL">     0</i>
  <i type="logical" name="LDAU"> F  </i>
  <i type="int" name="I_CONSTRAINED_M">     0</i>
  <separator name="electronic exchange-correlation" >
   <i type="string" name="GGA">PE</i>
   <i type="int" name="VOSKOWN">     0</i>
   <i type="logical" name="LHFCALC"> T  </i>
   <i type="string" name="PRECFOCK">fast</i>
   <i type="logical" name="LSYMGRAD"> F  </i>
   <i type="logical" name="LHFONE"> F  </i>
   <i type="logical" name="LRHFCALC"> F  </i>
   <i type="logical" name="LTHOMAS"> F  </i>
   <i type="logical" name="LMODELHF"> F  </i>
   <i name="ENCUT4O">     -1.00000000</i>
   <i type="int" name="EXXOEP">     0</i>
   <i type="int" name="FOURORBIT">     0</i>
   <i name="AEXX">      0.25000000</i>
   <i name="HFALPHA">     -1.00000000</i>
   <i name="MCALPHA">      0.00000000</i>
   <i name="ALDAX">      0.75000000</i>
   <i name="AGGAX">      0.75000000</i>
   <i name="ALDAC">      1.00000000</i>
   <i name="AGGAC">      1.00000000</i>
   <i type="int" name="NKREDX">     1</i>
   <i type="int" name="NKREDY">     1</i>
   <i type="int" name="NKREDZ">     1</i>
   <i type="logical" name="SHIFTRED"> F  </i>
   <i type="logical" name="ODDONLY"> F  </i>
   <i type="logical" name="EVENONLY"> F  </i>
   <i type="int" name="LMAXFOCK">     4</i>
   <i type="int" name="NMAXFOCKAE">     1</i>
   <i type="logical" name="LFOCKAEDFT"> F  </i>
   <i name="HFSCREEN">      0.20000000</i>
   <i name="HFSCREENC">      0.20000000</i>
   <i type="int" name="NBANDSGWLOW">     1</i>
  </separator>
  <separator name="vdW DFT" >
   <i type="logical" name="LUSE_VDW"> F  </i>
   <i name="Zab_VDW">     -0.84910000</i>
   <i name="PARAM1">      0.12340000</i>
   <i name="PARAM2">      1.00000000</i>
   <i name="PARAM3">      0.00000000</i>
  </separator>
  <separator name="model GW" >
   <i type="int" name="MODEL_GW">     0</i>
   <i name="MODEL_EPS0">     11.09505304</i>
   <i name="MODEL_ALPHA">      1.00000000</i>
  </separator>
  <separator name="linear response parameters" >
   <i type="logical" name="LEPSILON"> F  </i>
   <i type="logical" name="LRPA"> F  </i>
   <i type="logical" name="LNABLA"> F  </i>
   <i type="logical" name="LVEL"> F  </i>
   <i type="int" name="KINTER">     0</i>
   <i name="CSHIFT">      0.10000000</i>
   <i name="OMEGAMAX">     -1.00000000</i>
   <i name="DEG_THRESHOLD">      0.00200000</i>
  </separator>
  <separator name="orbital magnetization" >
   <i type="logical" name="NUCIND"> F  </i>
   <v name="MAGPOS">      0.00000000      0.00000000      0.00000000</v>
   <i type="logical" name="LNICSALL"> T  </i>
   <i type="logical" name="ORBITALMAG"> F  </i>
   <i type="logical" name="LMAGBLOCH"> F  </i>
   <i type="logical" name="LCHIMAG"> F  </i>
   <i type="logical" name="LGAUGE"> T  </i>
   <i type="int" name="MAGATOM">     0</i>
   <v name="MAGDIPOL">      0.00000000      0.00000000      0.00000000</v>
   <v name="AVECCONST">      0.00000000      0.00000000      0.00000000</v>
  </separator>
  <separator name="response functions" >
   <i type="logical" name="LADDER"> F  </i>
   <i type="logical" name="LFXC"> F  </i>
   <i type="logical" name="LHARTREE"> T  </i>
   <i type="int" name="IBSE">     0</i>
   <i type="logical" name="LTCTE"> F  </i>
   <i type="logical" name="LTETE"> F  </i>
   <i type="logical" name="LTRIPLET"> F  </i>
   <i type="logical" name="LFXCEPS"> F  </i>
   <i type="logical" name="L2ORDER"> F  </i>
   <i type="logical" name="LUSEW"> F  </i>
   <i name="ENCUTGW">     -2.00000000</i>
   <i name="ENCUTGWSOFT">     -2.00000000</i>
   <i name="ENCUTLF">     -1.00000000</i>
   <i type="int" name="LMAXMP2">    -1</i>
   <i name="SCISSOR">      0.00000000</i>
   <i type="int" name="NOMEGA">     0</i>
   <i type="int" name="NOMEGAR">     0</i>
   <i type="int" name="NBANDSGW">    -1</i>
   <i type="int" name="NBANDSO">    -1</i>
   <i type="int" name="NBANDSV">    -1</i>
   <i type="int" name="NELM">     1</i>
   <i type="int" name="DIM">     3</i>
   <i type="int" name="ANTIRES">     0</i>
   <i name="OMEGAMAX">    -30.00000000</i>
   <i name="OMEGATL">   -200.00000000</i>
   <i type="int" name="OMEGAGRID">     0</i>
   <i name="CSHIFT">     -0.10000000</i>
   <i type="logical" name="SELFENERGY"> F  </i>
   <i type="logical" name="LSPECTRAL"> F  </i>
   <i type="logical" name="ODDONLYGW"> F  </i>
   <i type="logical" name="EVENONLYGW"> F  </i>
   <i type="int" name="NKREDLFX">     1</i>
   <i type="int" name="NKREDLFY">     1</i>
   <i type="int" name="NKREDLFZ">     1</i>
   <i type="int" name="MAXMEM">  1800</i>
   <i type="int" name="TELESCOPE">     0</i>
  </separator>
 </parameters>
 <atominfo>
  <atoms>      12 </atoms>
  <types>       3 </types>
  <array name="atoms" >
   <dimension dim="1">ion</dimension>
   <field type="string">element</field>
   <field type="int">atomtype</field>
   <set>
    <rc><c>Cu</c><c>   1</c></rc>
    <rc><c>Cu</c><c>   1</c></rc>
    <rc><c>Cu</c><c>   1</c></rc>
    <rc><c>Cu</c><c>   1</c></rc>
    <rc><c>Ge</c><c>   2</c></rc>
    <rc><c>Ge</c><c>   2</c></rc>
    <rc><c>S </c><c>   3</c></rc>
    <rc><c>S </c><c>   3</c></rc>
    <rc><c>S </c><c>   3</c></rc>
    <rc><c>S </c><c>   3</c></rc>
    <rc><c>S </c><c>   3</c></rc>
    <rc><c>S </c><c>   3</c></rc>
   </set>
  </array>
  <array name="atomtypes" >
   <dimension dim="1">type</dimension>
   <field type="int">atomspertype</field>
   <field type="string">element</field>
   <field>mass</field>
   <field>valence</field>
   <field type="string">pseudopotential</field>
   <set>
    <rc><c>   4</c><c>Cu</c><c>     63.54600000</c><c>     17.00000000</c><c>  PAW_PBE Cu_pv 06Sep2000               </c></rc>
    <rc><c>   2</c><c>Ge</c><c>     72.61000000</c><c>      4.00000000</c><c>  PAW_PBE Ge 05Jan2001                  </c></rc>
    <rc><c>   6</c><c>S </c><c>     32.06600000</c><c>      6.00000000</c><c>  PAW_PBE S 17Jan2003                   </c></rc>
   </set>
  </array>
 </atominfo>
 <structure name="initialpos" >
  <crystal>
   <varray name="basis" >
    <v>       3.22479600      -5.64383000       0.03157200 </v>
    <v>       3.22479600       5.64383000       0.03157200 </v>
    <v>      -2.10194600       0.00000000       6.07553700 </v>
   </varray>
   <i name="volume">    221.90106089 </i>
   <varray name="rec_basis" >
    <v>       0.15452516      -0.08859232       0.05346088 </v>
    <v>       0.15452516       0.08859232       0.05346088 </v>
    <v>      -0.00160600       0.00000000       0.16403888 </v>
   </varray>
  </crystal>
  <varray name="positions" >
   <v>       0.61844300       0.12117100       0.11953300 </v>
   <v>       0.12117100       0.61844300       0.61953300 </v>
   <v>       0.96295700       0.79032200       0.11881300 </v>
   <v>       0.79032200       0.96295700       0.61881300 </v>
   <v>       0.43973200       0.26728100       0.59904700 </v>
   <v>       0.26728100       0.43973200       0.09904700 </v>
   <v>       0.07949800       0.91167500       0.49736300 </v>
   <v>       0.57140300       0.41236400       0.98018400 </v>
   <v>       0.73711100       0.25006200       0.49660448 </v>
   <v>       0.41236400       0.57140300       0.48018400 </v>
   <v>       0.91167500       0.07949800       0.99736300 </v>
   <v>       0.25006200       0.73711100       0.99504900 </v>
  </varray>
 </structure>
 <calculation>
  <scstep>
   <time name="total">  250.45  250.90</time>
   <energy>
    <i name="alphaZ">    339.31929130 </i>
    <i name="ewald">  -9065.31165918 </i>
    <i name="hartreedc">  -8067.43755773 </i>
    <i name="XCdc">    369.90460070 </i>
    <i name="pawpsdc">  16899.65880756 </i>
    <i name="pawaedc"> -17392.47458809 </i>
    <i name="eentropy">     -0.00145427 </i>
    <i name="bandstr">  -1656.55799691 </i>
    <i name="atom">  18320.98302006 </i>
    <i name="e_fr_energy">     75.53513354 </i>
    <i name="e_wo_entrp">     75.53658781 </i>
    <i name="e_0_energy">     75.53561829 </i>
   </energy>
  </scstep>
  <scstep>
   <time name="total">  260.66  260.50</time>
   <energy>
    <i name="e_fr_energy">     -8.37852725 </i>
    <i name="e_wo_entrp">     -8.37775086 </i>
    <i name="e_0_energy">     -8.37826845 </i>
   </energy>
  </scstep>
  <scstep>
   <time name="total">  255.23  255.30</time>
   <energy>
    <i name="e_fr_energy">    -15.15410140 </i>
    <i name="e_wo_entrp">    -15.15423803 </i>
    <i name="e_0_energy">    -15.15414694 </i>
   </energy>
  </scstep>
  <scstep>
   <time name="total">  260.11  260.01</time>
   <energy>
    <i name="e_fr_energy">    -22.63171494 </i>
    <i name="e_wo_entrp">    -22.63204024 </i>
    <i name="e_0_energy">    -22.63182337 </i>
   </energy>
  </scstep>
  <scstep>
   <time name="total">  260.02  259.92</time>
   <energy>
    <i name="e_fr_energy">    -60.81825908 </i>
    <i name="e_wo_entrp">    -60.81888617 </i>
    <i name="e_0_energy">    -60.81846811 </i>
   </energy>
  </scstep>
  <scstep>
   <time name="total">  267.04  266.85</time>
   <energy>
    <i name="e_fr_energy">    -65.94277557 </i>
    <i name="e_wo_entrp">    -65.94345489 </i>
    <i name="e_0_energy">    -65.94300201 </i>
   </energy>
  </scstep>
  <scstep>
   <time name="total">  261.85  261.68</time>
   <energy>
    <i name="e_fr_energy">    -67.47898250 </i>
    <i name="e_wo_entrp">    -67.47942793 </i>
    <i name="e_0_energy">    -67.47913098 </i>
   </energy>
  </scstep>
  <scstep>
   <time name="total">  266.59  266.47</time>
   <energy>
    <i name="e_fr_energy">    -69.08590738 </i>
    <i name="e_wo_entrp">    -69.08665191 </i>
    <i name="e_0_energy">    -69.08615556 </i>
   </energy>
  </scstep>
  <scstep>
   <time name="total">  261.58  261.53</time>
   <energy>
    <i name="e_fr_energy">    -69.39537570 </i>
    <i name="e_wo_entrp">    -69.39625725 </i>
    <i name="e_0_energy">    -69.39566955 </i>
   </energy>
  </scstep>
  <scstep>
   <time name="total">  262.69  262.70</time>
   <energy>
    <i name="e_fr_energy">    -69.49893675 </i>
    <i name="e_wo_entrp">    -69.49966800 </i>
    <i name="e_0_energy">    -69.49918050 </i>
   </energy>
  </scstep>
  <scstep>
   <time name="total">  262.19  262.08</time>
   <energy>
    <i name="e_fr_energy">    -69.56839664 </i>
    <i name="e_wo_entrp">    -69.56901196 </i>
    <i name="e_0_energy">    -69.56860175 </i>
   </energy>
  </scstep>
  <scstep>
   <time name="total">  261.95  262.12</time>
   <energy>
    <i name="e_fr_energy">    -69.58076619 </i>
    <i name="e_wo_entrp">    -69.58132859 </i>
    <i name="e_0_energy">    -69.58095366 </i>
   </energy>
  </scstep>
  <scstep>
   <time name="total">  263.59  263.59</time>
   <energy>
    <i name="e_fr_energy">    -69.59039859 </i>
    <i name="e_wo_entrp">    -69.59094922 </i>
    <i name="e_0_energy">    -69.59058214 </i>
   </energy>
  </scstep>
  <scstep>
   <time name="total">  259.82  259.64</time>
   <energy>
    <i name="e_fr_energy">    -69.59285084 </i>
    <i name="e_wo_entrp">    -69.59342002 </i>
    <i name="e_0_energy">    -69.59304056 </i>
   </energy>
  </scstep>
  <scstep>
   <time name="total">  263.41  263.30</time>
   <energy>
    <i name="e_fr_energy">    -69.59435218 </i>
    <i name="e_wo_entrp">    -69.59493446 </i>
    <i name="e_0_energy">    -69.59454627 </i>
   </energy>
  </scstep>
  <scstep>
   <time name="total">  262.89  262.90</time>
   <energy>
    <i name="e_fr_energy">    -69.59492078 </i>
    <i name="e_wo_entrp">    -69.59550374 </i>
    <i name="e_0_energy">    -69.59511510 </i>
   </energy>
  </scstep>
  <scstep>
   <time name="total">  262.61  262.85</time>
   <energy>
    <i name="e_fr_energy">    -69.59509331 </i>
    <i name="e_wo_entrp">    -69.59567322 </i>
    <i name="e_0_energy">    -69.59528661 </i>
   </energy>
  </scstep>
  <scstep>
   <time name="total">  262.65  262.49</time>
   <energy>
    <i name="e_fr_energy">    -69.59520993 </i>
    <i name="e_wo_entrp">    -69.59578682 </i>
    <i name="e_0_energy">    -69.59540223 </i>
   </energy>
  </scstep>
  <scstep>
   <time name="total">  258.82  258.66</time>
   <energy>
    <i name="e_fr_energy">    -69.59523866 </i>
    <i name="e_wo_entrp">    -69.59581414 </i>
    <i name="e_0_energy">    -69.59543048 </i>
   </energy>
  </scstep>
  <scstep>
   <time name="total">  259.93  260.29</time>
   <energy>
    <i name="e_fr_energy">    -69.59525831 </i>
    <i name="e_wo_entrp">    -69.59583421 </i>
    <i name="e_0_energy">    -69.59545028 </i>
   </energy>
  </scstep>
  <scstep>
   <time name="total">  271.18  271.26</time>
   <energy>
    <i name="alphaZ">    339.31929130 </i>
    <i name="ewald">  -9065.31165918 </i>
    <i name="hartreedc">  -8148.83405352 </i>
    <i name="XCdc">    372.07033617 </i>
    <i name="pawpsdc">  15922.06087246 </i>
    <i name="pawaedc"> -16407.23811695 </i>
    <i name="eentropy">      0.00057651 </i>
    <i name="bandstr">  -1742.71673987 </i>
    <i name="atom">  18320.98302006 </i>
    <i name="e_fr_energy">    -69.59526566 </i>
    <i name="e_wo_entrp">    -69.59584217 </i>
    <i name="e_0_energy">    -69.59545783 </i>
   </energy>
  </scstep>
  <structure>
   <crystal>
    <varray name="basis" >
     <v>       3.22479600      -5.64383000       0.03157200 </v>
     <v>       3.22479600       5.64383000       0.03157200 </v>
     <v>      -2.10194600       0.00000000       6.07553700 </v>
    </varray>
    <i name="volume">    221.90106089 </i>
    <varray name="rec_basis" >
     <v>       0.15452516      -0.08859232       0.05346088 </v>
     <v>       0.15452516       0.08859232       0.05346088 </v>
     <v>      -0.00160600       0.00000000       0.16403888 </v>
    </varray>
   </crystal>
   <varray name="positions" >
    <v>       0.61844300       0.12117100       0.11953300 </v>
    <v>       0.12117100       0.61844300       0.61953300 </v>
    <v>       0.96295700       0.79032200       0.11881300 </v>
    <v>       0.79032200       0.96295700       0.61881300 </v>
    <v>       0.43973200       0.26728100       0.59904700 </v>
    <v>       0.26728100       0.43973200       0.09904700 </v>
    <v>       0.07949800       0.91167500       0.49736300 </v>
    <v>       0.57140300       0.41236400       0.98018400 </v>
    <v>       0.73711100       0.25006200       0.49660448 </v>
    <v>       0.41236400       0.57140300       0.48018400 </v>
    <v>       0.91167500       0.07949800       0.99736300 </v>
    <v>       0.25006200       0.73711100       0.99504900 </v>
   </varray>
  </structure>
  <varray name="forces" >
   <v>      -0.00258112      -0.00092830       0.02874081 </v>
   <v>       0.00059588       0.00272222       0.00046671 </v>
   <v>       0.00242635      -0.00049074       0.00036841 </v>
   <v>      -0.00589474      -0.01442634       0.00588391 </v>
   <v>      -0.02537938       0.04230852       0.02074323 </v>
   <v>       0.00118699      -0.00974552      -0.00012501 </v>
   <v>      -0.00210818       0.00325511      -0.00260093 </v>
   <v>      -0.00587086      -0.00238458       0.01141341 </v>
   <v>       0.03824632      -0.02173470      -0.08480202 </v>
   <v>      -0.00433108       0.00486380       0.00223013 </v>
   <v>       0.00009361      -0.00158639       0.00937444 </v>
   <v>       0.00361621      -0.00185308       0.00830691 </v>
  </varray>
  <energy>
   <i name="e_fr_energy">    -69.59526566 </i>
   <i name="e_wo_entrp">    -69.59545783 </i>
   <i name="e_0_energy">      0.00057651 </i>
  </energy>
  <time name="totalsc"> 6072.72 6073.60</time>
  <eigenvalues>
   <array>
    <dimension dim="1">band</dimension>
    <dimension dim="2">kpoint</dimension>
    <dimension dim="3">spin</dimension>
    <field>eigene</field>
    <field>occ</field>
    <set>
     <set comment="spin 1">
      <set comment="kpoint 1">
       <r>  -68.6471    1.0000 </r>
       <r>  -68.6388    1.0000 </r>
       <r>  -68.6370    1.0000 </r>
       <r>  -68.6325    1.0000 </r>
       <r>  -68.6147    1.0000 </r>
       <r>  -68.6032    1.0000 </r>
       <r>  -68.5978    1.0000 </r>
       <r>  -68.5879    1.0000 </r>
       <r>  -68.5820    1.0000 </r>
       <r>  -68.5768    1.0000 </r>
       <r>  -68.5663    1.0000 </r>
       <r>  -68.5599    1.0000 </r>
       <r>  -12.7228    1.0000 </r>
       <r>  -11.1327    1.0000 </r>
       <r>  -10.9182    1.0000 </r>
       <r>  -10.6035    1.0000 </r>
       <r>  -10.2527    1.0000 </r>
       <r>  -10.2361    1.0000 </r>
       <r>   -5.9834    1.0000 </r>
       <r>   -4.9843    1.0000 </r>
       <r>   -2.7632    1.0000 </r>
       <r>   -2.2110    1.0000 </r>
       <r>   -2.0696    1.0000 </r>
       <r>   -1.9235    1.0000 </r>
       <r>   -1.5765    1.0000 </r>
       <r>   -0.9832    1.0000 </r>
       <r>   -0.9507    1.0000 </r>
       <r>   -0.6831    1.0000 </r>
       <r>   -0.3968    1.0000 </r>
       <r>   -0.2773    1.0000 </r>
       <r>   -0.2596    1.0000 </r>
       <r>   -0.2350    1.0000 </r>
       <r>   -0.1852    1.0000 </r>
       <r>   -0.1576    1.0000 </r>
       <r>   -0.0440    1.0000 </r>
       <r>    0.0357    1.0000 </r>
       <r>    1.3516    1.0000 </r>
       <r>    1.3632    1.0000 </r>
       <r>    1.4151    1.0000 </r>
       <r>    1.4550    1.0000 </r>
       <r>    1.4718    1.0000 </r>
       <r>    1.4731    1.0000 </r>
       <r>    1.5219    1.0000 </r>
       <r>    1.5320    1.0000 </r>
       <r>    1.5774    1.0000 </r>
       <r>    1.7127    1.0000 </r>
       <r>    1.8911    1.0000 </r>
       <r>    1.9271    1.0000 </r>
       <r>    2.0586    1.0000 </r>
       <r>    2.6526    1.0000 </r>
       <r>    2.7283    1.0000 </r>
       <r>    3.0926    1.0000 </r>
       <r>    3.2187    1.0000 </r>
       <r>    4.0044    1.0050 </r>
       <r>    4.0353    1.0134 </r>
       <r>    4.1700    0.8587 </r>
       <r>    5.5421   -0.0000 </r>
       <r>    6.3582   -0.0000 </r>
       <r>    7.6287    0.0000 </r>
       <r>    7.9855    0.0000 </r>
       <r>    8.6252    0.0000 </r>
       <r>    8.7943    0.0000 </r>
       <r>    9.5802    0.0000 </r>
       <r>    9.7387    0.0000 </r>
       <r>    9.8183    0.0000 </r>
       <r>   10.4210    0.0000 </r>
       <r>   10.5780    0.0000 </r>
       <r>   10.6917    0.0000 </r>
       <r>   10.7119    0.0000 </r>
       <r>   11.2883    0.0000 </r>
       <r>   11.7070    0.0000 </r>
       <r>   12.3878    0.0000 </r>
       <r>   12.4541    0.0000 </r>
       <r>   12.7212    0.0000 </r>
       <r>   13.3201    0.0000 </r>
       <r>   13.3832    0.0000 </r>
       <r>   13.8310    0.0000 </r>
       <r>   13.8842    0.0000 </r>
       <r>   14.1457    0.0000 </r>
       <r>   14.1803    0.0000 </r>
      </set>
      <set comment="kpoint 2">
       <r>  -68.6471    1.0000 </r>
       <r>  -68.6387    1.0000 </r>
       <r>  -68.6370    1.0000 </r>
       <r>  -68.6325    1.0000 </r>
       <r>  -68.6146    1.0000 </r>
       <r>  -68.6031    1.0000 </r>
       <r>  -68.5978    1.0000 </r>
       <r>  -68.5880    1.0000 </r>
       <r>  -68.5819    1.0000 </r>
       <r>  -68.5768    1.0000 </r>
       <r>  -68.5663    1.0000 </r>
       <r>  -68.5599    1.0000 </r>
       <r>  -12.5978    1.0000 </r>
       <r>  -11.1319    1.0000 </r>
       <r>  -10.9825    1.0000 </r>
       <r>  -10.6773    1.0000 </r>
       <r>  -10.3665    1.0000 </r>
       <r>  -10.2794    1.0000 </r>
       <r>   -5.9322    1.0000 </r>
       <r>   -4.7737    1.0000 </r>
       <r>   -2.6464    1.0000 </r>
       <r>   -2.2549    1.0000 </r>
       <r>   -2.0861    1.0000 </r>
       <r>   -1.6885    1.0000 </r>
       <r>   -1.3482    1.0000 </r>
       <r>   -0.9993    1.0000 </r>
       <r>   -0.7682    1.0000 </r>
       <r>   -0.6218    1.0000 </r>
       <r>   -0.5538    1.0000 </r>
       <r>   -0.4383    1.0000 </r>
       <r>   -0.3557    1.0000 </r>
       <r>   -0.2395    1.0000 </r>
       <r>   -0.1937    1.0000 </r>
       <r>   -0.1664    1.0000 </r>
       <r>   -0.0500    1.0000 </r>
       <r>    0.0443    1.0000 </r>
       <r>    1.2801    1.0000 </r>
       <r>    1.3343    1.0000 </r>
       <r>    1.3539    1.0000 </r>
       <r>    1.3942    1.0000 </r>
       <r>    1.4298    1.0000 </r>
       <r>    1.4727    1.0000 </r>
       <r>    1.4965    1.0000 </r>
       <r>    1.5316    1.0000 </r>
       <r>    1.7253    1.0000 </r>
       <r>    1.8616    1.0000 </r>
       <r>    2.0556    1.0000 </r>
       <r>    2.0923    1.0000 </r>
       <r>    2.2309    1.0000 </r>
       <r>    2.4135    1.0000 </r>
       <r>    2.5573    1.0000 </r>
       <r>    2.8266    1.0000 </r>
       <r>    2.9478    1.0000 </r>
       <r>    3.2421    1.0000 </r>
       <r>    3.6591    1.0000 </r>
       <r>    4.0397    1.0151 </r>
       <r>    6.1749   -0.0000 </r>
       <r>    6.9068   -0.0000 </r>
       <r>    8.1350    0.0000 </r>
       <r>    8.2695    0.0000 </r>
       <r>    8.5993    0.0000 </r>
       <r>    9.0145    0.0000 </r>
       <r>    9.2431    0.0000 </r>
       <r>    9.5311    0.0000 </r>
       <r>    9.8683    0.0000 </r>
       <r>   10.3785    0.0000 </r>
       <r>   10.6296    0.0000 </r>
       <r>   10.8142    0.0000 </r>
       <r>   10.9391    0.0000 </r>
       <r>   11.1917    0.0000 </r>
       <r>   11.6522    0.0000 </r>
       <r>   11.7713    0.0000 </r>
       <r>   12.1179    0.0000 </r>
       <r>   12.4385    0.0000 </r>
       <r>   12.6208    0.0000 </r>
       <r>   13.0092    0.0000 </r>
       <r>   13.5024    0.0000 </r>
       <r>   13.8749    0.0000 </r>
       <r>   14.2109    0.0000 </r>
       <r>   14.7128    0.0000 </r>
      </set>
      <set comment="kpoint 3">
       <r>  -68.6470    1.0000 </r>
       <r>  -68.6386    1.0000 </r>
       <r>  -68.6368    1.0000 </r>
       <r>  -68.6324    1.0000 </r>
       <r>  -68.6146    1.0000 </r>
       <r>  -68.6031    1.0000 </r>
       <r>  -68.5977    1.0000 </r>
       <r>  -68.5879    1.0000 </r>
       <r>  -68.5819    1.0000 </r>
       <r>  -68.5767    1.0000 </r>
       <r>  -68.5661    1.0000 </r>
       <r>  -68.5597    1.0000 </r>
       <r>  -12.4384    1.0000 </r>
       <r>  -11.2534    1.0000 </r>
       <r>  -10.9570    1.0000 </r>
       <r>  -10.7657    1.0000 </r>
       <r>  -10.4264    1.0000 </r>
       <r>  -10.3604    1.0000 </r>
       <r>   -5.8703    1.0000 </r>
       <r>   -4.5485    1.0000 </r>
       <r>   -2.4942    1.0000 </r>
       <r>   -2.2460    1.0000 </r>
       <r>   -1.9445    1.0000 </r>
       <r>   -1.4664    1.0000 </r>
       <r>   -1.2275    1.0000 </r>
       <r>   -1.1002    1.0000 </r>
       <r>   -0.9016    1.0000 </r>
       <r>   -0.8696    1.0000 </r>
       <r>   -0.6006    1.0000 </r>
       <r>   -0.5340    1.0000 </r>
       <r>   -0.2674    1.0000 </r>
       <r>   -0.2067    1.0000 </r>
       <r>   -0.2007    1.0000 </r>
       <r>   -0.1402    1.0000 </r>
       <r>   -0.0313    1.0000 </r>
       <r>    0.0846    1.0000 </r>
       <r>    1.2545    1.0000 </r>
       <r>    1.3254    1.0000 </r>
       <r>    1.3498    1.0000 </r>
       <r>    1.4010    1.0000 </r>
       <r>    1.4705    1.0000 </r>
       <r>    1.4774    1.0000 </r>
       <r>    1.4999    1.0000 </r>
       <r>    1.5543    1.0000 </r>
       <r>    1.7538    1.0000 </r>
       <r>    1.7927    1.0000 </r>
       <r>    1.9648    1.0000 </r>
       <r>    2.1488    1.0000 </r>
       <r>    2.3185    1.0000 </r>
       <r>    2.3608    1.0000 </r>
       <r>    2.5586    1.0000 </r>
       <r>    2.6700    1.0000 </r>
       <r>    2.9382    1.0000 </r>
       <r>    3.0779    1.0000 </r>
       <r>    3.2454    1.0000 </r>
       <r>    3.8635    1.0000 </r>
       <r>    6.3904   -0.0000 </r>
       <r>    7.0985    0.0000 </r>
       <r>    7.9812    0.0000 </r>
       <r>    8.2038    0.0000 </r>
       <r>    8.5196    0.0000 </r>
       <r>    8.8209    0.0000 </r>
       <r>    9.3293    0.0000 </r>
       <r>    9.8862    0.0000 </r>
       <r>   10.0106    0.0000 </r>
       <r>   10.5218    0.0000 </r>
       <r>   10.6930    0.0000 </r>
       <r>   10.7905    0.0000 </r>
       <r>   11.1414    0.0000 </r>
       <r>   11.4103    0.0000 </r>
       <r>   11.6005    0.0000 </r>
       <r>   11.7759    0.0000 </r>
       <r>   11.9434    0.0000 </r>
       <r>   12.5129    0.0000 </r>
       <r>   12.7853    0.0000 </r>
       <r>   12.9936    0.0000 </r>
       <r>   13.3975    0.0000 </r>
       <r>   13.5446    0.0000 </r>
       <r>   13.9397    0.0000 </r>
       <r>   14.2757    0.0000 </r>
      </set>
      <set comment="kpoint 4">
       <r>  -68.6471    1.0000 </r>
       <r>  -68.6387    1.0000 </r>
       <r>  -68.6370    1.0000 </r>
       <r>  -68.6325    1.0000 </r>
       <r>  -68.6146    1.0000 </r>
       <r>  -68.6031    1.0000 </r>
       <r>  -68.5978    1.0000 </r>
       <r>  -68.5880    1.0000 </r>
       <r>  -68.5819    1.0000 </r>
       <r>  -68.5768    1.0000 </r>
       <r>  -68.5663    1.0000 </r>
       <r>  -68.5599    1.0000 </r>
       <r>  -12.5979    1.0000 </r>
       <r>  -11.1314    1.0000 </r>
       <r>  -10.9828    1.0000 </r>
       <r>  -10.6762    1.0000 </r>
       <r>  -10.3698    1.0000 </r>
       <r>  -10.2775    1.0000 </r>
       <r>   -5.9316    1.0000 </r>
       <r>   -4.7737    1.0000 </r>
       <r>   -2.6487    1.0000 </r>
       <r>   -2.2531    1.0000 </r>
       <r>   -2.0891    1.0000 </r>
       <r>   -1.6897    1.0000 </r>
       <r>   -1.3441    1.0000 </r>
       <r>   -0.9990    1.0000 </r>
       <r>   -0.7669    1.0000 </r>
       <r>   -0.6182    1.0000 </r>
       <r>   -0.5498    1.0000 </r>
       <r>   -0.4414    1.0000 </r>
       <r>   -0.3597    1.0000 </r>
       <r>   -0.2426    1.0000 </r>
       <r>   -0.1908    1.0000 </r>
       <r>   -0.1708    1.0000 </r>
       <r>   -0.0429    1.0000 </r>
       <r>    0.0401    1.0000 </r>
       <r>    1.2799    1.0000 </r>
       <r>    1.3371    1.0000 </r>
       <r>    1.3553    1.0000 </r>
       <r>    1.3923    1.0000 </r>
       <r>    1.4281    1.0000 </r>
       <r>    1.4723    1.0000 </r>
       <r>    1.4994    1.0000 </r>
       <r>    1.5301    1.0000 </r>
       <r>    1.7253    1.0000 </r>
       <r>    1.8572    1.0000 </r>
       <r>    2.0565    1.0000 </r>
       <r>    2.0950    1.0000 </r>
       <r>    2.2315    1.0000 </r>
       <r>    2.4125    1.0000 </r>
       <r>    2.5568    1.0000 </r>
       <r>    2.8263    1.0000 </r>
       <r>    2.9469    1.0000 </r>
       <r>    3.2417    1.0000 </r>
       <r>    3.6614    1.0000 </r>
       <r>    4.0376    1.0143 </r>
       <r>    6.1768   -0.0000 </r>
       <r>    6.9071   -0.0000 </r>
       <r>    8.1369    0.0000 </r>
       <r>    8.2695    0.0000 </r>
       <r>    8.5988    0.0000 </r>
       <r>    9.0144    0.0000 </r>
       <r>    9.2459    0.0000 </r>
       <r>    9.5318    0.0000 </r>
       <r>    9.8682    0.0000 </r>
       <r>   10.3775    0.0000 </r>
       <r>   10.6368    0.0000 </r>
       <r>   10.8088    0.0000 </r>
       <r>   10.9357    0.0000 </r>
       <r>   11.1897    0.0000 </r>
       <r>   11.6544    0.0000 </r>
       <r>   11.7694    0.0000 </r>
       <r>   12.1150    0.0000 </r>
       <r>   12.4457    0.0000 </r>
       <r>   12.6144    0.0000 </r>
       <r>   13.0041    0.0000 </r>
       <r>   13.5095    0.0000 </r>
       <r>   13.9015    0.0000 </r>
       <r>   14.2730    0.0000 </r>
       <r>   14.8432    0.0000 </r>
      </set>
      <set comment="kpoint 5">
       <r>  -68.6471    1.0000 </r>
       <r>  -68.6386    1.0000 </r>
       <r>  -68.6370    1.0000 </r>
       <r>  -68.6324    1.0000 </r>
       <r>  -68.6148    1.0000 </r>
       <r>  -68.6032    1.0000 </r>
       <r>  -68.5977    1.0000 </r>
       <r>  -68.5879    1.0000 </r>
       <r>  -68.5821    1.0000 </r>
       <r>  -68.5769    1.0000 </r>
       <r>  -68.5663    1.0000 </r>
       <r>  -68.5599    1.0000 </r>
       <r>  -12.4423    1.0000 </r>
       <r>  -11.1954    1.0000 </r>
       <r>  -10.9432    1.0000 </r>
       <r>  -10.8778    1.0000 </r>
       <r>  -10.3908    1.0000 </r>
       <r>  -10.3529    1.0000 </r>
       <r>   -5.8748    1.0000 </r>
       <r>   -4.5219    1.0000 </r>
       <r>   -2.4196    1.0000 </r>
       <r>   -2.2482    1.0000 </r>
       <r>   -1.7930    1.0000 </r>
       <r>   -1.6817    1.0000 </r>
       <r>   -1.3559    1.0000 </r>
       <r>   -1.2983    1.0000 </r>
       <r>   -1.0819    1.0000 </r>
       <r>   -0.6816    1.0000 </r>
       <r>   -0.5222    1.0000 </r>
       <r>   -0.2939    1.0000 </r>
       <r>   -0.2800    1.0000 </r>
       <r>   -0.2253    1.0000 </r>
       <r>   -0.1853    1.0000 </r>
       <r>   -0.1262    1.0000 </r>
       <r>   -0.0931    1.0000 </r>
       <r>    0.0830    1.0000 </r>
       <r>    1.2944    1.0000 </r>
       <r>    1.3118    1.0000 </r>
       <r>    1.4153    1.0000 </r>
       <r>    1.4286    1.0000 </r>
       <r>    1.4647    1.0000 </r>
       <r>    1.4828    1.0000 </r>
       <r>    1.4944    1.0000 </r>
       <r>    1.5693    1.0000 </r>
       <r>    1.6709    1.0000 </r>
       <r>    1.8783    1.0000 </r>
       <r>    1.9397    1.0000 </r>
       <r>    2.1345    1.0000 </r>
       <r>    2.2791    1.0000 </r>
       <r>    2.3214    1.0000 </r>
       <r>    2.5609    1.0000 </r>
       <r>    2.6514    1.0000 </r>
       <r>    2.9015    1.0000 </r>
       <r>    2.9450    1.0000 </r>
       <r>    3.6961    1.0000 </r>
       <r>    3.8327    1.0000 </r>
       <r>    6.1779   -0.0000 </r>
       <r>    6.9905    0.0000 </r>
       <r>    8.0039    0.0000 </r>
       <r>    8.3335    0.0000 </r>
       <r>    8.4342    0.0000 </r>
       <r>    8.5721    0.0000 </r>
       <r>    9.1482    0.0000 </r>
       <r>    9.2478    0.0000 </r>
       <r>   10.3602    0.0000 </r>
       <r>   10.4969    0.0000 </r>
       <r>   10.9160    0.0000 </r>
       <r>   11.1859    0.0000 </r>
       <r>   11.3293    0.0000 </r>
       <r>   11.5539    0.0000 </r>
       <r>   11.8192    0.0000 </r>
       <r>   11.9600    0.0000 </r>
       <r>   12.3137    0.0000 </r>
       <r>   12.5018    0.0000 </r>
       <r>   12.7113    0.0000 </r>
       <r>   12.9116    0.0000 </r>
       <r>   13.3392    0.0000 </r>
       <r>   13.4486    0.0000 </r>
       <r>   14.2538    0.0000 </r>
       <r>   14.3740    0.0000 </r>
      </set>
      <set comment="kpoint 6">
       <r>  -68.6469    1.0000 </r>
       <r>  -68.6387    1.0000 </r>
       <r>  -68.6367    1.0000 </r>
       <r>  -68.6325    1.0000 </r>
       <r>  -68.6145    1.0000 </r>
       <r>  -68.6029    1.0000 </r>
       <r>  -68.5978    1.0000 </r>
       <r>  -68.5879    1.0000 </r>
       <r>  -68.5819    1.0000 </r>
       <r>  -68.5767    1.0000 </r>
       <r>  -68.5661    1.0000 </r>
       <r>  -68.5597    1.0000 </r>
       <r>  -12.4424    1.0000 </r>
       <r>  -11.3585    1.0000 </r>
       <r>  -10.9381    1.0000 </r>
       <r>  -10.7380    1.0000 </r>
       <r>  -10.3910    1.0000 </r>
       <r>  -10.2726    1.0000 </r>
       <r>   -5.9470    1.0000 </r>
       <r>   -4.6424    1.0000 </r>
       <r>   -2.3905    1.0000 </r>
       <r>   -2.2279    1.0000 </r>
       <r>   -2.0565    1.0000 </r>
       <r>   -1.6403    1.0000 </r>
       <r>   -1.3693    1.0000 </r>
       <r>   -1.2817    1.0000 </r>
       <r>   -1.0231    1.0000 </r>
       <r>   -0.5095    1.0000 </r>
       <r>   -0.4853    1.0000 </r>
       <r>   -0.3295    1.0000 </r>
       <r>   -0.2821    1.0000 </r>
       <r>   -0.2113    1.0000 </r>
       <r>   -0.1501    1.0000 </r>
       <r>   -0.1299    1.0000 </r>
       <r>   -0.0107    1.0000 </r>
       <r>    0.1142    1.0000 </r>
       <r>    1.2470    1.0000 </r>
       <r>    1.3179    1.0000 </r>
       <r>    1.3811    1.0000 </r>
       <r>    1.4369    1.0000 </r>
       <r>    1.4620    1.0000 </r>
       <r>    1.4930    1.0000 </r>
       <r>    1.4980    1.0000 </r>
       <r>    1.5505    1.0000 </r>
       <r>    1.7506    1.0000 </r>
       <r>    1.8288    1.0000 </r>
       <r>    1.9200    1.0000 </r>
       <r>    2.1346    1.0000 </r>
       <r>    2.2203    1.0000 </r>
       <r>    2.3843    1.0000 </r>
       <r>    2.5626    1.0000 </r>
       <r>    2.7898    1.0000 </r>
       <r>    2.9784    1.0000 </r>
       <r>    3.3097    1.0000 </r>
       <r>    3.6006    1.0000 </r>
       <r>    3.7498    1.0000 </r>
       <r>    6.0925   -0.0000 </r>
       <r>    6.9401   -0.0000 </r>
       <r>    7.6114    0.0000 </r>
       <r>    8.0687    0.0000 </r>
       <r>    8.4147    0.0000 </r>
       <r>    8.6153    0.0000 </r>
       <r>    8.9840    0.0000 </r>
       <r>    9.1537    0.0000 </r>
       <r>   10.0875    0.0000 </r>
       <r>   10.3325    0.0000 </r>
       <r>   10.7373    0.0000 </r>
       <r>   11.1060    0.0000 </r>
       <r>   11.4578    0.0000 </r>
       <r>   11.5929    0.0000 </r>
       <r>   11.8037    0.0000 </r>
       <r>   12.0833    0.0000 </r>
       <r>   12.4754    0.0000 </r>
       <r>   12.9161    0.0000 </r>
       <r>   13.0395    0.0000 </r>
       <r>   13.8308    0.0000 </r>
       <r>   14.1941    0.0000 </r>
       <r>   14.6606    0.0000 </r>
       <r>   15.4370    0.0000 </r>
       <r>   15.6403    0.0000 </r>
      </set>
      <set comment="kpoint 7">
       <r>  -68.6471    1.0000 </r>
       <r>  -68.6387    1.0000 </r>
       <r>  -68.6370    1.0000 </r>
       <r>  -68.6324    1.0000 </r>
       <r>  -68.6146    1.0000 </r>
       <r>  -68.6030    1.0000 </r>
       <r>  -68.5978    1.0000 </r>
       <r>  -68.5880    1.0000 </r>
       <r>  -68.5819    1.0000 </r>
       <r>  -68.5767    1.0000 </r>
       <r>  -68.5663    1.0000 </r>
       <r>  -68.5599    1.0000 </r>
       <r>  -12.6006    1.0000 </r>
       <r>  -11.2556    1.0000 </r>
       <r>  -10.9914    1.0000 </r>
       <r>  -10.5697    1.0000 </r>
       <r>  -10.3700    1.0000 </r>
       <r>  -10.1806    1.0000 </r>
       <r>   -6.0090    1.0000 </r>
       <r>   -4.8949    1.0000 </r>
       <r>   -2.6472    1.0000 </r>
       <r>   -2.3145    1.0000 </r>
       <r>   -1.9746    1.0000 </r>
       <r>   -1.6483    1.0000 </r>
       <r>   -1.4960    1.0000 </r>
       <r>   -1.1814    1.0000 </r>
       <r>   -0.7898    1.0000 </r>
       <r>   -0.5844    1.0000 </r>
       <r>   -0.4468    1.0000 </r>
       <r>   -0.3356    1.0000 </r>
       <r>   -0.2920    1.0000 </r>
       <r>   -0.2289    1.0000 </r>
       <r>   -0.1741    1.0000 </r>
       <r>   -0.1302    1.0000 </r>
       <r>   -0.0063    1.0000 </r>
       <r>    0.0706    1.0000 </r>
       <r>    1.2594    1.0000 </r>
       <r>    1.3212    1.0000 </r>
       <r>    1.3677    1.0000 </r>
       <r>    1.4226    1.0000 </r>
       <r>    1.4302    1.0000 </r>
       <r>    1.4765    1.0000 </r>
       <r>    1.5037    1.0000 </r>
       <r>    1.5460    1.0000 </r>
       <r>    1.7275    1.0000 </r>
       <r>    1.8132    1.0000 </r>
       <r>    1.9936    1.0000 </r>
       <r>    2.0720    1.0000 </r>
       <r>    2.4163    1.0000 </r>
       <r>    2.4618    1.0000 </r>
       <r>    2.5278    1.0000 </r>
       <r>    2.8749    1.0000 </r>
       <r>    3.1411    1.0000 </r>
       <r>    3.2267    1.0000 </r>
       <r>    3.7830    1.0000 </r>
       <r>    4.0668    1.0271 </r>
       <r>    5.9840   -0.0000 </r>
       <r>    6.6899   -0.0000 </r>
       <r>    7.5342    0.0000 </r>
       <r>    8.2226    0.0000 </r>
       <r>    8.6214    0.0000 </r>
       <r>    8.9134    0.0000 </r>
       <r>    9.3087    0.0000 </r>
       <r>    9.4336    0.0000 </r>
       <r>    9.8058    0.0000 </r>
       <r>   10.2748    0.0000 </r>
       <r>   10.5454    0.0000 </r>
       <r>   10.8328    0.0000 </r>
       <r>   10.9730    0.0000 </r>
       <r>   11.3758    0.0000 </r>
       <r>   11.4717    0.0000 </r>
       <r>   11.7299    0.0000 </r>
       <r>   12.1008    0.0000 </r>
       <r>   12.6641    0.0000 </r>
       <r>   12.9450    0.0000 </r>
       <r>   13.0952    0.0000 </r>
       <r>   13.3516    0.0000 </r>
       <r>   13.5175    0.0000 </r>
       <r>   14.4770    0.0000 </r>
       <r>   14.7550    0.0000 </r>
      </set>
      <set comment="kpoint 8">
       <r>  -68.6469    1.0000 </r>
       <r>  -68.6386    1.0000 </r>
       <r>  -68.6369    1.0000 </r>
       <r>  -68.6324    1.0000 </r>
       <r>  -68.6146    1.0000 </r>
       <r>  -68.6030    1.0000 </r>
       <r>  -68.5977    1.0000 </r>
       <r>  -68.5879    1.0000 </r>
       <r>  -68.5819    1.0000 </r>
       <r>  -68.5768    1.0000 </r>
       <r>  -68.5661    1.0000 </r>
       <r>  -68.5597    1.0000 </r>
       <r>  -12.4385    1.0000 </r>
       <r>  -11.2533    1.0000 </r>
       <r>  -10.9567    1.0000 </r>
       <r>  -10.7632    1.0000 </r>
       <r>  -10.4325    1.0000 </r>
       <r>  -10.3573    1.0000 </r>
       <r>   -5.8692    1.0000 </r>
       <r>   -4.5488    1.0000 </r>
       <r>   -2.4974    1.0000 </r>
       <r>   -2.2464    1.0000 </r>
       <r>   -1.9475    1.0000 </r>
       <r>   -1.4652    1.0000 </r>
       <r>   -1.2241    1.0000 </r>
       <r>   -1.1019    1.0000 </r>
       <r>   -0.8999    1.0000 </r>
       <r>   -0.8649    1.0000 </r>
       <r>   -0.5969    1.0000 </r>
       <r>   -0.5300    1.0000 </r>
       <r>   -0.2741    1.0000 </r>
       <r>   -0.2050    1.0000 </r>
       <r>   -0.2016    1.0000 </r>
       <r>   -0.1469    1.0000 </r>
       <r>   -0.0292    1.0000 </r>
       <r>    0.0838    1.0000 </r>
       <r>    1.2551    1.0000 </r>
       <r>    1.3298    1.0000 </r>
       <r>    1.3490    1.0000 </r>
       <r>    1.3975    1.0000 </r>
       <r>    1.4720    1.0000 </r>
       <r>    1.4791    1.0000 </r>
       <r>    1.5016    1.0000 </r>
       <r>    1.5514    1.0000 </r>
       <r>    1.7515    1.0000 </r>
       <r>    1.7886    1.0000 </r>
       <r>    1.9694    1.0000 </r>
       <r>    2.1447    1.0000 </r>
       <r>    2.3222    1.0000 </r>
       <r>    2.3639    1.0000 </r>
       <r>    2.5527    1.0000 </r>
       <r>    2.6706    1.0000 </r>
       <r>    2.9339    1.0000 </r>
       <r>    3.0809    1.0000 </r>
       <r>    3.2495    1.0000 </r>
       <r>    3.8601    1.0000 </r>
       <r>    6.3927   -0.0000 </r>
       <r>    7.0984    0.0000 </r>
       <r>    7.9819    0.0000 </r>
       <r>    8.2054    0.0000 </r>
       <r>    8.5312    0.0000 </r>
       <r>    8.8200    0.0000 </r>
       <r>    9.3243    0.0000 </r>
       <r>    9.8890    0.0000 </r>
       <r>   10.0087    0.0000 </r>
       <r>   10.5167    0.0000 </r>
       <r>   10.6913    0.0000 </r>
       <r>   10.7942    0.0000 </r>
       <r>   11.1409    0.0000 </r>
       <r>   11.4016    0.0000 </r>
       <r>   11.6107    0.0000 </r>
       <r>   11.7715    0.0000 </r>
       <r>   11.9453    0.0000 </r>
       <r>   12.4900    0.0000 </r>
       <r>   12.8176    0.0000 </r>
       <r>   13.0402    0.0000 </r>
       <r>   13.5243    0.0000 </r>
       <r>   13.6653    0.0000 </r>
       <r>   14.5535    0.0000 </r>
       <r>   15.2533    0.0000 </r>
      </set>
      <set comment="kpoint 9">
       <r>  -68.6469    1.0000 </r>
       <r>  -68.6386    1.0000 </r>
       <r>  -68.6368    1.0000 </r>
       <r>  -68.6325    1.0000 </r>
       <r>  -68.6146    1.0000 </r>
       <r>  -68.6029    1.0000 </r>
       <r>  -68.5978    1.0000 </r>
       <r>  -68.5879    1.0000 </r>
       <r>  -68.5818    1.0000 </r>
       <r>  -68.5767    1.0000 </r>
       <r>  -68.5662    1.0000 </r>
       <r>  -68.5597    1.0000 </r>
       <r>  -12.4425    1.0000 </r>
       <r>  -11.3582    1.0000 </r>
       <r>  -10.9379    1.0000 </r>
       <r>  -10.7376    1.0000 </r>
       <r>  -10.3932    1.0000 </r>
       <r>  -10.2713    1.0000 </r>
       <r>   -5.9465    1.0000 </r>
       <r>   -4.6424    1.0000 </r>
       <r>   -2.3932    1.0000 </r>
       <r>   -2.2267    1.0000 </r>
       <r>   -2.0618    1.0000 </r>
       <r>   -1.6383    1.0000 </r>
       <r>   -1.3608    1.0000 </r>
       <r>   -1.2837    1.0000 </r>
       <r>   -1.0233    1.0000 </r>
       <r>   -0.5110    1.0000 </r>
       <r>   -0.4821    1.0000 </r>
       <r>   -0.3294    1.0000 </r>
       <r>   -0.2796    1.0000 </r>
       <r>   -0.2150    1.0000 </r>
       <r>   -0.1509    1.0000 </r>
       <r>   -0.1330    1.0000 </r>
       <r>   -0.0087    1.0000 </r>
       <r>    0.1136    1.0000 </r>
       <r>    1.2478    1.0000 </r>
       <r>    1.3155    1.0000 </r>
       <r>    1.3849    1.0000 </r>
       <r>    1.4386    1.0000 </r>
       <r>    1.4640    1.0000 </r>
       <r>    1.4909    1.0000 </r>
       <r>    1.4969    1.0000 </r>
       <r>    1.5481    1.0000 </r>
       <r>    1.7467    1.0000 </r>
       <r>    1.8273    1.0000 </r>
       <r>    1.9246    1.0000 </r>
       <r>    2.1347    1.0000 </r>
       <r>    2.2227    1.0000 </r>
       <r>    2.3847    1.0000 </r>
       <r>    2.5580    1.0000 </r>
       <r>    2.7902    1.0000 </r>
       <r>    2.9776    1.0000 </r>
       <r>    3.3111    1.0000 </r>
       <r>    3.6026    1.0000 </r>
       <r>    3.7476    1.0000 </r>
       <r>    6.0938   -0.0000 </r>
       <r>    6.9411   -0.0000 </r>
       <r>    7.6112    0.0000 </r>
       <r>    8.0682    0.0000 </r>
       <r>    8.4144    0.0000 </r>
       <r>    8.6189    0.0000 </r>
       <r>    8.9832    0.0000 </r>
       <r>    9.1521    0.0000 </r>
       <r>   10.0816    0.0000 </r>
       <r>   10.3446    0.0000 </r>
       <r>   10.7345    0.0000 </r>
       <r>   11.1093    0.0000 </r>
       <r>   11.4571    0.0000 </r>
       <r>   11.5776    0.0000 </r>
       <r>   11.7785    0.0000 </r>
       <r>   12.0302    0.0000 </r>
       <r>   12.5188    0.0000 </r>
       <r>   12.6859    0.0000 </r>
       <r>   12.9109    0.0000 </r>
       <r>   13.2132    0.0000 </r>
       <r>   14.2280    0.0000 </r>
       <r>   14.7791    0.0000 </r>
       <r>   15.2451    0.0000 </r>
       <r>   15.9035    0.0000 </r>
      </set>
      <set comment="kpoint 10">
       <r>  -68.6467    1.0000 </r>
       <r>  -68.6384    1.0000 </r>
       <r>  -68.6366    1.0000 </r>
       <r>  -68.6323    1.0000 </r>
       <r>  -68.6144    1.0000 </r>
       <r>  -68.6029    1.0000 </r>
       <r>  -68.5976    1.0000 </r>
       <r>  -68.5877    1.0000 </r>
       <r>  -68.5818    1.0000 </r>
       <r>  -68.5766    1.0000 </r>
       <r>  -68.5659    1.0000 </r>
       <r>  -68.5595    1.0000 </r>
       <r>  -12.4340    1.0000 </r>
       <r>  -11.5055    1.0000 </r>
       <r>  -10.9131    1.0000 </r>
       <r>  -10.6173    1.0000 </r>
       <r>  -10.4018    1.0000 </r>
       <r>  -10.1995    1.0000 </r>
       <r>   -6.0253    1.0000 </r>
       <r>   -4.8102    1.0000 </r>
       <r>   -2.3095    1.0000 </r>
       <r>   -2.2661    1.0000 </r>
       <r>   -2.0928    1.0000 </r>
       <r>   -1.7061    1.0000 </r>
       <r>   -1.2519    1.0000 </r>
       <r>   -1.1114    1.0000 </r>
       <r>   -0.8412    1.0000 </r>
       <r>   -0.7801    1.0000 </r>
       <r>   -0.7276    1.0000 </r>
       <r>   -0.2412    1.0000 </r>
       <r>   -0.1973    1.0000 </r>
       <r>   -0.1751    1.0000 </r>
       <r>   -0.1517    1.0000 </r>
       <r>   -0.0410    1.0000 </r>
       <r>    0.0007    1.0000 </r>
       <r>    0.1835    1.0000 </r>
       <r>    1.2650    1.0000 </r>
       <r>    1.3200    1.0000 </r>
       <r>    1.3777    1.0000 </r>
       <r>    1.4128    1.0000 </r>
       <r>    1.4318    1.0000 </r>
       <r>    1.4958    1.0000 </r>
       <r>    1.5070    1.0000 </r>
       <r>    1.5524    1.0000 </r>
       <r>    1.7872    1.0000 </r>
       <r>    1.8498    1.0000 </r>
       <r>    1.9939    1.0000 </r>
       <r>    2.1500    1.0000 </r>
       <r>    2.2505    1.0000 </r>
       <r>    2.3402    1.0000 </r>
       <r>    2.5592    1.0000 </r>
       <r>    2.7599    1.0000 </r>
       <r>    2.7751    1.0000 </r>
       <r>    3.3660    1.0000 </r>
       <r>    3.7651    1.0000 </r>
       <r>    4.0043    1.0050 </r>
       <r>    5.8589   -0.0000 </r>
       <r>    6.7671   -0.0000 </r>
       <r>    7.0835    0.0000 </r>
       <r>    8.4111    0.0000 </r>
       <r>    8.5598    0.0000 </r>
       <r>    8.7708    0.0000 </r>
       <r>    9.1457    0.0000 </r>
       <r>    9.2450    0.0000 </r>
       <r>    9.9588    0.0000 </r>
       <r>   10.2857    0.0000 </r>
       <r>   10.7349    0.0000 </r>
       <r>   10.8264    0.0000 </r>
       <r>   10.8730    0.0000 </r>
       <r>   11.2736    0.0000 </r>
       <r>   11.7600    0.0000 </r>
       <r>   11.9142    0.0000 </r>
       <r>   11.9729    0.0000 </r>
       <r>   12.3625    0.0000 </r>
       <r>   12.5395    0.0000 </r>
       <r>   13.4566    0.0000 </r>
       <r>   14.2868    0.0000 </r>
       <r>   14.6747    0.0000 </r>
       <r>   16.7449    0.0000 </r>
       <r>   16.7586    0.0000 </r>
      </set>
      <set comment="kpoint 11">
       <r>  -68.6471    1.0000 </r>
       <r>  -68.6387    1.0000 </r>
       <r>  -68.6370    1.0000 </r>
       <r>  -68.6325    1.0000 </r>
       <r>  -68.6147    1.0000 </r>
       <r>  -68.6031    1.0000 </r>
       <r>  -68.5978    1.0000 </r>
       <r>  -68.5880    1.0000 </r>
       <r>  -68.5820    1.0000 </r>
       <r>  -68.5768    1.0000 </r>
       <r>  -68.5663    1.0000 </r>
       <r>  -68.5599    1.0000 </r>
       <r>  -12.6197    1.0000 </r>
       <r>  -11.4280    1.0000 </r>
       <r>  -10.7797    1.0000 </r>
       <r>  -10.6087    1.0000 </r>
       <r>  -10.2515    1.0000 </r>
       <r>  -10.2380    1.0000 </r>
       <r>   -5.8303    1.0000 </r>
       <r>   -5.0477    1.0000 </r>
       <r>   -2.6022    1.0000 </r>
       <r>   -2.3725    1.0000 </r>
       <r>   -1.9627    1.0000 </r>
       <r>   -1.7764    1.0000 </r>
       <r>   -1.4452    1.0000 </r>
       <r>   -1.1246    1.0000 </r>
       <r>   -1.0638    1.0000 </r>
       <r>   -0.7707    1.0000 </r>
       <r>   -0.4685    1.0000 </r>
       <r>   -0.2902    1.0000 </r>
       <r>   -0.2392    1.0000 </r>
       <r>   -0.2336    1.0000 </r>
       <r>   -0.1889    1.0000 </r>
       <r>   -0.1468    1.0000 </r>
       <r>   -0.0206    1.0000 </r>
       <r>    0.0269    1.0000 </r>
       <r>    1.3346    1.0000 </r>
       <r>    1.3821    1.0000 </r>
       <r>    1.4185    1.0000 </r>
       <r>    1.4399    1.0000 </r>
       <r>    1.4622    1.0000 </r>
       <r>    1.4673    1.0000 </r>
       <r>    1.5151    1.0000 </r>
       <r>    1.5448    1.0000 </r>
       <r>    1.6341    1.0000 </r>
       <r>    1.7604    1.0000 </r>
       <r>    1.7872    1.0000 </r>
       <r>    1.9480    1.0000 </r>
       <r>    2.0882    1.0000 </r>
       <r>    2.6590    1.0000 </r>
       <r>    2.7200    1.0000 </r>
       <r>    3.1962    1.0000 </r>
       <r>    3.2545    1.0000 </r>
       <r>    3.5192    1.0000 </r>
       <r>    3.8931    1.0000 </r>
       <r>    3.9761    1.0016 </r>
       <r>    6.0498   -0.0000 </r>
       <r>    6.4172   -0.0000 </r>
       <r>    7.8244    0.0000 </r>
       <r>    7.9079    0.0000 </r>
       <r>    8.3696    0.0000 </r>
       <r>    8.8207    0.0000 </r>
       <r>    9.7774    0.0000 </r>
       <r>    9.7983    0.0000 </r>
       <r>   10.0639    0.0000 </r>
       <r>   10.5832    0.0000 </r>
       <r>   10.6453    0.0000 </r>
       <r>   10.8160    0.0000 </r>
       <r>   10.8543    0.0000 </r>
       <r>   11.4939    0.0000 </r>
       <r>   11.5545    0.0000 </r>
       <r>   12.0237    0.0000 </r>
       <r>   12.5825    0.0000 </r>
       <r>   12.7732    0.0000 </r>
       <r>   12.9117    0.0000 </r>
       <r>   13.2005    0.0000 </r>
       <r>   13.5314    0.0000 </r>
       <r>   13.8201    0.0000 </r>
       <r>   14.1965    0.0000 </r>
       <r>   14.7035    0.0000 </r>
      </set>
      <set comment="kpoint 12">
       <r>  -68.6471    1.0000 </r>
       <r>  -68.6387    1.0000 </r>
       <r>  -68.6370    1.0000 </r>
       <r>  -68.6324    1.0000 </r>
       <r>  -68.6147    1.0000 </r>
       <r>  -68.6031    1.0000 </r>
       <r>  -68.5978    1.0000 </r>
       <r>  -68.5879    1.0000 </r>
       <r>  -68.5820    1.0000 </r>
       <r>  -68.5768    1.0000 </r>
       <r>  -68.5662    1.0000 </r>
       <r>  -68.5598    1.0000 </r>
       <r>  -12.4605    1.0000 </r>
       <r>  -11.4699    1.0000 </r>
       <r>  -10.8646    1.0000 </r>
       <r>  -10.6910    1.0000 </r>
       <r>  -10.3734    1.0000 </r>
       <r>  -10.2468    1.0000 </r>
       <r>   -5.7665    1.0000 </r>
       <r>   -4.8046    1.0000 </r>
       <r>   -2.4453    1.0000 </r>
       <r>   -2.2343    1.0000 </r>
       <r>   -1.8505    1.0000 </r>
       <r>   -1.7141    1.0000 </r>
       <r>   -1.4370    1.0000 </r>
       <r>   -1.1868    1.0000 </r>
       <r>   -0.8891    1.0000 </r>
       <r>   -0.7468    1.0000 </r>
       <r>   -0.6015    1.0000 </r>
       <r>   -0.5241    1.0000 </r>
       <r>   -0.3090    1.0000 </r>
       <r>   -0.2420    1.0000 </r>
       <r>   -0.1734    1.0000 </r>
       <r>   -0.1201    1.0000 </r>
       <r>   -0.0553    1.0000 </r>
       <r>    0.0643    1.0000 </r>
       <r>    1.3021    1.0000 </r>
       <r>    1.3384    1.0000 </r>
       <r>    1.3704    1.0000 </r>
       <r>    1.4290    1.0000 </r>
       <r>    1.4481    1.0000 </r>
       <r>    1.4793    1.0000 </r>
       <r>    1.5226    1.0000 </r>
       <r>    1.5462    1.0000 </r>
       <r>    1.6434    1.0000 </r>
       <r>    1.8726    1.0000 </r>
       <r>    1.9751    1.0000 </r>
       <r>    2.0481    1.0000 </r>
       <r>    2.1958    1.0000 </r>
       <r>    2.4736    1.0000 </r>
       <r>    2.5968    1.0000 </r>
       <r>    2.8383    1.0000 </r>
       <r>    2.9646    1.0000 </r>
       <r>    3.1339    1.0000 </r>
       <r>    3.5668    1.0000 </r>
       <r>    3.7237    1.0000 </r>
       <r>    6.4467   -0.0000 </r>
       <r>    6.9586    0.0000 </r>
       <r>    8.1727    0.0000 </r>
       <r>    8.2473    0.0000 </r>
       <r>    8.8324    0.0000 </r>
       <r>    9.1304    0.0000 </r>
       <r>    9.4629    0.0000 </r>
       <r>    9.7983    0.0000 </r>
       <r>   10.0902    0.0000 </r>
       <r>   10.3006    0.0000 </r>
       <r>   10.7366    0.0000 </r>
       <r>   11.0762    0.0000 </r>
       <r>   11.2885    0.0000 </r>
       <r>   11.4209    0.0000 </r>
       <r>   11.6268    0.0000 </r>
       <r>   11.7297    0.0000 </r>
       <r>   12.0845    0.0000 </r>
       <r>   12.2694    0.0000 </r>
       <r>   12.5404    0.0000 </r>
       <r>   12.6586    0.0000 </r>
       <r>   12.9584    0.0000 </r>
       <r>   13.0588    0.0000 </r>
       <r>   13.6432    0.0000 </r>
       <r>   14.6934    0.0000 </r>
      </set>
      <set comment="kpoint 13">
       <r>  -68.6469    1.0000 </r>
       <r>  -68.6386    1.0000 </r>
       <r>  -68.6367    1.0000 </r>
       <r>  -68.6325    1.0000 </r>
       <r>  -68.6146    1.0000 </r>
       <r>  -68.6030    1.0000 </r>
       <r>  -68.5977    1.0000 </r>
       <r>  -68.5879    1.0000 </r>
       <r>  -68.5819    1.0000 </r>
       <r>  -68.5767    1.0000 </r>
       <r>  -68.5662    1.0000 </r>
       <r>  -68.5598    1.0000 </r>
       <r>  -12.3582    1.0000 </r>
       <r>  -11.4168    1.0000 </r>
       <r>  -10.9535    1.0000 </r>
       <r>  -10.6862    1.0000 </r>
       <r>  -10.4780    1.0000 </r>
       <r>  -10.3362    1.0000 </r>
       <r>   -5.7516    1.0000 </r>
       <r>   -4.7224    1.0000 </r>
       <r>   -2.5226    1.0000 </r>
       <r>   -2.1863    1.0000 </r>
       <r>   -1.9519    1.0000 </r>
       <r>   -1.5370    1.0000 </r>
       <r>   -1.2989    1.0000 </r>
       <r>   -1.0987    1.0000 </r>
       <r>   -0.8759    1.0000 </r>
       <r>   -0.7560    1.0000 </r>
       <r>   -0.5487    1.0000 </r>
       <r>   -0.4463    1.0000 </r>
       <r>   -0.2866    1.0000 </r>
       <r>   -0.1783    1.0000 </r>
       <r>   -0.1431    1.0000 </r>
       <r>   -0.1045    1.0000 </r>
       <r>   -0.0453    1.0000 </r>
       <r>    0.0270    1.0000 </r>
       <r>    1.2718    1.0000 </r>
       <r>    1.2985    1.0000 </r>
       <r>    1.3541    1.0000 </r>
       <r>    1.4295    1.0000 </r>
       <r>    1.4537    1.0000 </r>
       <r>    1.4802    1.0000 </r>
       <r>    1.5019    1.0000 </r>
       <r>    1.5880    1.0000 </r>
       <r>    1.7198    1.0000 </r>
       <r>    1.9341    1.0000 </r>
       <r>    2.0756    1.0000 </r>
       <r>    2.1468    1.0000 </r>
       <r>    2.2667    1.0000 </r>
       <r>    2.4026    1.0000 </r>
       <r>    2.5682    1.0000 </r>
       <r>    2.5981    1.0000 </r>
       <r>    2.8994    1.0000 </r>
       <r>    3.0080    1.0000 </r>
       <r>    3.3546    1.0000 </r>
       <r>    3.9001    1.0000 </r>
       <r>    6.3704   -0.0000 </r>
       <r>    6.8980   -0.0000 </r>
       <r>    7.5757    0.0000 </r>
       <r>    8.0843    0.0000 </r>
       <r>    8.5483    0.0000 </r>
       <r>    8.7973    0.0000 </r>
       <r>    9.2780    0.0000 </r>
       <r>    9.6319    0.0000 </r>
       <r>    9.9312    0.0000 </r>
       <r>   10.2795    0.0000 </r>
       <r>   10.6548    0.0000 </r>
       <r>   10.9286    0.0000 </r>
       <r>   10.9645    0.0000 </r>
       <r>   11.2807    0.0000 </r>
       <r>   11.5248    0.0000 </r>
       <r>   11.7888    0.0000 </r>
       <r>   12.2461    0.0000 </r>
       <r>   12.5479    0.0000 </r>
       <r>   13.0934    0.0000 </r>
       <r>   13.5191    0.0000 </r>
       <r>   14.2982    0.0000 </r>
       <r>   14.5498    0.0000 </r>
       <r>   15.1231    0.0000 </r>
       <r>   16.2709    0.0000 </r>
      </set>
      <set comment="kpoint 14">
       <r>  -68.6471    1.0000 </r>
       <r>  -68.6387    1.0000 </r>
       <r>  -68.6370    1.0000 </r>
       <r>  -68.6324    1.0000 </r>
       <r>  -68.6147    1.0000 </r>
       <r>  -68.6031    1.0000 </r>
       <r>  -68.5978    1.0000 </r>
       <r>  -68.5880    1.0000 </r>
       <r>  -68.5820    1.0000 </r>
       <r>  -68.5768    1.0000 </r>
       <r>  -68.5663    1.0000 </r>
       <r>  -68.5599    1.0000 </r>
       <r>  -12.5434    1.0000 </r>
       <r>  -11.3400    1.0000 </r>
       <r>  -10.8743    1.0000 </r>
       <r>  -10.6072    1.0000 </r>
       <r>  -10.3993    1.0000 </r>
       <r>  -10.2847    1.0000 </r>
       <r>   -5.8238    1.0000 </r>
       <r>   -4.9754    1.0000 </r>
       <r>   -2.6657    1.0000 </r>
       <r>   -2.4539    1.0000 </r>
       <r>   -2.0394    1.0000 </r>
       <r>   -1.5773    1.0000 </r>
       <r>   -1.1742    1.0000 </r>
       <r>   -0.9829    1.0000 </r>
       <r>   -0.7929    1.0000 </r>
       <r>   -0.6540    1.0000 </r>
       <r>   -0.5155    1.0000 </r>
       <r>   -0.3906    1.0000 </r>
       <r>   -0.2682    1.0000 </r>
       <r>   -0.2544    1.0000 </r>
       <r>   -0.1882    1.0000 </r>
       <r>   -0.1461    1.0000 </r>
       <r>   -0.0476    1.0000 </r>
       <r>    0.0200    1.0000 </r>
       <r>    1.2882    1.0000 </r>
       <r>    1.3125    1.0000 </r>
       <r>    1.3877    1.0000 </r>
       <r>    1.4107    1.0000 </r>
       <r>    1.4364    1.0000 </r>
       <r>    1.4572    1.0000 </r>
       <r>    1.4921    1.0000 </r>
       <r>    1.5664    1.0000 </r>
       <r>    1.6890    1.0000 </r>
       <r>    1.9155    1.0000 </r>
       <r>    1.9886    1.0000 </r>
       <r>    2.1437    1.0000 </r>
       <r>    2.3346    1.0000 </r>
       <r>    2.5645    1.0000 </r>
       <r>    2.6174    1.0000 </r>
       <r>    2.8283    1.0000 </r>
       <r>    2.9745    1.0000 </r>
       <r>    3.2473    1.0000 </r>
       <r>    3.6793    1.0000 </r>
       <r>    3.9434    1.0004 </r>
       <r>    6.1824   -0.0000 </r>
       <r>    6.6390   -0.0000 </r>
       <r>    7.7640    0.0000 </r>
       <r>    7.9739    0.0000 </r>
       <r>    8.2195    0.0000 </r>
       <r>    8.5659    0.0000 </r>
       <r>    9.3791    0.0000 </r>
       <r>    9.5784    0.0000 </r>
       <r>    9.9095    0.0000 </r>
       <r>   10.2508    0.0000 </r>
       <r>   10.5401    0.0000 </r>
       <r>   10.7897    0.0000 </r>
       <r>   10.8435    0.0000 </r>
       <r>   11.0717    0.0000 </r>
       <r>   11.5625    0.0000 </r>
       <r>   12.0208    0.0000 </r>
       <r>   12.5283    0.0000 </r>
       <r>   12.7514    0.0000 </r>
       <r>   12.9472    0.0000 </r>
       <r>   13.3105    0.0000 </r>
       <r>   13.4122    0.0000 </r>
       <r>   13.7379    0.0000 </r>
       <r>   13.8493    0.0000 </r>
       <r>   14.7282    0.0000 </r>
      </set>
      <set comment="kpoint 15">
       <r>  -68.6471    1.0000 </r>
       <r>  -68.6387    1.0000 </r>
       <r>  -68.6370    1.0000 </r>
       <r>  -68.6324    1.0000 </r>
       <r>  -68.6147    1.0000 </r>
       <r>  -68.6032    1.0000 </r>
       <r>  -68.5978    1.0000 </r>
       <r>  -68.5879    1.0000 </r>
       <r>  -68.5820    1.0000 </r>
       <r>  -68.5768    1.0000 </r>
       <r>  -68.5662    1.0000 </r>
       <r>  -68.5598    1.0000 </r>
       <r>  -12.4606    1.0000 </r>
       <r>  -11.4697    1.0000 </r>
       <r>  -10.8654    1.0000 </r>
       <r>  -10.6889    1.0000 </r>
       <r>  -10.3747    1.0000 </r>
       <r>  -10.2471    1.0000 </r>
       <r>   -5.7657    1.0000 </r>
       <r>   -4.8048    1.0000 </r>
       <r>   -2.4470    1.0000 </r>
       <r>   -2.2341    1.0000 </r>
       <r>   -1.8532    1.0000 </r>
       <r>   -1.7140    1.0000 </r>
       <r>   -1.4328    1.0000 </r>
       <r>   -1.1899    1.0000 </r>
       <r>   -0.8890    1.0000 </r>
       <r>   -0.7372    1.0000 </r>
       <r>   -0.6059    1.0000 </r>
       <r>   -0.5223    1.0000 </r>
       <r>   -0.3131    1.0000 </r>
       <r>   -0.2458    1.0000 </r>
       <r>   -0.1719    1.0000 </r>
       <r>   -0.1207    1.0000 </r>
       <r>   -0.0498    1.0000 </r>
       <r>    0.0611    1.0000 </r>
       <r>    1.3035    1.0000 </r>
       <r>    1.3362    1.0000 </r>
       <r>    1.3704    1.0000 </r>
       <r>    1.4328    1.0000 </r>
       <r>    1.4463    1.0000 </r>
       <r>    1.4818    1.0000 </r>
       <r>    1.5207    1.0000 </r>
       <r>    1.5470    1.0000 </r>
       <r>    1.6422    1.0000 </r>
       <r>    1.8665    1.0000 </r>
       <r>    1.9806    1.0000 </r>
       <r>    2.0468    1.0000 </r>
       <r>    2.1959    1.0000 </r>
       <r>    2.4744    1.0000 </r>
       <r>    2.5958    1.0000 </r>
       <r>    2.8399    1.0000 </r>
       <r>    2.9611    1.0000 </r>
       <r>    3.1347    1.0000 </r>
       <r>    3.5679    1.0000 </r>
       <r>    3.7233    1.0000 </r>
       <r>    6.4482   -0.0000 </r>
       <r>    6.9601    0.0000 </r>
       <r>    8.1755    0.0000 </r>
       <r>    8.2456    0.0000 </r>
       <r>    8.8325    0.0000 </r>
       <r>    9.1297    0.0000 </r>
       <r>    9.4676    0.0000 </r>
       <r>    9.7966    0.0000 </r>
       <r>   10.0832    0.0000 </r>
       <r>   10.3017    0.0000 </r>
       <r>   10.7363    0.0000 </r>
       <r>   11.0784    0.0000 </r>
       <r>   11.2918    0.0000 </r>
       <r>   11.4225    0.0000 </r>
       <r>   11.6329    0.0000 </r>
       <r>   11.7255    0.0000 </r>
       <r>   12.0820    0.0000 </r>
       <r>   12.2602    0.0000 </r>
       <r>   12.5386    0.0000 </r>
       <r>   12.6591    0.0000 </r>
       <r>   12.9501    0.0000 </r>
       <r>   13.0609    0.0000 </r>
       <r>   13.6533    0.0000 </r>
       <r>   14.6956    0.0000 </r>
      </set>
      <set comment="kpoint 16">
       <r>  -68.6470    1.0000 </r>
       <r>  -68.6386    1.0000 </r>
       <r>  -68.6369    1.0000 </r>
       <r>  -68.6323    1.0000 </r>
       <r>  -68.6145    1.0000 </r>
       <r>  -68.6030    1.0000 </r>
       <r>  -68.5976    1.0000 </r>
       <r>  -68.5878    1.0000 </r>
       <r>  -68.5819    1.0000 </r>
       <r>  -68.5767    1.0000 </r>
       <r>  -68.5661    1.0000 </r>
       <r>  -68.5597    1.0000 </r>
       <r>  -12.3286    1.0000 </r>
       <r>  -11.4790    1.0000 </r>
       <r>  -10.8632    1.0000 </r>
       <r>  -10.8580    1.0000 </r>
       <r>  -10.4063    1.0000 </r>
       <r>  -10.2898    1.0000 </r>
       <r>   -5.7475    1.0000 </r>
       <r>   -4.6919    1.0000 </r>
       <r>   -2.2428    1.0000 </r>
       <r>   -2.1395    1.0000 </r>
       <r>   -1.9284    1.0000 </r>
       <r>   -1.8530    1.0000 </r>
       <r>   -1.4534    1.0000 </r>
       <r>   -1.3942    1.0000 </r>
       <r>   -1.0422    1.0000 </r>
       <r>   -0.5170    1.0000 </r>
       <r>   -0.4613    1.0000 </r>
       <r>   -0.3489    1.0000 </r>
       <r>   -0.2455    1.0000 </r>
       <r>   -0.2185    1.0000 </r>
       <r>   -0.1571    1.0000 </r>
       <r>   -0.1113    1.0000 </r>
       <r>   -0.0912    1.0000 </r>
       <r>    0.0820    1.0000 </r>
       <r>    1.2623    1.0000 </r>
       <r>    1.3491    1.0000 </r>
       <r>    1.3962    1.0000 </r>
       <r>    1.4361    1.0000 </r>
       <r>    1.4538    1.0000 </r>
       <r>    1.5106    1.0000 </r>
       <r>    1.5367    1.0000 </r>
       <r>    1.5456    1.0000 </r>
       <r>    1.7527    1.0000 </r>
       <r>    1.8169    1.0000 </r>
       <r>    2.0399    1.0000 </r>
       <r>    2.1346    1.0000 </r>
       <r>    2.2872    1.0000 </r>
       <r>    2.3103    1.0000 </r>
       <r>    2.5211    1.0000 </r>
       <r>    2.7694    1.0000 </r>
       <r>    2.8961    1.0000 </r>
       <r>    3.2609    1.0000 </r>
       <r>    3.4976    1.0000 </r>
       <r>    3.7978    1.0000 </r>
       <r>    6.1893   -0.0000 </r>
       <r>    6.8428   -0.0000 </r>
       <r>    7.8296    0.0000 </r>
       <r>    8.0455    0.0000 </r>
       <r>    8.1889    0.0000 </r>
       <r>    8.7279    0.0000 </r>
       <r>    9.1526    0.0000 </r>
       <r>    9.3092    0.0000 </r>
       <r>   10.2206    0.0000 </r>
       <r>   10.4350    0.0000 </r>
       <r>   10.5947    0.0000 </r>
       <r>   11.0082    0.0000 </r>
       <r>   11.2337    0.0000 </r>
       <r>   11.4914    0.0000 </r>
       <r>   11.8099    0.0000 </r>
       <r>   12.1699    0.0000 </r>
       <r>   12.2104    0.0000 </r>
       <r>   12.5765    0.0000 </r>
       <r>   12.6950    0.0000 </r>
       <r>   13.1124    0.0000 </r>
       <r>   13.4194    0.0000 </r>
       <r>   13.8777    0.0000 </r>
       <r>   14.0041    0.0000 </r>
       <r>   14.5227    0.0000 </r>
      </set>
      <set comment="kpoint 17">
       <r>  -68.6468    1.0000 </r>
       <r>  -68.6387    1.0000 </r>
       <r>  -68.6367    1.0000 </r>
       <r>  -68.6325    1.0000 </r>
       <r>  -68.6146    1.0000 </r>
       <r>  -68.6029    1.0000 </r>
       <r>  -68.5978    1.0000 </r>
       <r>  -68.5879    1.0000 </r>
       <r>  -68.5819    1.0000 </r>
       <r>  -68.5767    1.0000 </r>
       <r>  -68.5661    1.0000 </r>
       <r>  -68.5597    1.0000 </r>
       <r>  -12.3752    1.0000 </r>
       <r>  -11.4775    1.0000 </r>
       <r>  -10.9371    1.0000 </r>
       <r>  -10.6530    1.0000 </r>
       <r>  -10.4216    1.0000 </r>
       <r>  -10.3059    1.0000 </r>
       <r>   -5.8002    1.0000 </r>
       <r>   -4.8366    1.0000 </r>
       <r>   -2.5273    1.0000 </r>
       <r>   -2.2419    1.0000 </r>
       <r>   -1.8721    1.0000 </r>
       <r>   -1.6446    1.0000 </r>
       <r>   -1.5063    1.0000 </r>
       <r>   -1.3128    1.0000 </r>
       <r>   -0.9013    1.0000 </r>
       <r>   -0.5329    1.0000 </r>
       <r>   -0.3779    1.0000 </r>
       <r>   -0.3491    1.0000 </r>
       <r>   -0.2219    1.0000 </r>
       <r>   -0.1761    1.0000 </r>
       <r>   -0.1574    1.0000 </r>
       <r>   -0.0763    1.0000 </r>
       <r>   -0.0246    1.0000 </r>
       <r>    0.0806    1.0000 </r>
       <r>    1.1898    1.0000 </r>
       <r>    1.3646    1.0000 </r>
       <r>    1.3984    1.0000 </r>
       <r>    1.4420    1.0000 </r>
       <r>    1.4638    1.0000 </r>
       <r>    1.5089    1.0000 </r>
       <r>    1.5208    1.0000 </r>
       <r>    1.5862    1.0000 </r>
       <r>    1.7425    1.0000 </r>
       <r>    1.8180    1.0000 </r>
       <r>    2.0351    1.0000 </r>
       <r>    2.2359    1.0000 </r>
       <r>    2.2684    1.0000 </r>
       <r>    2.3629    1.0000 </r>
       <r>    2.4886    1.0000 </r>
       <r>    2.6697    1.0000 </r>
       <r>    3.0523    1.0000 </r>
       <r>    3.4088    1.0000 </r>
       <r>    3.7261    1.0000 </r>
       <r>    3.8622    1.0000 </r>
       <r>    5.9363   -0.0000 </r>
       <r>    6.6151   -0.0000 </r>
       <r>    7.3528    0.0000 </r>
       <r>    7.9440    0.0000 </r>
       <r>    8.0688    0.0000 </r>
       <r>    8.7271    0.0000 </r>
       <r>    8.9049    0.0000 </r>
       <r>    9.1376    0.0000 </r>
       <r>    9.8436    0.0000 </r>
       <r>   10.3264    0.0000 </r>
       <r>   10.5610    0.0000 </r>
       <r>   10.9297    0.0000 </r>
       <r>   11.2159    0.0000 </r>
       <r>   11.4208    0.0000 </r>
       <r>   11.7456    0.0000 </r>
       <r>   12.0047    0.0000 </r>
       <r>   12.4984    0.0000 </r>
       <r>   12.8340    0.0000 </r>
       <r>   13.2086    0.0000 </r>
       <r>   14.1783    0.0000 </r>
       <r>   14.7167    0.0000 </r>
       <r>   15.0943    0.0000 </r>
       <r>   15.9170    0.0000 </r>
       <r>   16.5690    0.0000 </r>
      </set>
      <set comment="kpoint 18">
       <r>  -68.6470    1.0000 </r>
       <r>  -68.6388    1.0000 </r>
       <r>  -68.6370    1.0000 </r>
       <r>  -68.6325    1.0000 </r>
       <r>  -68.6146    1.0000 </r>
       <r>  -68.6031    1.0000 </r>
       <r>  -68.5978    1.0000 </r>
       <r>  -68.5880    1.0000 </r>
       <r>  -68.5819    1.0000 </r>
       <r>  -68.5768    1.0000 </r>
       <r>  -68.5662    1.0000 </r>
       <r>  -68.5598    1.0000 </r>
       <r>  -12.5018    1.0000 </r>
       <r>  -11.4284    1.0000 </r>
       <r>  -10.9485    1.0000 </r>
       <r>  -10.5817    1.0000 </r>
       <r>  -10.3777    1.0000 </r>
       <r>  -10.2083    1.0000 </r>
       <r>   -5.8276    1.0000 </r>
       <r>   -4.9408    1.0000 </r>
       <r>   -2.5723    1.0000 </r>
       <r>   -2.3672    1.0000 </r>
       <r>   -1.9189    1.0000 </r>
       <r>   -1.5971    1.0000 </r>
       <r>   -1.4167    1.0000 </r>
       <r>   -1.1205    1.0000 </r>
       <r>   -0.8157    1.0000 </r>
       <r>   -0.6741    1.0000 </r>
       <r>   -0.5334    1.0000 </r>
       <r>   -0.4684    1.0000 </r>
       <r>   -0.2524    1.0000 </r>
       <r>   -0.1970    1.0000 </r>
       <r>   -0.1674    1.0000 </r>
       <r>   -0.1126    1.0000 </r>
       <r>   -0.0373    1.0000 </r>
       <r>    0.0608    1.0000 </r>
       <r>    1.2803    1.0000 </r>
       <r>    1.3270    1.0000 </r>
       <r>    1.3468    1.0000 </r>
       <r>    1.4323    1.0000 </r>
       <r>    1.4522    1.0000 </r>
       <r>    1.4687    1.0000 </r>
       <r>    1.4935    1.0000 </r>
       <r>    1.5572    1.0000 </r>
       <r>    1.7281    1.0000 </r>
       <r>    1.8456    1.0000 </r>
       <r>    1.9682    1.0000 </r>
       <r>    2.0975    1.0000 </r>
       <r>    2.3371    1.0000 </r>
       <r>    2.4489    1.0000 </r>
       <r>    2.5394    1.0000 </r>
       <r>    2.8499    1.0000 </r>
       <r>    3.0543    1.0000 </r>
       <r>    3.2630    1.0000 </r>
       <r>    3.6713    1.0000 </r>
       <r>    3.7810    1.0000 </r>
       <r>    6.2669   -0.0000 </r>
       <r>    6.8010   -0.0000 </r>
       <r>    7.8139    0.0000 </r>
       <r>    8.1366    0.0000 </r>
       <r>    8.3383    0.0000 </r>
       <r>    8.9333    0.0000 </r>
       <r>    9.3408    0.0000 </r>
[...]
       <r>   11.7086    0.0000 </r>
       <r>   11.8943    0.0000 </r>
       <r>   12.2994    0.0000 </r>
       <r>   12.6601    0.0000 </r>
       <r>   13.0108    0.0000 </r>
       <r>   13.2364    0.0000 </r>
       <r>   13.6825    0.0000 </r>
       <r>   14.0846    0.0000 </r>
       <r>   14.4030    0.0000 </r>
       <r>   16.5486    0.0000 </r>
      </set>
      <set comment="kpoint 42">
       <r>  -68.6470    1.0000 </r>
       <r>  -68.6385    1.0000 </r>
       <r>  -68.6369    1.0000 </r>
       <r>  -68.6323    1.0000 </r>
       <r>  -68.6145    1.0000 </r>
       <r>  -68.6030    1.0000 </r>
       <r>  -68.5976    1.0000 </r>
       <r>  -68.5877    1.0000 </r>
       <r>  -68.5819    1.0000 </r>
       <r>  -68.5767    1.0000 </r>
       <r>  -68.5662    1.0000 </r>
       <r>  -68.5598    1.0000 </r>
       <r>  -12.1813    1.0000 </r>
       <r>  -11.7079    1.0000 </r>
       <r>  -10.7175    1.0000 </r>
       <r>  -10.6948    1.0000 </r>
       <r>  -10.5859    1.0000 </r>
       <r>  -10.3946    1.0000 </r>
       <r>   -5.4449    1.0000 </r>
       <r>   -5.0724    1.0000 </r>
       <r>   -2.5090    1.0000 </r>
       <r>   -2.3816    1.0000 </r>
       <r>   -1.9660    1.0000 </r>
       <r>   -1.3654    1.0000 </r>
       <r>   -1.3308    1.0000 </r>
       <r>   -1.0551    1.0000 </r>
       <r>   -0.8317    1.0000 </r>
       <r>   -0.7678    1.0000 </r>
       <r>   -0.4227    1.0000 </r>
       <r>   -0.3379    1.0000 </r>
       <r>   -0.2721    1.0000 </r>
       <r>   -0.2091    1.0000 </r>
       <r>   -0.1433    1.0000 </r>
       <r>   -0.1375    1.0000 </r>
       <r>   -0.0103    1.0000 </r>
       <r>    0.0318    1.0000 </r>
       <r>    1.1733    1.0000 </r>
       <r>    1.3721    1.0000 </r>
       <r>    1.3977    1.0000 </r>
       <r>    1.4532    1.0000 </r>
       <r>    1.4560    1.0000 </r>
       <r>    1.4983    1.0000 </r>
       <r>    1.5184    1.0000 </r>
       <r>    1.5533    1.0000 </r>
       <r>    1.7432    1.0000 </r>
       <r>    1.8209    1.0000 </r>
       <r>    1.9795    1.0000 </r>
       <r>    2.2265    1.0000 </r>
       <r>    2.3972    1.0000 </r>
       <r>    2.6102    1.0000 </r>
       <r>    2.6534    1.0000 </r>
       <r>    2.9151    1.0000 </r>
       <r>    3.0693    1.0000 </r>
       <r>    3.1171    1.0000 </r>
       <r>    3.2852    1.0000 </r>
       <r>    3.5793    1.0000 </r>
       <r>    6.2927   -0.0000 </r>
       <r>    6.3841   -0.0000 </r>
       <r>    7.3560    0.0000 </r>
       <r>    7.5291    0.0000 </r>
       <r>    8.3107    0.0000 </r>
       <r>    8.3328    0.0000 </r>
       <r>    9.1066    0.0000 </r>
       <r>    9.3582    0.0000 </r>
       <r>    9.7164    0.0000 </r>
       <r>    9.9498    0.0000 </r>
       <r>   10.5268    0.0000 </r>
       <r>   10.9879    0.0000 </r>
       <r>   11.4240    0.0000 </r>
       <r>   11.5656    0.0000 </r>
       <r>   12.0154    0.0000 </r>
       <r>   12.2797    0.0000 </r>
       <r>   12.4309    0.0000 </r>
       <r>   12.4769    0.0000 </r>
       <r>   13.0380    0.0000 </r>
       <r>   13.1496    0.0000 </r>
       <r>   14.1360    0.0000 </r>
       <r>   14.4409    0.0000 </r>
       <r>   15.1652    0.0000 </r>
       <r>   15.8736    0.0000 </r>
      </set>
     </set>
    </set>
   </array>
  </eigenvalues>
  <separator name="orbital magnetization" >
   <v name="MAGDIPOLOUT">      0.00000000      0.00000000      0.00000000</v>
  </separator>
  <dos>
   <i name="efermi">      4.21794068 </i>
   <total>
    <array>
     <dimension dim="1">gridpoints</dimension>
     <dimension dim="2">spin</dimension>
     <field>energy</field>
     <field>total</field>
     <field>integrated</field>
     <set>
      <set comment="spin 1">
       <r>   -72.8301     0.0000     0.0000 </r>
       <r>   -72.5238     0.0000     0.0000 </r>
       <r>   -72.2174     0.0000     0.0000 </r>
       <r>   -71.9110     0.0000     0.0000 </r>
       <r>   -71.6046     0.0000     0.0000 </r>
       <r>   -71.2982     0.0000     0.0000 </r>
       <r>   -70.9918     0.0000     0.0000 </r>
       <r>   -70.6855     0.0000     0.0000 </r>
       <r>   -70.3791     0.0000     0.0000 </r>
       <r>   -70.0727     0.0000     0.0000 </r>
       <r>   -69.7663     0.0000     0.0000 </r>
       <r>   -69.4599    -0.0000    -0.0000 </r>
       <r>   -69.1536    -0.0000    -0.0000 </r>
       <r>   -68.8472    -0.2072    -0.0635 </r>
       <r>   -68.5408    70.1479    21.4285 </r>
       <r>   -68.2344     8.3935    24.0001 </r>
       <r>   -67.9280    -0.0004    24.0000 </r>
       <r>   -67.6217     0.0000    24.0000 </r>
       <r>   -67.3153     0.0000    24.0000 </r>
       <r>   -67.0089     0.0000    24.0000 </r>
       <r>   -66.7025     0.0000    24.0000 </r>
       <r>   -66.3961     0.0000    24.0000 </r>
       <r>   -66.0898     0.0000    24.0000 </r>
       <r>   -65.7834     0.0000    24.0000 </r>
       <r>   -65.4770     0.0000    24.0000 </r>
       <r>   -65.1706     0.0000    24.0000 </r>
       <r>   -64.8642     0.0000    24.0000 </r>
       <r>   -64.5578     0.0000    24.0000 </r>
       <r>   -64.2515     0.0000    24.0000 </r>
       <r>   -63.9451     0.0000    24.0000 </r>
       <r>   -63.6387     0.0000    24.0000 </r>
       <r>   -63.3323     0.0000    24.0000 </r>
       <r>   -63.0259     0.0000    24.0000 </r>
       <r>   -62.7196     0.0000    24.0000 </r>
       <r>   -62.4132     0.0000    24.0000 </r>
       <r>   -62.1068     0.0000    24.0000 </r>
       <r>   -61.8004     0.0000    24.0000 </r>
       <r>   -61.4940     0.0000    24.0000 </r>
       <r>   -61.1877     0.0000    24.0000 </r>
       <r>   -60.8813     0.0000    24.0000 </r>
       <r>   -60.5749     0.0000    24.0000 </r>
       <r>   -60.2685     0.0000    24.0000 </r>
       <r>   -59.9621     0.0000    24.0000 </r>
       <r>   -59.6557     0.0000    24.0000 </r>
       <r>   -59.3494     0.0000    24.0000 </r>
       <r>   -59.0430     0.0000    24.0000 </r>
       <r>   -58.7366     0.0000    24.0000 </r>
       <r>   -58.4302     0.0000    24.0000 </r>
       <r>   -58.1238     0.0000    24.0000 </r>
       <r>   -57.8175     0.0000    24.0000 </r>
       <r>   -57.5111     0.0000    24.0000 </r>
       <r>   -57.2047     0.0000    24.0000 </r>
       <r>   -56.8983     0.0000    24.0000 </r>
       <r>   -56.5919     0.0000    24.0000 </r>
       <r>   -56.2856     0.0000    24.0000 </r>
       <r>   -55.9792     0.0000    24.0000 </r>
       <r>   -55.6728     0.0000    24.0000 </r>
       <r>   -55.3664     0.0000    24.0000 </r>
       <r>   -55.0600     0.0000    24.0000 </r>
       <r>   -54.7537     0.0000    24.0000 </r>
       <r>   -54.4473     0.0000    24.0000 </r>
       <r>   -54.1409     0.0000    24.0000 </r>
       <r>   -53.8345     0.0000    24.0000 </r>
       <r>   -53.5281     0.0000    24.0000 </r>
       <r>   -53.2217     0.0000    24.0000 </r>
       <r>   -52.9154     0.0000    24.0000 </r>
       <r>   -52.6090     0.0000    24.0000 </r>
       <r>   -52.3026     0.0000    24.0000 </r>
       <r>   -51.9962     0.0000    24.0000 </r>
       <r>   -51.6898     0.0000    24.0000 </r>
       <r>   -51.3835     0.0000    24.0000 </r>
       <r>   -51.0771     0.0000    24.0000 </r>
       <r>   -50.7707     0.0000    24.0000 </r>
       <r>   -50.4643     0.0000    24.0000 </r>
       <r>   -50.1579     0.0000    24.0000 </r>
       <r>   -49.8516     0.0000    24.0000 </r>
       <r>   -49.5452     0.0000    24.0000 </r>
       <r>   -49.2388     0.0000    24.0000 </r>
       <r>   -48.9324     0.0000    24.0000 </r>
       <r>   -48.6260     0.0000    24.0000 </r>
       <r>   -48.3197     0.0000    24.0000 </r>
       <r>   -48.0133     0.0000    24.0000 </r>
       <r>   -47.7069     0.0000    24.0000 </r>
       <r>   -47.4005     0.0000    24.0000 </r>
       <r>   -47.0941     0.0000    24.0000 </r>
       <r>   -46.7877     0.0000    24.0000 </r>
       <r>   -46.4814     0.0000    24.0000 </r>
       <r>   -46.1750     0.0000    24.0000 </r>
       <r>   -45.8686     0.0000    24.0000 </r>
       <r>   -45.5622     0.0000    24.0000 </r>
       <r>   -45.2558     0.0000    24.0000 </r>
       <r>   -44.9495     0.0000    24.0000 </r>
       <r>   -44.6431     0.0000    24.0000 </r>
       <r>   -44.3367     0.0000    24.0000 </r>
       <r>   -44.0303     0.0000    24.0000 </r>
       <r>   -43.7239     0.0000    24.0000 </r>
       <r>   -43.4176     0.0000    24.0000 </r>
       <r>   -43.1112     0.0000    24.0000 </r>
       <r>   -42.8048     0.0000    24.0000 </r>
       <r>   -42.4984     0.0000    24.0000 </r>
       <r>   -42.1920     0.0000    24.0000 </r>
       <r>   -41.8856     0.0000    24.0000 </r>
       <r>   -41.5793     0.0000    24.0000 </r>
       <r>   -41.2729     0.0000    24.0000 </r>
       <r>   -40.9665     0.0000    24.0000 </r>
       <r>   -40.6601     0.0000    24.0000 </r>
       <r>   -40.3537     0.0000    24.0000 </r>
       <r>   -40.0474     0.0000    24.0000 </r>
       <r>   -39.7410     0.0000    24.0000 </r>
       <r>   -39.4346     0.0000    24.0000 </r>
       <r>   -39.1282     0.0000    24.0000 </r>
       <r>   -38.8218     0.0000    24.0000 </r>
       <r>   -38.5155     0.0000    24.0000 </r>
       <r>   -38.2091     0.0000    24.0000 </r>
       <r>   -37.9027     0.0000    24.0000 </r>
       <r>   -37.5963     0.0000    24.0000 </r>
       <r>   -37.2899     0.0000    24.0000 </r>
       <r>   -36.9836     0.0000    24.0000 </r>
       <r>   -36.6772     0.0000    24.0000 </r>
       <r>   -36.3708     0.0000    24.0000 </r>
       <r>   -36.0644     0.0000    24.0000 </r>
       <r>   -35.7580     0.0000    24.0000 </r>
       <r>   -35.4516     0.0000    24.0000 </r>
       <r>   -35.1453     0.0000    24.0000 </r>
       <r>   -34.8389     0.0000    24.0000 </r>
       <r>   -34.5325     0.0000    24.0000 </r>
       <r>   -34.2261     0.0000    24.0000 </r>
       <r>   -33.9197     0.0000    24.0000 </r>
       <r>   -33.6134     0.0000    24.0000 </r>
       <r>   -33.3070     0.0000    24.0000 </r>
       <r>   -33.0006     0.0000    24.0000 </r>
       <r>   -32.6942     0.0000    24.0000 </r>
       <r>   -32.3878     0.0000    24.0000 </r>
       <r>   -32.0815     0.0000    24.0000 </r>
       <r>   -31.7751     0.0000    24.0000 </r>
       <r>   -31.4687     0.0000    24.0000 </r>
       <r>   -31.1623     0.0000    24.0000 </r>
       <r>   -30.8559     0.0000    24.0000 </r>
       <r>   -30.5496     0.0000    24.0000 </r>
       <r>   -30.2432     0.0000    24.0000 </r>
       <r>   -29.9368     0.0000    24.0000 </r>
       <r>   -29.6304     0.0000    24.0000 </r>
       <r>   -29.3240     0.0000    24.0000 </r>
       <r>   -29.0176     0.0000    24.0000 </r>
       <r>   -28.7113     0.0000    24.0000 </r>
       <r>   -28.4049     0.0000    24.0000 </r>
       <r>   -28.0985     0.0000    24.0000 </r>
       <r>   -27.7921     0.0000    24.0000 </r>
       <r>   -27.4857     0.0000    24.0000 </r>
       <r>   -27.1794     0.0000    24.0000 </r>
       <r>   -26.8730     0.0000    24.0000 </r>
       <r>   -26.5666     0.0000    24.0000 </r>
       <r>   -26.2602     0.0000    24.0000 </r>
       <r>   -25.9538     0.0000    24.0000 </r>
       <r>   -25.6475     0.0000    24.0000 </r>
       <r>   -25.3411     0.0000    24.0000 </r>
       <r>   -25.0347     0.0000    24.0000 </r>
       <r>   -24.7283     0.0000    24.0000 </r>
       <r>   -24.4219     0.0000    24.0000 </r>
       <r>   -24.1155     0.0000    24.0000 </r>
       <r>   -23.8092     0.0000    24.0000 </r>
       <r>   -23.5028     0.0000    24.0000 </r>
       <r>   -23.1964     0.0000    24.0000 </r>
       <r>   -22.8900     0.0000    24.0000 </r>
       <r>   -22.5836     0.0000    24.0000 </r>
       <r>   -22.2773     0.0000    24.0000 </r>
       <r>   -21.9709     0.0000    24.0000 </r>
       <r>   -21.6645     0.0000    24.0000 </r>
       <r>   -21.3581     0.0000    24.0000 </r>
       <r>   -21.0517     0.0000    24.0000 </r>
       <r>   -20.7454     0.0000    24.0000 </r>
       <r>   -20.4390     0.0000    24.0000 </r>
       <r>   -20.1326     0.0000    24.0000 </r>
       <r>   -19.8262     0.0000    24.0000 </r>
       <r>   -19.5198     0.0000    24.0000 </r>
       <r>   -19.2135     0.0000    24.0000 </r>
       <r>   -18.9071     0.0000    24.0000 </r>
       <r>   -18.6007     0.0000    24.0000 </r>
       <r>   -18.2943     0.0000    24.0000 </r>
       <r>   -17.9879     0.0000    24.0000 </r>
       <r>   -17.6815     0.0000    24.0000 </r>
       <r>   -17.3752     0.0000    24.0000 </r>
       <r>   -17.0688     0.0000    24.0000 </r>
       <r>   -16.7624     0.0000    24.0000 </r>
       <r>   -16.4560     0.0000    24.0000 </r>
       <r>   -16.1496     0.0000    24.0000 </r>
       <r>   -15.8433     0.0000    24.0000 </r>
       <r>   -15.5369     0.0000    24.0000 </r>
       <r>   -15.2305     0.0000    24.0000 </r>
       <r>   -14.9241     0.0000    24.0000 </r>
       <r>   -14.6177     0.0000    24.0000 </r>
       <r>   -14.3114     0.0000    24.0000 </r>
       <r>   -14.0050     0.0000    24.0000 </r>
       <r>   -13.6986    -0.0000    24.0000 </r>
       <r>   -13.3922    -0.0000    24.0000 </r>
       <r>   -13.0858    -0.0000    24.0000 </r>
       <r>   -12.7795    -0.0037    23.9989 </r>
       <r>   -12.4731     1.5687    24.4795 </r>
       <r>   -12.1667     3.5712    25.5736 </r>
       <r>   -11.8603     1.9043    26.1571 </r>
       <r>   -11.5539     2.1409    26.8130 </r>
       <r>   -11.2475     3.1966    27.7924 </r>
       <r>   -10.9412     2.5256    28.5662 </r>
       <r>   -10.6348     9.3153    31.4202 </r>
       <r>   -10.3284     9.4517    34.3160 </r>
       <r>   -10.0220     5.5137    36.0053 </r>
       <r>    -9.7156    -0.0174    36.0000 </r>
       <r>    -9.4093    -0.0000    36.0000 </r>
       <r>    -9.1029     0.0000    36.0000 </r>
       <r>    -8.7965     0.0000    36.0000 </r>
       <r>    -8.4901     0.0000    36.0000 </r>
       <r>    -8.1837     0.0000    36.0000 </r>
       <r>    -7.8774     0.0000    36.0000 </r>
       <r>    -7.5710     0.0000    36.0000 </r>
       <r>    -7.2646     0.0000    36.0000 </r>
       <r>    -6.9582    -0.0000    36.0000 </r>
       <r>    -6.6518    -0.0000    36.0000 </r>
       <r>    -6.3454    -0.0000    36.0000 </r>
       <r>    -6.0391     0.0542    36.0166 </r>
       <r>    -5.7327     3.4872    37.0850 </r>
       <r>    -5.4263     2.0561    37.7149 </r>
       <r>    -5.1199     1.8793    38.2907 </r>
       <r>    -4.8135     3.3031    39.3027 </r>
       <r>    -4.5072     2.2110    39.9801 </r>
       <r>    -4.2008     0.0648    40.0000 </r>
       <r>    -3.8944    -0.0000    40.0000 </r>
       <r>    -3.5880    -0.0000    40.0000 </r>
       <r>    -3.2816    -0.0000    40.0000 </r>
       <r>    -2.9753    -0.0005    39.9999 </r>
       <r>    -2.6689     0.3878    40.1187 </r>
       <r>    -2.3625     6.1553    42.0046 </r>
       <r>    -2.0561     6.6986    44.0569 </r>
       <r>    -1.7497     7.3512    46.3091 </r>
       <r>    -1.4434     6.4072    48.2722 </r>
       <r>    -1.1370     8.7527    50.9539 </r>
       <r>    -0.8306     9.0586    53.7293 </r>
       <r>    -0.5242    11.3088    57.1941 </r>
       <r>    -0.2178    18.1133    62.7436 </r>
       <r>     0.0886    28.9861    71.6244 </r>
       <r>     0.3949     1.2265    72.0002 </r>
       <r>     0.7013    -0.0007    72.0000 </r>
       <r>     1.0077    -0.0200    71.9939 </r>
       <r>     1.3141     7.3247    74.2380 </r>
       <r>     1.6205    44.9145    87.9989 </r>
       <r>     1.9268    13.8230    92.2340 </r>
       <r>     2.2332    13.1483    96.2624 </r>
       <r>     2.5396    12.8763   100.2075 </r>
       <r>     2.8460    11.1609   103.6270 </r>
       <r>     3.1524     9.0690   106.4056 </r>
       <r>     3.4587     7.9268   108.8342 </r>
       <r>     3.7651     6.9525   110.9643 </r>
       <r>     4.0715     3.1445   111.9277 </r>
       <r>     4.3779     0.2365   112.0002 </r>
       <r>     4.6843    -0.0005   112.0000 </r>
       <r>     4.9907    -0.0000   112.0000 </r>
       <r>     5.2970    -0.0001   112.0000 </r>
       <r>     5.6034     0.0756   112.0231 </r>
       <r>     5.9098     0.1564   112.0710 </r>
       <r>     6.2162     2.5996   112.8675 </r>
       <r>     6.5226     4.3509   114.2005 </r>
       <r>     6.8289     3.4995   115.2727 </r>
       <r>     7.1353     2.4389   116.0199 </r>
       <r>     7.4417     1.4386   116.4607 </r>
       <r>     7.7481     3.1594   117.4287 </r>
       <r>     8.0545     5.5623   119.1329 </r>
       <r>     8.3608     5.5353   120.8288 </r>
       <r>     8.6672     4.6146   122.2426 </r>
       <r>     8.9736     4.4765   123.6141 </r>
       <r>     9.2800     5.6026   125.3306 </r>
       <r>     9.5864     5.6872   127.0731 </r>
       <r>     9.8927     4.7787   128.5372 </r>
       <r>    10.1991     4.4739   129.9079 </r>
       <r>    10.5055     6.5061   131.9012 </r>
       <r>    10.8119     8.2755   134.4367 </r>
       <r>    11.1183     8.2877   136.9759 </r>
       <r>    11.4247     7.9518   139.4122 </r>
       <r>    11.7310     7.9102   141.8357 </r>
       <r>    12.0374     6.5873   143.8540 </r>
       <r>    12.3438     5.8515   145.6468 </r>
       <r>    12.6502     6.6137   147.6731 </r>
       <r>    12.9566     5.8512   149.4657 </r>
       <r>    13.2629     6.1972   151.3645 </r>
       <r>    13.5693     5.3220   152.9950 </r>
       <r>    13.8757     3.9925   154.2182 </r>
       <r>    14.1821     3.2771   155.2223 </r>
       <r>    14.4885     4.5461   156.6151 </r>
       <r>    14.7948     3.4596   157.6751 </r>
       <r>    15.1012     1.5063   158.1366 </r>
       <r>    15.4076     1.5053   158.5978 </r>
       <r>    15.7140     1.2217   158.9721 </r>
       <r>    16.0204     1.6952   159.4915 </r>
       <r>    16.3267     0.3305   159.5927 </r>
       <r>    16.6331     0.6817   159.8016 </r>
       <r>    16.9395     0.5224   159.9617 </r>
       <r>    17.2459     0.1252   160.0000 </r>
       <r>    17.5523    -0.0000   160.0000 </r>
       <r>    17.8587     0.0000   160.0000 </r>
       <r>    18.1650     0.0000   160.0000 </r>
       <r>    18.4714     0.0000   160.0000 </r>
       <r>    18.7778     0.0000   160.0000 </r>
       <r>    19.0842     0.0000   160.0000 </r>
      </set>
     </set>
    </array>
   </total>
  </dos>
 </calculation>
 <structure name="finalpos" >
  <crystal>
   <varray name="basis" >
    <v>       3.22479600      -5.64383000       0.03157200 </v>
    <v>       3.22479600       5.64383000       0.03157200 </v>
    <v>      -2.10194600       0.00000000       6.07553700 </v>
   </varray>
   <i name="volume">    221.90106089 </i>
   <varray name="rec_basis" >
    <v>       0.15452516      -0.08859232       0.05346088 </v>
    <v>       0.15452516       0.08859232       0.05346088 </v>
    <v>      -0.00160600       0.00000000       0.16403888 </v>
   </varray>
  </crystal>
  <varray name="positions" >
   <v>       0.61844300       0.12117100       0.11953300 </v>
   <v>       0.12117100       0.61844300       0.61953300 </v>
   <v>       0.96295700       0.79032200       0.11881300 </v>
   <v>       0.79032200       0.96295700       0.61881300 </v>
   <v>       0.43973200       0.26728100       0.59904700 </v>
   <v>       0.26728100       0.43973200       0.09904700 </v>
   <v>       0.07949800       0.91167500       0.49736300 </v>
   <v>       0.57140300       0.41236400       0.98018400 </v>
   <v>       0.73711100       0.25006200       0.49660448 </v>
   <v>       0.41236400       0.57140300       0.48018400 </v>
   <v>       0.91167500       0.07949800       0.99736300 </v>
   <v>       0.25006200       0.73711100       0.99504900 </v>
  </varray>
 </structure>
</modeling>
