   12   12    1    1
  0.1849176E+02  0.6500240E-09  0.6500240E-09  0.6428867E-09  0.5000000E-15
  1.000000000000000E-004
  CAR 
 CGS                                     
  112   42   80
 
  0.0000000E+00  0.0000000E+00  0.0000000E+00  0.1250000E-01
   1      -68.645378
   2      -68.644784
   3      -68.635613
   4      -68.633701
   5      -68.613266
   6      -68.612592
   7      -68.595834
   8      -68.595318
   9      -68.580324
  10      -68.578012
  11      -68.561613
  12      -68.561024
  13      -12.721915
  14      -11.129999
  15      -10.918574
  16      -10.603779
  17      -10.249882
  18      -10.233637
  19       -5.985127
  20       -4.984860
  21       -2.759813
  22       -2.210868
  23       -2.070370
  24       -1.922019
  25       -1.577891
  26       -0.978755
  27       -0.954857
  28       -0.686523
  29       -0.400822
  30       -0.276182
  31       -0.261597
  32       -0.237274
  33       -0.190125
  34       -0.155524
  35       -0.034744
  36        0.028866
  37        1.350408
  38        1.361797
  39        1.412883
  40        1.456557
  41        1.470039
  42        1.473662
  43        1.519872
  44        1.532720
  45        1.574751
  46        1.712645
  47        1.893047
  48        1.928231
  49        2.059512
  50        2.649527
  51        2.732512
  52        3.093056
  53        3.214710
  54        4.004844
  55        4.038009
  56        4.171607
  57        5.537245
  58        6.357892
  59        7.628635
  60        7.985826
  61        8.617970
  62        8.790817
  63        9.573102
  64        9.738270
  65        9.814752
  66       10.419287
  67       10.584199
  68       10.697586
  69       10.711276
  70       11.281826
  71       11.710143
  72       12.392567
  73       12.451788
  74       12.730257
  75       13.319501
  76       13.385928
  77       13.830945
  78       13.887043
  79       14.143213
  80       14.181206
 
  0.2500000E+00  0.7372575E-17  0.1387779E-16  0.2500000E-01
   1      -68.645356
   2      -68.644736
   3      -68.635583
   4      -68.633662
   5      -68.613148
   6      -68.612497
   7      -68.595840
   8      -68.595340
   9      -68.580255
  10      -68.577960
  11      -68.561584
  12      -68.560987
  13      -12.596935
  14      -11.126978
  15      -10.985275
  16      -10.677697
  17      -10.362578
  18      -10.277806
  19       -5.933376
  20       -4.774278
  21       -2.645062
  22       -2.252800
  23       -2.087229
  24       -1.690388
  25       -1.346533
  26       -0.998622
  27       -0.770526
  28       -0.619784
  29       -0.553049
  30       -0.438543
  31       -0.361594
  32       -0.242497
  33       -0.192051
  34       -0.170692
  35       -0.043576
  36        0.038268
  37        1.278446
  38        1.335923
  39        1.353417
  40        1.392240
  41        1.426532
  42        1.471867
  43        1.497749
  44        1.530074
  45        1.725365
  46        1.860081
  47        2.056335
  48        2.094669
  49        2.231777
  50        2.415625
  51        2.556267
  52        2.824010
  53        2.946534
  54        3.241896
  55        3.662077
  56        4.039643
  57        6.170111
  58        6.906219
  59        8.136744
  60        8.268907
  61        8.593030
  62        9.011816
  63        9.243486
  64        9.530770
  65        9.865037
  66       10.375578
  67       10.633155
  68       10.813434
  69       10.939914
  70       11.191039
  71       11.658250
  72       11.773809
  73       12.115656
  74       12.440677
  75       12.617517
  76       13.007163
  77       13.504331
  78       13.873868
  79       14.214058
  80       14.711438
 
  0.5000000E+00  0.1474515E-16  0.2775558E-16  0.1250000E-01
   1      -68.645184
   2      -68.644624
   3      -68.635514
   4      -68.633574
   5      -68.613134
   6      -68.612445
   7      -68.595768
   8      -68.595260
   9      -68.580196
  10      -68.577945
  11      -68.561473
  12      -68.560817
  13      -12.437558
  14      -11.249936
  15      -10.958987
  16      -10.765158
  17      -10.421848
  18      -10.359912
  19       -5.870998
  20       -4.549127
  21       -2.493343
  22       -2.245210
  23       -1.948239
  24       -1.463236
  25       -1.228006
  26       -1.103197
  27       -0.900733
  28       -0.862876
  29       -0.600388
  30       -0.535378
  31       -0.275901
  32       -0.205322
  33       -0.201058
  34       -0.143847
  35       -0.029828
  36        0.081746
  37        1.253383
  38        1.326531
  39        1.347171
  40        1.398121
  41        1.470999
  42        1.478030
  43        1.499522
  44        1.552806
  45        1.752373
  46        1.792760
  47        1.969131
  48        2.146905
  49        2.321316
  50        2.361228
  51        2.556061
  52        2.670719
  53        2.934446
  54        3.076768
  55        3.249498
  56        3.861450
  57        6.384883
  58        7.097995
  59        7.981390
  60        8.204251
  61        8.520027
  62        8.820184
  63        9.326288
  64        9.888710
  65       10.011076
  66       10.518817
  67       10.692485
  68       10.792781
  69       11.139583
  70       11.406387
  71       11.610137
  72       11.774580
  73       11.943578
  74       12.504328
  75       12.780143
  76       13.001753
  77       13.393620
  78       13.540208
  79       13.939010
  80       14.270611
 
  0.7372575E-17  0.2500000E+00  0.1387779E-16  0.2500000E-01
   1      -68.645334
   2      -68.644758
   3      -68.635571
   4      -68.633676
   5      -68.613143
   6      -68.612502
   7      -68.595865
   8      -68.595314
   9      -68.580274
  10      -68.577945
  11      -68.561577
  12      -68.560988
  13      -12.597060
  14      -11.126496
  15      -10.983919
  16      -10.679966
  17      -10.364242
  18      -10.275573
  19       -5.933376
  20       -4.774437
  21       -2.645474
  22       -2.253031
  23       -2.086819
  24       -1.690716
  25       -1.344046
  26       -0.998342
  27       -0.770146
  28       -0.621139
  29       -0.557838
  30       -0.440266
  31       -0.359207
  32       -0.241019
  33       -0.192529
  34       -0.168273
  35       -0.042923
  36        0.037550
  37        1.279573
  38        1.334114
  39        1.354775
  40        1.391920
  41        1.426571
  42        1.471504
  43        1.497645
  44        1.529860
  45        1.724757
  46        1.859947
  47        2.057199
  48        2.095410
  49        2.231290
  50        2.415375
  51        2.555370
  52        2.826883
  53        2.946268
  54        3.242735
  55        3.660249
  56        4.038327
  57        6.170381
  58        6.904964
  59        8.136447
  60        8.268802
  61        8.593081
  62        9.013303
  63        9.243550
  64        9.530876
  65        9.865713
  66       10.376332
  67       10.635557
  68       10.813069
  69       10.938963
  70       11.190353
  71       11.657947
  72       11.769866
  73       12.117292
  74       12.442017
  75       12.617492
  76       13.007824
  77       13.517557
  78       13.895897
  79       14.271102
  80       14.841836
 
  0.2500000E+00  0.2500000E+00  0.0000000E+00  0.2500000E-01
   1      -68.645354
   2      -68.644762
   3      -68.635479
   4      -68.633555
   5      -68.613284
   6      -68.612629
   7      -68.595747
   8      -68.595210
   9      -68.580386
  10      -68.578076
  11      -68.561600
  12      -68.561005
  13      -12.441572
  14      -11.190214
  15      -10.944773
  16      -10.879763
  17      -10.390305
  18      -10.347756
  19       -5.876081
  20       -4.522706
  21       -2.417871
  22       -2.245978
  23       -1.793002
  24       -1.682634
  25       -1.355884
  26       -1.299375
  27       -1.081081
  28       -0.684854
  29       -0.525262
  30       -0.295766
  31       -0.284116
  32       -0.222059
  33       -0.186641
  34       -0.123496
  35       -0.091723
  36        0.078978
  37        1.292684
  38        1.310983
  39        1.416175
  40        1.425789
  41        1.462684
  42        1.481782
  43        1.493839
  44        1.569770
  45        1.671274
  46        1.879980
  47        1.941130
  48        2.135320
  49        2.280666
  50        2.321046
  51        2.560465
  52        2.649524
  53        2.901205
  54        2.944611
  55        3.697598
  56        3.831021
  57        6.171817
  58        6.989766
  59        8.004403
  60        8.326975
  61        8.434465
  62        8.571428
  63        9.145146
  64        9.248628
  65       10.362114
  66       10.496255
  67       10.920890
  68       11.185419
  69       11.327471
  70       11.558964
  71       11.814044
  72       11.962355
  73       12.314753
  74       12.503153
  75       12.711739
  76       12.911767
  77       13.339074
  78       13.444348
  79       14.259808
  80       14.367782
 
  0.5000000E+00  0.2500000E+00 -0.2775558E-16  0.2500000E-01
   1      -68.645083
   2      -68.644575
   3      -68.635543
   4      -68.633657
   5      -68.613024
   6      -68.612436
   7      -68.595540
   8      -68.595520
   9      -68.580114
  10      -68.577944
  11      -68.561274
  12      -68.561041
  13      -12.442123
  14      -11.353630
  15      -10.940168
  16      -10.739063
  17      -10.385848
  18      -10.271425
  19       -5.947910
  20       -4.644066
  21       -2.391434
  22       -2.227055
  23       -2.057470
  24       -1.640506
  25       -1.362514
  26       -1.282661
  27       -1.021954
  28       -0.510610
  29       -0.482773
  30       -0.331101
  31       -0.281922
  32       -0.220087
  33       -0.152212
  34       -0.132715
  35       -0.011389
  36        0.114446
  37        1.245983
  38        1.315081
  39        1.382678
  40        1.437462
  41        1.461985
  42        1.491135
  43        1.495991
  44        1.549522
  45        1.748490
  46        1.829497
  47        1.921460
  48        2.134911
  49        2.221507
  50        2.385045
  51        2.563732
  52        2.789157
  53        2.977811
  54        3.310646
  55        3.602292
  56        3.748370
  57        6.088150
  58        6.939019
  59        7.612091
  60        8.068031
  61        8.410723
  62        8.615090
  63        8.982688
  64        9.151782
  65       10.087786
  66       10.335838
  67       10.732515
  68       11.108492
  69       11.460722
  70       11.594799
  71       11.800037
  72       12.082432
  73       12.479303
  74       12.919302
  75       13.033386
  76       13.841336
  77       14.219388
  78       14.657817
  79       15.430215
  80       15.639569
 
 -0.2500000E+00  0.2500000E+00  0.0000000E+00  0.2500000E-01
   1      -68.645346
   2      -68.644749
   3      -68.635550
   4      -68.633640
   5      -68.613080
   6      -68.612431
   7      -68.595834
   8      -68.595314
   9      -68.580216
  10      -68.577899
  11      -68.561581
  12      -68.560989
  13      -12.600115
  14      -11.250697
  15      -10.993582
  16      -10.572245
  17      -10.363426
  18      -10.179434
  19       -6.010344
  20       -4.896528
  21       -2.646877
  22       -2.314680
  23       -1.971131
  24       -1.646360
  25       -1.496045
  26       -1.184051
  27       -0.787865
  28       -0.585851
  29       -0.448218
  30       -0.334637
  31       -0.293863
  32       -0.231521
  33       -0.176600
  34       -0.133195
  35       -0.010687
  36        0.074319
  37        1.258587
  38        1.320775
  39        1.365157
  40        1.422507
  41        1.430191
  42        1.475376
  43        1.503513
  44        1.543554
  45        1.725472
  46        1.812449
  47        1.995462
  48        2.073144
  49        2.417484
  50        2.463681
  51        2.529543
  52        2.873364
  53        3.141210
  54        3.226902
  55        3.783772
  56        4.068784
  57        5.979012
  58        6.687699
  59        7.534928
  60        8.222068
  61        8.617413
  62        8.912339
  63        9.307888
  64        9.431168
  65        9.804008
  66       10.272394
  67       10.542511
  68       10.831793
  69       10.971603
  70       11.381329
  71       11.467756
  72       11.734011
  73       12.100041
  74       12.663869
  75       12.941229
  76       13.103341
  77       13.352889
  78       13.520824
  79       14.476732
  80       14.756157
 
  0.1474515E-16  0.5000000E+00  0.2775558E-16  0.1250000E-01
   1      -68.645208
   2      -68.644591
   3      -68.635500
   4      -68.633589
   5      -68.613078
   6      -68.612502
   7      -68.595752
   8      -68.595276
   9      -68.580267
  10      -68.577887
  11      -68.561350
  12      -68.560934
  13      -12.437961
  14      -11.247239
  15      -10.958418
  16      -10.769038
  17      -10.425590
  18      -10.355137
  19       -5.871009
  20       -4.549458
  21       -2.494453
  22       -2.245216
  23       -1.945314
  24       -1.466457
  25       -1.224059
  26       -1.103993
  27       -0.902411
  28       -0.863224
  29       -0.599891
  30       -0.538510
  31       -0.270504
  32       -0.208008
  33       -0.199085
  34       -0.144282
  35       -0.027549
  36        0.079517
  37        1.254525
  38        1.327195
  39        1.347336
  40        1.397285
  41        1.470334
  42        1.477169
  43        1.499062
  44        1.553160
  45        1.751748
  46        1.791490
  47        1.967388
  48        2.147181
  49        2.319298
  50        2.365469
  51        2.554520
  52        2.670709
  53        2.937546
  54        3.079828
  55        3.248307
  56        3.859219
  57        6.385327
  58        7.095943
  59        7.979121
  60        8.203807
  61        8.518351
  62        8.821205
  63        9.327222
  64        9.889945
  65       10.012092
  66       10.520395
  67       10.692207
  68       10.794144
  69       11.140395
  70       11.404096
  71       11.611881
  72       11.772595
  73       11.947253
  74       12.506745
  75       12.823669
  76       13.030364
  77       13.547780
  78       13.685595
  79       14.551717
  80       15.250571
 
  0.2500000E+00  0.5000000E+00 -0.2775558E-16  0.2500000E-01
   1      -68.645123
   2      -68.644546
   3      -68.635488
   4      -68.633668
   5      -68.612918
   6      -68.612560
   7      -68.595620
   8      -68.595460
   9      -68.580157
  10      -68.577905
  11      -68.561261
  12      -68.561045
  13      -12.442322
  14      -11.352681
  15      -10.939847
  16      -10.740642
  17      -10.386189
  18      -10.270563
  19       -5.947917
  20       -4.644206
  21       -2.392760
  22       -2.226605
  23       -2.056487
  24       -1.641477
  25       -1.361553
  26       -1.280612
  27       -1.022579
  28       -0.510217
  29       -0.486852
  30       -0.332485
  31       -0.285085
  32       -0.214344
  33       -0.150582
  34       -0.134103
  35       -0.009757
  36        0.113897
  37        1.246298
  38        1.315454
  39        1.382568
  40        1.435876
  41        1.461888
  42        1.491689
  43        1.496237
  44        1.550085
  45        1.749477
  46        1.827310
  47        1.923039
  48        2.133743
  49        2.221329
  50        2.387494
  51        2.562431
  52        2.791114
  53        2.976606
  54        3.311669
  55        3.600903
  56        3.746662
  57        6.088531
  58        6.938451
  59        7.612058
  60        8.068776
  61        8.409469
  62        8.616039
  63        8.983118
  64        9.151099
  65       10.088199
  66       10.334982
  67       10.733400
  68       11.107996
  69       11.460235
  70       11.577180
  71       11.786652
  72       12.032232
  73       12.521171
  74       12.688303
  75       12.912400
  76       13.210373
  77       14.233694
  78       14.767510
  79       15.251433
  80       15.912121
 
  0.5000000E+00  0.5000000E+00  0.0000000E+00  0.1250000E-01
   1      -68.644991
   2      -68.644332
   3      -68.635334
   4      -68.633472
   5      -68.612800
   6      -68.612459
   7      -68.595548
   8      -68.595132
   9      -68.580093
  10      -68.577778
  11      -68.561211
  12      -68.560698
  13      -12.434459
  14      -11.500251
  15      -10.915373
  16      -10.619672
  17      -10.394317
  18      -10.198683
  19       -6.026538
  20       -4.812829
  21       -2.313544
  22       -2.263989
  23       -2.092862
  24       -1.700918
  25       -1.243754
  26       -1.113904
  27       -0.841965
  28       -0.781848
  29       -0.728467
  30       -0.244861
  31       -0.196990
  32       -0.177465
  33       -0.155634
  34       -0.043134
  35       -0.004566
  36        0.186779
  37        1.264923
  38        1.318046
  39        1.375665
  40        1.413603
  41        1.432955
  42        1.492762
  43        1.508367
  44        1.549924
  45        1.787489
  46        1.847721
  47        1.997185
  48        2.149931
  49        2.253131
  50        2.337276
  51        2.558986
  52        2.762580
  53        2.776023
  54        3.367872
  55        3.763629
  56        4.005119
  57        5.855135
  58        6.763841
  59        7.085201
  60        8.410657
  61        8.561118
  62        8.770705
  63        9.141870
  64        9.239280
  65        9.959582
  66       10.283323
  67       10.726056
  68       10.824619
  69       10.875678
  70       11.276377
  71       11.754490
  72       11.915796
  73       11.974053
  74       12.367304
  75       12.540298
  76       13.457130
  77       14.279229
  78       14.673043
  79       16.750461
  80       16.753677
 
 -0.2168404E-18 -0.2168404E-18  0.2000000E+00  0.2500000E-01
   1      -68.645388
   2      -68.644778
   3      -68.635579
   4      -68.633670
   5      -68.613178
   6      -68.612523
   7      -68.595858
   8      -68.595337
   9      -68.580300
  10      -68.577985
  11      -68.561609
  12      -68.561032
  13      -12.618712
  14      -11.426152
  15      -10.779493
  16      -10.608910
  17      -10.248686
  18      -10.235668
  19       -5.831462
  20       -5.047994
  21       -2.599930
  22       -2.373723
  23       -1.962245
  24       -1.774595
  25       -1.444151
  26       -1.128033
  27       -1.063874
  28       -0.772340
  29       -0.471568
  30       -0.294230
  31       -0.238584
  32       -0.234892
  33       -0.191309
  34       -0.145570
  35       -0.013245
  36        0.021508
  37        1.333550
  38        1.381016
  39        1.415686
  40        1.439232
  41        1.464408
  42        1.465394
  43        1.513899
  44        1.545702
  45        1.633014
  46        1.758601
  47        1.787605
  48        1.950492
  49        2.088960
  50        2.661800
  51        2.717377
  52        3.197084
  53        3.251084
  54        3.519315
  55        3.893744
  56        3.976788
  57        6.045738
  58        6.416479
  59        7.824049
  60        7.907570
  61        8.364393
  62        8.818217
  63        9.775214
  64        9.795636
  65       10.063417
  66       10.586640
  67       10.644558
  68       10.811383
  69       10.856756
  70       11.493404
  71       11.557686
  72       12.027699
  73       12.580125
  74       12.776925
  75       12.911896
  76       13.204599
  77       13.534337
  78       13.823565
  79       14.194516
  80       14.706583
 
  0.2500000E+00  0.1517883E-17  0.2000000E+00  0.2500000E-01
   1      -68.645323
   2      -68.644718
   3      -68.635566
   4      -68.633656
   5      -68.613210
   6      -68.612576
   7      -68.595834
   8      -68.595275
   9      -68.580313
  10      -68.577991
  11      -68.561546
  12      -68.560967
  13      -12.459629
  14      -11.467483
  15      -10.866294
  16      -10.689177
  17      -10.371816
  18      -10.244024
  19       -5.766883
  20       -4.805039
  21       -2.444774
  22       -2.234240
  23       -1.850325
  24       -1.714808
  25       -1.433833
  26       -1.190211
  27       -0.890921
  28       -0.742804
  29       -0.608142
  30       -0.523917
  31       -0.310646
  32       -0.241438
  33       -0.172959
  34       -0.122934
  35       -0.050617
  36        0.059970
  37        1.301251
  38        1.335748
  39        1.369689
  40        1.431018
  41        1.445678
  42        1.478987
  43        1.520383
  44        1.546056
  45        1.642541
  46        1.871356
  47        1.978684
  48        2.048510
  49        2.195058
  50        2.476399
  51        2.596195
  52        2.837882
  53        2.962107
  54        3.132467
  55        3.567076
  56        3.724753
  57        6.441358
  58        6.957075
  59        8.170998
  60        8.246457
  61        8.833386
  62        9.128877
  63        9.464968
  64        9.794961
  65       10.084917
  66       10.296976
  67       10.743708
  68       11.078608
  69       11.289510
  70       11.423640
  71       11.633038
  72       11.722702
  73       12.085821
  74       12.266823
  75       12.542610
  76       12.658231
  77       12.952731
  78       13.062292
  79       13.639996
  80       14.688536
 
  0.5000000E+00  0.9107298E-17  0.2000000E+00  0.2500000E-01
   1      -68.645066
   2      -68.644609
   3      -68.635477
   4      -68.633605
   5      -68.613055
   6      -68.612449
   7      -68.595693
   8      -68.595241
   9      -68.580165
  10      -68.577944
  11      -68.561260
  12      -68.561110
  13      -12.357276
  14      -11.414664
  15      -10.954548
  16      -10.684511
  17      -10.476706
  18      -10.333156
  19       -5.752035
  20       -4.722836
  21       -2.523264
  22       -2.185001
  23       -1.954143
  24       -1.535045
  25       -1.301286
  26       -1.097816
  27       -0.867753
  28       -0.761133
  29       -0.548543
  30       -0.445150
  31       -0.291268
  32       -0.179878
  33       -0.144933
  34       -0.104223
  35       -0.044736
  36        0.022859
  37        1.271780
  38        1.296606
  39        1.351428
  40        1.428339
  41        1.452066
  42        1.480397
  43        1.501091
  44        1.587751
  45        1.718688
  46        1.934614
  47        2.077260
  48        2.146541
  49        2.266890
  50        2.403582
  51        2.569055
  52        2.597821
  53        2.896758
  54        3.007532
  55        3.358075
  56        3.899835
  57        6.365160
  58        6.897271
  59        7.574216
  60        8.083888
  61        8.548594
  62        8.797531
  63        9.277682
  64        9.628607
  65        9.931457
  66       10.276656
  67       10.659771
  68       10.927372
  69       10.972049
  70       11.278600
  71       11.519197
  72       11.788853
  73       12.247731
  74       12.547876
  75       13.094629
  76       13.514688
  77       14.297367
  78       14.567807
  79       15.128056
  80       16.263409
 
 -0.2500000E+00 -0.4098284E-16  0.2000000E+00  0.2500000E-01
   1      -68.645371
   2      -68.644782
   3      -68.635554
   4      -68.633646
   5      -68.613189
   6      -68.612526
   7      -68.595855
   8      -68.595312
   9      -68.580308
  10      -68.578010
  11      -68.561617
  12      -68.561011
  13      -12.542372
  14      -11.338507
  15      -10.874109
  16      -10.607162
  17      -10.396525
  18      -10.282062
  19       -5.824967
  20       -4.975685
  21       -2.665271
  22       -2.454402
  23       -2.037648
  24       -1.577324
  25       -1.172653
  26       -0.984835
  27       -0.795619
  28       -0.650130
  29       -0.518030
  30       -0.388494
  31       -0.272114
  32       -0.256002
  33       -0.192876
  34       -0.142268
  35       -0.043503
  36        0.012323
  37        1.289810
  38        1.309427
  39        1.389067
  40        1.408276
  41        1.433936
  42        1.455527
  43        1.492131
  44        1.566121
  45        1.686835
  46        1.915741
  47        1.986196
  48        2.145319
  49        2.335927
  50        2.566327
  51        2.617574
  52        2.826124
  53        2.974090
  54        3.246535
  55        3.683735
  56        3.944599
  57        6.178434
  58        6.638379
  59        7.765963
  60        7.972449
  61        8.213900
  62        8.561137
  63        9.378660
  64        9.577557
  65        9.907682
  66       10.251632
  67       10.544718
  68       10.788989
  69       10.840449
  70       11.069074
  71       11.565720
  72       12.024458
  73       12.527054
  74       12.751369
  75       12.953755
  76       13.307217
  77       13.412467
  78       13.739999
  79       13.848340
  80       14.726574
 
  0.1517883E-17  0.2500000E+00  0.2000000E+00  0.2500000E-01
   1      -68.645319
   2      -68.644721
   3      -68.635565
   4      -68.633656
   5      -68.613220
   6      -68.612566
   7      -68.595827
   8      -68.595282
   9      -68.580300
  10      -68.578002
  11      -68.561560
  12      -68.560958
  13      -12.459749
  14      -11.467645
  15      -10.863130
  16      -10.692057
  17      -10.372400
  18      -10.243468
  19       -5.766890
  20       -4.805100
  21       -2.445355
  22       -2.234026
  23       -1.851038
  24       -1.715511
  25       -1.430270
  26       -1.188370
  27       -0.892396
  28       -0.747053
  29       -0.605391
  30       -0.526430
  31       -0.310793
  32       -0.242033
  33       -0.171408
  34       -0.122172
  35       -0.049440
  36        0.059159
  37        1.302638
  38        1.335688
  39        1.369051
  40        1.430556
  41        1.445772
  42        1.479211
  43        1.521302
  44        1.546251
  45        1.642400
  46        1.871324
  47        1.979192
  48        2.048016
  49        2.194370
  50        2.476599
  51        2.594169
  52        2.837718
  53        2.963538
  54        3.133909
  55        3.566437
  56        3.723301
  57        6.441653
  58        6.956216
  59        8.170396
  60        8.246623
  61        8.833798
  62        9.129008
  63        9.465569
  64        9.796192
  65       10.084060
  66       10.299440
  67       10.740400
  68       11.078565
  69       11.290188
  70       11.423252
  71       11.635256
  72       11.724286
  73       12.085843
  74       12.266073
  75       12.543610
  76       12.655855
  77       12.951854
  78       13.056750
  79       13.656183
  80       14.696372
 
  0.2500000E+00  0.2500000E+00  0.2000000E+00  0.2500000E-01
   1      -68.645227
   2      -68.644632
   3      -68.635421
   4      -68.633497
   5      -68.613056
   6      -68.612409
   7      -68.595695
   8      -68.595170
   9      -68.580183
  10      -68.577861
  11      -68.561472
  12      -68.560865
  13      -12.328090
  14      -11.475766
  15      -10.865663
  16      -10.855574
  17      -10.407787
  18      -10.284189
  19       -5.748047
  20       -4.692562
  21       -2.241897
  22       -2.139575
  23       -1.929532
  24       -1.850089
  25       -1.453246
  26       -1.396795
  27       -1.038675
  28       -0.521844
  29       -0.463715
  30       -0.353437
  31       -0.248131
  32       -0.212587
  33       -0.158254
  34       -0.111081
  35       -0.089535
  36        0.078699
  37        1.260789
  38        1.347192
  39        1.397117
  40        1.434716
  41        1.451808
  42        1.509440
  43        1.535348
  44        1.543814
  45        1.752779
  46        1.817640
  47        2.041234
  48        2.135700
  49        2.284709
  50        2.311443
  51        2.521525
  52        2.768874
  53        2.898633
  54        3.260752
  55        3.495836
  56        3.800553
  57        6.183985
  58        6.840089
  59        7.826910
  60        8.044264
  61        8.189103
  62        8.727153
  63        9.153405
  64        9.305440
  65       10.220277
  66       10.441467
  67       10.592409
  68       11.007022
  69       11.238157
  70       11.490672
  71       11.811739
  72       12.170484
  73       12.208359
  74       12.575457
  75       12.692038
  76       13.113268
  77       13.414513
  78       13.883950
  79       14.003092
  80       14.526225
 
  0.5000000E+00  0.2500000E+00  0.2000000E+00  0.2500000E-01
   1      -68.645097
   2      -68.644481
   3      -68.635485
   4      -68.633681
   5      -68.612892
   6      -68.612615
   7      -68.595730
   8      -68.595268
   9      -68.580114
  10      -68.577987
  11      -68.561236
  12      -68.561035
  13      -12.374920
  14      -11.474138
  15      -10.937209
  16      -10.654583
  17      -10.417662
  18      -10.303560
  19       -5.800946
  20       -4.837846
  21       -2.526806
  22       -2.246142
  23       -1.869899
  24       -1.643412
  25       -1.505392
  26       -1.309375
  27       -0.899198
  28       -0.533163
  29       -0.379676
  30       -0.349431
  31       -0.225669
  32       -0.176380
  33       -0.160971
  34       -0.078358
  35       -0.027584
  36        0.081184
  37        1.188854
  38        1.363510
  39        1.397596
  40        1.442169
  41        1.462732
  42        1.505860
  43        1.518914
  44        1.585261
  45        1.740104
  46        1.817902
  47        2.039027
  48        2.235254
  49        2.269395
  50        2.363063
  51        2.489313
  52        2.669680
  53        3.052180
  54        3.409071
  55        3.729007
  56        3.865114
  57        5.931772
  58        6.612211
  59        7.354667
  60        7.941624
  61        8.065523
  62        8.723023
  63        8.905006
  64        9.138186
  65        9.844379
  66       10.329886
  67       10.556563
  68       10.926466
  69       11.223999
  70       11.414997
  71       11.749133
  72       12.002818
  73       12.495042
  74       12.832118
  75       13.205529
  76       14.181821
  77       14.714897
  78       15.153592
  79       15.924504
  80       16.568894
 
 -0.2500000E+00  0.2500000E+00  0.2000000E+00  0.2500000E-01
   1      -68.645319
   2      -68.644687
   3      -68.635613
   4      -68.633694
   5      -68.613130