       N       E                     dE             d eps       ncg     rms          ort
SDA:   1     0.757096377422E+02    0.75710E+02   -0.21358E+03  3360   0.534E+03 0.000E+00
DMP:   2    -0.824116246049E+01   -0.83951E+02   -0.14720E+03  3360   0.396E+03-0.744E+02
DMP:   3    -0.149990277485E+02   -0.67579E+01   -0.20276E+03  3360   0.688E+03-0.474E+03
DMP:   4    -0.225045223862E+02   -0.75055E+01   -0.10768E+03  3360   0.392E+03-0.320E+03
DMP:   5    -0.608022805222E+02   -0.38298E+02   -0.15090E+02  3360   0.707E+02-0.863E+02
DMP:   6    -0.659395391831E+02   -0.51373E+01   -0.81559E+01  3360   0.246E+02-0.110E+02
DMP:   7    -0.674780759541E+02   -0.15385E+01   -0.41262E+01  3360   0.147E+02-0.114E+02
DMP:   8    -0.690854457566E+02   -0.16074E+01   -0.77064E+00  3360   0.283E+01-0.237E+01
DMP:   9    -0.693953795000E+02   -0.30993E+00   -0.38557E+00  3360   0.110E+01-0.367E+00
DMP:  10    -0.694990455493E+02   -0.10367E+00   -0.15204E+00  3360   0.546E+00-0.436E+00
DMP:  11    -0.695685623690E+02   -0.69517E-01   -0.36950E-01  3360   0.105E+00-0.337E-01
DMP:  12    -0.695809533183E+02   -0.12391E-01   -0.22810E-01  3360   0.688E-01-0.309E-01
DMP:  13    -0.695906004005E+02   -0.96471E-02   -0.51201E-02  3360   0.161E-01-0.873E-02
DMP:  14    -0.695930545271E+02   -0.24541E-02   -0.37735E-02  3360   0.963E-02-0.521E-03
DMP:  15    -0.695945586915E+02   -0.15042E-02   -0.10359E-02  3360   0.332E-02-0.192E-02
DMP:  16    -0.695951281059E+02   -0.56941E-03   -0.40863E-03  3360   0.916E-03 0.276E-03
DMP:  17    -0.695953009080E+02   -0.17280E-03   -0.20826E-03  3360   0.578E-03-0.151E-03
DMP:  18    -0.695954176673E+02   -0.11676E-03   -0.56124E-04  3360   0.119E-03 0.550E-04
DMP:  19    -0.695954465288E+02   -0.28861E-04   -0.35155E-04  3360   0.880E-04-0.217E-06
DMP:  20    -0.695954662065E+02   -0.19678E-04   -0.11534E-04  3360   0.241E-04 0.124E-04
DMP:  21    -0.695954735663E+02   -0.73598E-05   -0.69877E-05  3360   0.140E-04 0.910E-05
   1 F= -.69595474E+02 E0= -.69595661E+02  d E =0.561951E-03
