   12   12    1    1
  0.1849176E+02  0.6500240E-09  0.6500240E-09  0.6428867E-09  0.5000000E-15
  1.000000000000000E-004
  CAR 
 CGS                                     
  112   42   80
 
  0.0000000E+00  0.0000000E+00  0.0000000E+00  0.1250000E-01
   1      -68.646164
   2      -68.644479
   3      -68.633914
   4      -68.632973
   5      -68.613998
   6      -68.612497
   7      -68.596665
   8      -68.595046
   9      -68.579837
  10      -68.578034
  11      -68.561267
  12      -68.558367
  13      -12.721127
  14      -11.130040
  15      -10.916931
  16      -10.603513
  17      -10.252624
  18      -10.233846
  19       -5.984717
  20       -4.983930
  21       -2.761009
  22       -2.209755
  23       -2.069769
  24       -1.922368
  25       -1.577300
  26       -0.982426
  27       -0.951118
  28       -0.686399
  29       -0.403618
  30       -0.276152
  31       -0.259347
  32       -0.234213
  33       -0.192418
  34       -0.152414
  35       -0.038738
  36        0.030746
  37        1.350704
  38        1.362570
  39        1.414507
  40        1.457788
  41        1.471012
  42        1.473677
  43        1.520486
  44        1.532593
  45        1.575074
  46        1.712788
  47        1.893915
  48        1.930002
  49        2.061229
  50        2.649752
  51        2.728079
  52        3.088933
  53        3.213476
  54        4.005896
  55        4.036981
  56        4.173353
  57        5.537461
  58        6.359032
  59        7.627506
  60        7.985045
  61        8.618548
  62        8.791563
  63        9.572443
  64        9.737985
  65        9.815084
  66       10.421022
  67       10.579825
  68       10.697861
  69       10.715634
  70       11.282286
  71       11.710568
  72       12.391804
  73       12.452994
  74       12.727472
  75       13.318786
  76       13.383600
  77       13.830262
  78       13.891338
  79       14.143253
  80       14.182144
 
  0.2500000E+00  0.7372575E-17  0.1387779E-16  0.2500000E-01
   1      -68.646119
   2      -68.644454
   3      -68.633873
   4      -68.632949
   5      -68.613883
   6      -68.612399
   7      -68.596694
   8      -68.595044
   9      -68.579768
  10      -68.577982
  11      -68.561231
  12      -68.558333
  13      -12.596153
  14      -11.126291
  15      -10.982673
  16      -10.680634
  17      -10.365153
  18      -10.276565
  19       -5.933146
  20       -4.773259
  21       -2.645537
  22       -2.253607
  23       -2.085114
  24       -1.688557
  25       -1.347077
  26       -0.999524
  27       -0.771240
  28       -0.622450
  29       -0.552440
  30       -0.436374
  31       -0.361738
  32       -0.240555
  33       -0.194346
  34       -0.163988
  35       -0.047074
  36        0.037847
  37        1.279950
  38        1.335469
  39        1.354651
  40        1.393033
  41        1.427076
  42        1.471796
  43        1.497852
  44        1.529976
  45        1.724683
  46        1.859854
  47        2.057531
  48        2.093601
  49        2.233758
  50        2.413500
  51        2.555027
  52        2.823503
  53        2.946198
  54        3.242025
  55        3.663212
  56        4.040342
  57        6.170164
  58        6.905857
  59        8.135948
  60        8.269042
  61        8.593675
  62        9.011840
  63        9.244353
  64        9.532442
  65        9.864890
  66       10.376605
  67       10.634334
  68       10.813202
  69       10.937880
  70       11.192077
  71       11.657058
  72       11.768968
  73       12.117074
  74       12.440110
  75       12.618171
  76       13.008982
  77       13.507592
  78       13.873539
  79       14.213933
  80       14.711148
 
  0.5000000E+00  0.1474515E-16  0.2775558E-16  0.1250000E-01
   1      -68.646003
   2      -68.644286
   3      -68.633824
   4      -68.632840
   5      -68.613831
   6      -68.612385
   7      -68.596606
   8      -68.594980
   9      -68.579722
  10      -68.577967
  11      -68.561062
  12      -68.558211
  13      -12.436828
  14      -11.246871
  15      -10.957023
  16      -10.771732
  17      -10.424002
  18      -10.357055
  19       -5.870930
  20       -4.548022
  21       -2.492803
  22       -2.246219
  23       -1.943526
  24       -1.465904
  25       -1.224636
  26       -1.107778
  27       -0.898542
  28       -0.865908
  29       -0.599876
  30       -0.532815
  31       -0.274298
  32       -0.209039
  33       -0.197599
  34       -0.143163
  35       -0.029091
  36        0.079861
  37        1.254246
  38        1.327429
  39        1.347008
  40        1.397706
  41        1.469669
  42        1.478310
  43        1.500327
  44        1.553649
  45        1.752437
  46        1.790495
  47        1.967115
  48        2.145531
  49        2.320229
  50        2.361826
  51        2.555709
  52        2.669965
  53        2.939251
  54        3.079029
  55        3.249719
  56        3.861939
  57        6.385008
  58        7.096771
  59        7.981226
  60        8.204000
  61        8.520347
  62        8.821077
  63        9.328400
  64        9.889441
  65       10.010993
  66       10.519303
  67       10.691768
  68       10.793101
  69       11.141268
  70       11.408962
  71       11.608279
  72       11.772726
  73       11.940618
  74       12.503522
  75       12.779538
  76       13.001164
  77       13.397110
  78       13.539935
  79       13.942577
  80       14.273751
 
  0.7372575E-17  0.2500000E+00  0.1387779E-16  0.2500000E-01
   1      -68.646141
   2      -68.644432
   3      -68.633887
   4      -68.632935
   5      -68.613887
   6      -68.612395
   7      -68.596667
   8      -68.595071
   9      -68.579779
  10      -68.577967
  11      -68.561233
  12      -68.558334
  13      -12.596082
  14      -11.128946
  15      -10.982245
  16      -10.675802
  17      -10.365628
  18      -10.278764
  19       -5.932978
  20       -4.773630
  21       -2.646492
  22       -2.250865
  23       -2.087046
  24       -1.690289
  25       -1.343761
  26       -1.000039
  27       -0.768319
  28       -0.623386
  29       -0.552826
  30       -0.439682
  31       -0.358643
  32       -0.242665
  33       -0.191368
  34       -0.170706
  35       -0.044410
  36        0.038617
  37        1.278989
  38        1.336069
  39        1.355477
  40        1.392137
  41        1.427320
  42        1.472005
  43        1.498196
  44        1.530346
  45        1.724674
  46        1.858569
  47        2.058252
  48        2.094890
  49        2.232405
  50        2.414368
  51        2.554641
  52        2.824194
  53        2.945408
  54        3.241878
  55        3.663161
  56        4.040201
  57        6.170663
  58        6.905908
  59        8.137107
  60        8.267299
  61        8.593903
  62        9.012925
  63        9.243182
  64        9.530988
  65        9.866228
  66       10.377550
  67       10.634099
  68       10.814874
  69       10.937373
  70       11.191137
  71       11.655368
  72       11.768483
  73       12.116724
  74       12.440593
  75       12.619643
  76       13.009057
  77       13.518160
  78       13.901242
  79       14.271019
  80       14.842332
 
  0.2500000E+00  0.2500000E+00  0.0000000E+00  0.2500000E-01
   1      -68.646141
   2      -68.644456
   3      -68.633789
   4      -68.632820
   5      -68.614021
   6      -68.612530
   7      -68.596572
   8      -68.594944
   9      -68.579899
  10      -68.578098
  11      -68.561251
  12      -68.558349
  13      -12.440521
  14      -11.191088
  15      -10.942989
  16      -10.879455
  17      -10.391153
  18      -10.349296
  19       -5.875851
  20       -4.521800
  21       -2.417785
  22       -2.245542
  23       -1.791203
  24       -1.681467
  25       -1.355069
  26       -1.298603
  27       -1.084819
  28       -0.684541
  29       -0.523395
  30       -0.297335
  31       -0.282150
  32       -0.223098
  33       -0.187144
  34       -0.125581
  35       -0.089668
  36        0.078913
  37        1.293299
  38        1.310881
  39        1.415436
  40        1.426670
  41        1.463423
  42        1.482467
  43        1.495405
  44        1.569783
  45        1.671445
  46        1.880192
  47        1.940710
  48        2.134237
  49        2.278641
  50        2.319417
  51        2.559646
  52        2.649825
  53        2.902801
  54        2.944337
  55        3.699555
  56        3.832355
  57        6.171835
  58        6.990035
  59        8.004558
  60        8.328102
  61        8.436099
  62        8.571831
  63        9.146487
  64        9.247997
  65       10.362164
  66       10.496426
  67       10.919937
  68       11.184467
  69       11.328134
  70       11.557420
  71       11.811908
  72       11.963099
  73       12.313884
  74       12.503545
  75       12.710144
  76       12.914949
  77       13.339252
  78       13.444683
  79       14.256502
  80       14.366608
 
  0.5000000E+00  0.2500000E+00 -0.2775558E-16  0.2500000E-01
   1      -68.645836
   2      -68.644316
   3      -68.633841
   4      -68.632917
   5      -68.613784
   6      -68.612316
   7      -68.596611
   8      -68.595011
   9      -68.579624
  10      -68.577974
  11      -68.561085
  12      -68.558216
  13      -12.441065
  14      -11.353574
  15      -10.937873
  16      -10.741247
  17      -10.388040
  18      -10.270598
  19       -5.947835
  20       -4.642816
  21       -2.391379
  22       -2.226855
  23       -2.055393
  24       -1.640733
  25       -1.363760
  26       -1.278281
  27       -1.025963
  28       -0.508684
  29       -0.485450
  30       -0.330610
  31       -0.286149
  32       -0.214683
  33       -0.150361
  34       -0.133426
  35       -0.008948
  36        0.111465
  37        1.246496
  38        1.315169
  39        1.382295
  40        1.437097
  41        1.461883
  42        1.492227
  43        1.496952
  44        1.549320
  45        1.749640
  46        1.828515
  47        1.921264
  48        2.131216
  49        2.219979
  50        2.386619
  51        2.563111
  52        2.789690
  53        2.978967
  54        3.312310
  55        3.603424
  56        3.749749
  57        6.087281
  58        6.939622
  59        7.611362
  60        8.068648
  61        8.411068
  62        8.615980
  63        8.983984
  64        9.152147
  65       10.086951
  66       10.336205
  67       10.731880
  68       11.107663
  69       11.460371
  70       11.592209
  71       11.798095
  72       12.086714
  73       12.477277
  74       12.914912
  75       13.039012
  76       13.827763
  77       14.191264
  78       14.654122
  79       15.434765
  80       15.643535
 
 -0.2500000E+00  0.2500000E+00  0.0000000E+00  0.2500000E-01
   1      -68.646132
   2      -68.644445
   3      -68.633856
   4      -68.632912
   5      -68.613819
   6      -68.612330
   7      -68.596664
   8      -68.595042
   9      -68.579723
  10      -68.577920
  11      -68.561233
  12      -68.558336
  13      -12.599129
  14      -11.251830
  15      -10.991282
  16      -10.571768
  17      -10.365408
  18      -10.180320
  19       -6.010116
  20       -4.895361
  21       -2.647526
  22       -2.313642
  23       -1.971037
  24       -1.646106
  25       -1.495088
  26       -1.183897
  27       -0.790667
  28       -0.584196
  29       -0.445471
  30       -0.332432
  31       -0.295063
  32       -0.232736
  33       -0.176631
  34       -0.132596
  35       -0.008913
  36        0.071196
  37        1.258967
  38        1.320071
  39        1.365198
  40        1.423122
  41        1.431593
  42        1.475783
  43        1.503728
  44        1.543781
  45        1.725200
  46        1.812184
  47        1.995896
  48        2.072947
  49        2.418565
  50        2.461629
  51        2.529468
  52        2.871144
  53        3.144059
  54        3.226669
  55        3.784366
  56        4.070576
  57        5.978464
  58        6.688376
  59        7.533142
  60        8.222857
  61        8.616416
  62        8.913459
  63        9.307114
  64        9.431303
  65        9.803559
  66       10.272273
  67       10.542840
  68       10.831766
  69       10.972180
  70       11.380260
  71       11.470371
  72       11.735121
  73       12.098505
  74       12.663717
  75       12.943082
  76       13.102530
  77       13.354114
  78       13.520050
  79       14.475696
  80       14.756326
 
  0.1474515E-16  0.5000000E+00  0.2775558E-16  0.1250000E-01
   1      -68.645967
   2      -68.644312
   3      -68.633824
   4      -68.632840
   5      -68.613872
   6      -68.612346
   7      -68.596597
   8      -68.594990
   9      -68.579766
  10      -68.577908
  11      -68.561121
  12      -68.558171
  13      -12.436559
  14      -11.252079
  15      -10.956658
  16      -10.761177
  17      -10.427470
  18      -10.359566
  19       -5.870658
  20       -4.548742
  21       -2.494877
  22       -2.243085
  23       -1.946231
  24       -1.463623
  25       -1.224933
  26       -1.100624
  27       -0.904011
  28       -0.865358
  29       -0.598967
  30       -0.535958
  31       -0.275619
  32       -0.205381
  33       -0.199483
  34       -0.146047
  35       -0.026428
  36        0.079234
  37        1.253766
  38        1.329451
  39        1.347099
  40        1.395805
  41        1.471380
  42        1.477672
  43        1.499564
  44        1.553375
  45        1.752962
  46        1.791079
  47        1.968501
  48        2.147180
  49        2.318668
  50        2.360463
  51        2.554062
  52        2.669418
  53        2.936793
  54        3.080164
  55        3.253909
  56        3.860927
  57        6.385843
  58        7.096715
  59        7.981120
  60        8.205978
  61        8.517740
  62        8.821272
  63        9.326374
  64        9.888072
  65       10.011566
  66       10.519896
  67       10.692784
  68       10.792664
  69       11.141079
  70       11.405523
  71       11.608819
  72       11.780014
  73       11.942652
  74       12.506143
  75       12.823018
  76       13.029220
  77       13.549649
  78       13.684228
  79       14.552373
  80       15.246626
 
  0.2500000E+00  0.5000000E+00 -0.2775558E-16  0.2500000E-01
   1      -68.645890
   2      -68.644268
   3      -68.633783
   4      -68.632935
   5      -68.613776
   6      -68.612343
   7      -68.596614
   8      -68.595028
   9      -68.579653
  10      -68.577933
  11      -68.561118
  12      -68.558190
  13      -12.440939
  14      -11.355050
  15      -10.938056
  16      -10.738146
  17      -10.387238
  18      -10.272963
  19       -5.947702
  20       -4.643143
  21       -2.392785
  22       -2.225202
  23       -2.057168
  24       -1.639116
  25       -1.358545
  26       -1.282575
  27       -1.025212
  28       -0.513052
  29       -0.483758
  30       -0.329207
  31       -0.282941
  32       -0.216984
  33       -0.152191
  34       -0.133837
  35       -0.009160
  36        0.112352
  37        1.245693
  38        1.314880
  39        1.383802
  40        1.436822
  41        1.462421
  42        1.492228
  43        1.496403
  44        1.549977
  45        1.748755
  46        1.827203
  47        1.923319
  48        2.133573
  49        2.220435
  50        2.384666
  51        2.561133
  52        2.790675
  53        2.977921
  54        3.313377
  55        3.604160
  56        3.748643
  57        6.087752
  58        6.940077
  59        7.611402
  60        8.068396
  61        8.410641
  62        8.616557
  63        8.983028
  64        9.151985
  65       10.086958
  66       10.334130
  67       10.733002
  68       11.107983
  69       11.459168
  70       11.578230
  71       11.786150
  72       12.033008
  73       12.520215
  74       12.685956
  75       12.912970
  76       13.203588
  77       14.230752
  78       14.768760
  79       15.246794
  80       15.906807
 
  0.5000000E+00  0.5000000E+00  0.0000000E+00  0.1250000E-01
   1      -68.645750
   2      -68.644064
   3      -68.633649
   4      -68.632721
   5      -68.613597
   6      -68.612300
   7      -68.596394
   8      -68.594845
   9      -68.579608
  10      -68.577799
  11      -68.560898
  12      -68.558003
  13      -12.433023
  14      -11.501644
  15      -10.913132
  16      -10.619618
  17      -10.396187
  18      -10.199339
  19       -6.026435
  20       -4.811459
  21       -2.313026
  22       -2.263129
  23       -2.093081
  24       -1.700258
  25       -1.245694
  26       -1.111631
  27       -0.843405
  28       -0.780930
  29       -0.725226
  30       -0.245922
  31       -0.197716
  32       -0.181836
  33       -0.153686
  34       -0.041134
  35       -0.003122
  36        0.184454
  37        1.265463
  38        1.318141
  39        1.375362
  40        1.414293
  41        1.432395
  42        1.492381
  43        1.509542
  44        1.549805
  45        1.787491
  46        1.847144
  47        1.997354
  48        2.149324
  49        2.251350
  50        2.336098
  51        2.559821
  52        2.761431
  53        2.776880
  54        3.372695
  55        3.764654
  56        4.007057
  57        5.853746
  58        6.764044
  59        7.085191
  60        8.410800
  61        8.560792
  62        8.770096
  63        9.141893
  64        9.240064
  65        9.959423
  66       10.283942
  67       10.726371
  68       10.825656
  69       10.875384
  70       11.276309
  71       11.754639
  72       11.913077
  73       11.977188
  74       12.366676
  75       12.540057
  76       13.457012
  77       14.278931
  78       14.672678
  79       16.748095
  80       16.754575
 
 -0.2168404E-18 -0.2168404E-18  0.2000000E+00  0.2500000E-01
   1      -68.646169
   2      -68.644478
   3      -68.633882
   4      -68.632943
   5      -68.613915
   6      -68.612423
   7      -68.596689
   8      -68.595066
   9      -68.579809
  10      -68.578007
  11      -68.561269
  12      -68.558370
  13      -12.617911
  14      -11.425454
  15      -10.778713
  16      -10.608601
  17      -10.251773
  18      -10.235521
  19       -5.831011
  20       -5.047217
  21       -2.601014
  22       -2.372288
  23       -1.962446
  24       -1.774689
  25       -1.443762
  26       -1.126074
  27       -1.064724
  28       -0.772477
  29       -0.473082
  30       -0.294467
  31       -0.238960
  32       -0.230961
  33       -0.189711
  34       -0.143979
  35       -0.017754
  36        0.022703
  37        1.333655
  38        1.381343
  39        1.416656
  40        1.439388
  41        1.465030
  42        1.466528
  43        1.514785
  44        1.545782
  45        1.632900
  46        1.759588
  47        1.787634
  48        1.952566
  49        2.089165
  50        2.659023
  51        2.718468
  52        3.193652
  53        3.249052
  54        3.520562
  55        3.894346
  56        3.975371
  57        6.046249
  58        6.417834
  59        7.824069
  60        7.906834
  61        8.365117
  62        8.818078
  63        9.775672
  64        9.795515
  65       10.063051
  66       10.585985
  67       10.646545
  68       10.812879
  69       10.856124
  70       11.492816
  71       11.556396
  72       12.025821
  73       12.581580
  74       12.777017
  75       12.911295
  76       13.204415
  77       13.533353
  78       13.823898
  79       14.196845
  80       14.705701
 
  0.2500000E+00  0.1517883E-17  0.2000000E+00  0.2500000E-01
   1      -68.646104
   2      -68.644417
   3      -68.633868
   4      -68.632928
   5      -68.613958
   6      -68.612465
   7      -68.596646
   8      -68.595021
   9      -68.579823
  10      -68.578013
  11      -68.561212
  12      -68.558301
  13      -12.458827
  14      -11.466406
  15      -10.864284
  16      -10.691602
  17      -10.373559
  18      -10.244032
  19       -5.766602
  20       -4.804186
  21       -2.445325
  22       -2.233135
  23       -1.848188
  24       -1.713092
  25       -1.436569
  26       -1.188405
  27       -0.893542
  28       -0.746343
  29       -0.605529
  30       -0.522871
  31       -0.307424
  32       -0.241694
  33       -0.172391
  34       -0.120646
  35       -0.053633
  36        0.059692
  37        1.302522
  38        1.336613
  39        1.369515
  40        1.431058
  41        1.446881
  42        1.478566
  43        1.520526
  44        1.546859
  45        1.643192
  46        1.870538
  47        1.978317
  48        2.049030
  49        2.193994
  50        2.475977
  51        2.594485
  52        2.837926
  53        2.962017
  54        3.131675
  55        3.568153
  56        3.724932
  57        6.441877
  58        6.957233
  59        8.171749
  60        8.246861
  61        8.834203
  62        9.128367
  63        9.464365
  64        9.797749
  65       10.086452
  66       10.298067
  67       10.738514
  68       11.078493
  69       11.289061
  70       11.424236
  71       11.633100
  72       11.722248
  73       12.084347
  74       12.268120
  75       12.542691
  76       12.657216
  77       12.956171
  78       13.062287
  79       13.641157
  80       14.690573
 
  0.5000000E+00  0.9107298E-17  0.2000000E+00  0.2500000E-01
   1      -68.645892
   2      -68.644283
   3      -68.633756
   4      -68.632878
   5      -68.613804
   6      -68.612339
   7      -68.596542
   8      -68.594955
   9      -68.579677
  10      -68.577966
  11      -68.561120
  12      -68.558244
  13      -12.356574
  14      -11.412703
  15      -10.952958
  16      -10.689148
  17      -10.477827
  18      -10.331800
  19       -5.751904
  20       -4.721903
  21       -2.521988
  22       -2.185604
  23       -1.952273
  24       -1.535884
  25       -1.301800
  26       -1.097826
  27       -0.870054
  28       -0.756337
  29       -0.547363
  30       -0.447002
  31       -0.289389
  32       -0.178777
  33       -0.144313
  34       -0.107159
  35       -0.045176
  36        0.022415
  37        1.271017
  38        1.298869
  39        1.351817
  40        1.428862
  41        1.452876
  42        1.479686
  43        1.501253
  44        1.588351
  45        1.718868
  46        1.931437
  47        2.075696
  48        2.144957
  49        2.267035
  50        2.403823
  51        2.568826
  52        2.597558
  53        2.899110
  54        3.009185
  55        3.360701
  56        3.899512
  57        6.365048
  58        6.896502
  59        7.574221
  60        8.083716
  61        8.548680
  62        8.797769
  63        9.279672
  64        9.628404
  65        9.931728
  66       10.275891
  67       10.659361
  68       10.928594
  69       10.972979
  70       11.279747
  71       11.519997
  72       11.784934
  73       12.249841
  74       12.555505
  75       13.089753
  76       13.530131
  77       14.293796
  78       14.563951
  79       15.124435
  80       16.265700
 
 -0.2500000E+00 -0.4098284E-16  0.2000000E+00  0.2500000E-01
   1      -68.646163
   2      -68.644471
   3      -68.633856
   4      -68.632919
   5      -68.613917
   6      -68.612435
   7      -68.596677
   8      -68.595048
   9      -68.579819
  10      -68.578033
  11      -68.561257
  12      -68.558367
  13      -12.541612
  14      -11.337515
  15      -10.872079
  16      -10.609510
  17      -10.399109
  18      -10.281120
  19       -5.824690
  20       -4.974816
  21       -2.664879
  22       -2.454615
  23       -2.038453
  24       -1.575648
  25       -1.172451
  26       -0.984800
  27       -0.791780
  28       -0.654936
  29       -0.514159
  30       -0.392856
  31       -0.268060
  32       -0.253338
  33       -0.194642
  34       -0.143070
  35       -0.046056
  36        0.013265
  37        1.289657
  38        1.311645
  39        1.388915
  40        1.409186
  41        1.433634
  42        1.456026
  43        1.491945
  44        1.565194
  45        1.687245
  46        1.916001
  47        1.986623
  48        2.146640
  49        2.335909
  50        2.567016
  51        2.614844
  52        2.828080
  53        2.971750
  54        3.249185
  55        3.682939
  56        3.944611
  57        6.178026
  58        6.637523
  59        7.764324
  60        7.972696
  61        8.215699
  62        8.562152
  63        9.379275
  64        9.576639
  65        9.908429
  66       10.251774
  67       10.544385
  68       10.787118
  69       10.841822
  70       11.068683
  71       11.565718
  72       12.021975
  73       12.530136
  74       12.751236
  75       12.952503
  76       13.310211
  77       13.412802
  78       13.741170
  79       13.846263
  80       14.726665
 
  0.1517883E-17  0.2500000E+00  0.2000000E+00  0.2500000E-01
   1      -68.646105
   2      -68.644415
   3      -68.633867
   4      -68.632929
   5      -68.613952
   6      -68.612471
   7      -68.596654
   8      -68.595014
   9      -68.579815
  10      -68.578024
  11      -68.561200
  12      -68.558311
  13      -12.458688
  14      -11.467541
  15      -10.864607
  16      -10.688547
  17      -10.373515
  18      -10.245799
  19       -5.766602
  20       -4.804294
  21       -2.445432
  22       -2.232745
  23       -1.851402
  24       -1.713090
  25       -1.429775
  26       -1.193479
  27       -0.891110
  28       -0.744687
  29       -0.606330
  30       -0.523612
  31       -0.309550
  32       -0.242055
  33       -0.170352
  34       -0.122008
  35       -0.052852
  36        0.059249
  37        1.302123
  38        1.335972
  39        1.370084
  40        1.432640
  41        1.445931
  42        1.479335
  43        1.520495
  44        1.546533
  45        1.642876
  46        1.870642
  47        1.977062
  48        2.049015
  49        2.195019
  50        2.476439
  51        2.593542
  52        2.838788
  53        2.962825
  54        3.131909
  55        3.566751
  56        3.724875
  57        6.442483
  58        6.957161
  59        8.171516
  60        8.246291
  61        8.833621
  62        9.129419
  63        9.466405
  64        9.795659
  65       10.084645
  66       10.301187
  67       10.739299
  68       11.078115
  69       11.290129
  70       11.421735
  71       11.630962
  72       11.722414
  73       12.085304
  74       12.267359
  75       12.542757
  76       12.659531
  77       12.953976
  78       13.057676
  79       13.656048
  80       14.697331
 
  0.2500000E+00  0.2500000E+00  0.2000000E+00  0.2500000E-01
   1      -68.646013
   2      -68.644327
   3      -68.633731
   4      -68.632763
   5      -68.613795
   6      -68.612307
   7      -68.596523
   8      -68.594900
   9      -68.579695
  10      -68.577881
  11      -68.561120
  12      -68.558213
  13      -12.326956
  14      -11.475586
  15      -10.864949
  16      -10.856045
  17      -10.407850
  18      -10.285787
  19       -5.747950
  20       -4.691655
  21       -2.241536
  22       -2.138845
  23       -1.927639
  24       -1.849418
  25       -1.453246
  26       -1.397820
  27       -1.040088
  28       -0.520769
  29       -0.463159
  30       -0.349544
  31       -0.248389
  32       -0.216117
  33       -0.160095
  34       -0.112459
  35       -0.086768
  36        0.077924
  37        1.261151
  38        1.346787
  39        1.398027
  40        1.435393
  41        1.453138
  42        1.510512
  43        1.535347
  44        1.544317
  45        1.753786
  46        1.817389
  47        2.039779
  48        2.135014
  49        2.284694
  50        2.309551
  51        2.522169
  52        2.768216
  53        2.898270
  54        3.261679
  55        3.495420
  56        3.802901
  57        6.183402
  58        6.841185
  59        7.827329
  60        8.044476
  61        8.190121
  62        8.728300
  63        9.153430
  64        9.306449
  65       10.219136
  66       10.441116
  67       10.593113
  68       11.004758
  69       11.240148
  70       11.490095
  71       11.812147
  72       12.171768
  73       12.206078
  74       12.574971
  75       12.688597
  76       13.113872
  77       13.415145
  78       13.880009
  79       14.005318
  80       14.525051
 
  0.5000000E+00  0.2500000E+00  0.2000000E+00  0.2500000E-01
   1      -68.645825
   2      -68.644246
   3      -68.633741
   4      -68.632980
   5      -68.613711
   6      -68.612436
   7      -68.596587
   8      -68.594975
   9      -68.579616
  10      -68.578018
  11      -68.561061
  12      -68.558203
  13      -12.373854
  14      -11.473792
  15      -10.935929
  16      -10.655958
  17      -10.420124
  18      -10.302552
  19       -5.800934
  20       -4.836654
  21       -2.525869
  22       -2.245456
  23       -1.871586
  24       -1.642972
  25       -1.504768
  26       -1.306420
  27       -0.901866
  28       -0.532463
  29       -0.378501
  30       -0.349538
  31       -0.224456
  32       -0.180165
  33       -0.158427
  34       -0.078365
  35       -0.026026
  36        0.078448
  37        1.189277
  38        1.364038
  39        1.397365
  40        1.442756
  41        1.462865
  42        1.506616
  43        1.519267
  44        1.585317
  45        1.740734
  46        1.818326
  47        2.036353
  48        2.234782
  49        2.269205
  50        2.363334
  51        2.487630
  52        2.670265
  53        3.054089
  54        3.411831
  55        3.729790
  56        3.864748
  57        5.930719
  58        6.612756
  59        7.352429
  60        7.942788
  61        8.066599
  62        8.723172
  63        8.906710
  64        9.138932
  65        9.844301
  66       10.328443
  67       10.555450
  68       10.925463
  69       11.223934
  70       11.416436
  71       11.748852
  72       12.004356
  73       12.496536
  74       12.830314
  75       13.207180
  76       14.179827
  77       14.714836
  78       15.154234
  79       15.912788
  80       16.568354
 
 -0.2500000E+00  0.2500000E+00  0.2000000E+00  0.2500000E-01
   1      -68.646068
   2      -68.644419
   3      -68.633911
   4      -68.632974
   5      -68.613891