       N       E                     dE             d eps       ncg     rms          ort
SDA:   1     0.757189072419E+02    0.75719E+02   -0.21361E+03  3360   0.534E+03 0.000E+00
DMP:   2    -0.826380491298E+01   -0.83983E+02   -0.14709E+03  3360   0.396E+03-0.742E+02
DMP:   3    -0.151051330565E+02   -0.68413E+01   -0.20530E+03  3360   0.700E+03-0.488E+03
DMP:   4    -0.226083855474E+02   -0.75033E+01   -0.10757E+03  3360   0.391E+03-0.320E+03
DMP:   5    -0.607890347339E+02   -0.38181E+02   -0.15131E+02  3360   0.709E+02-0.867E+02
DMP:   6    -0.659602761586E+02   -0.51712E+01   -0.80725E+01  3360   0.243E+02-0.109E+02
DMP:   7    -0.674895938156E+02   -0.15293E+01   -0.41016E+01  3360   0.146E+02-0.113E+02
DMP:   8    -0.690849072494E+02   -0.15953E+01   -0.77244E+00  3360   0.284E+01-0.237E+01
DMP:   9    -0.693967579689E+02   -0.31185E+00   -0.38139E+00  3360   0.109E+01-0.361E+00
DMP:  10    -0.694993228164E+02   -0.10256E+00   -0.15169E+00  3360   0.544E+00-0.431E+00
DMP:  11    -0.695685560991E+02   -0.69233E-01   -0.36714E-01  3360   0.105E+00-0.343E-01
DMP:  12    -0.695809629448E+02   -0.12407E-01   -0.22662E-01  3360   0.682E-01-0.302E-01
DMP:  13    -0.695905418696E+02   -0.95789E-02   -0.51116E-02  3360   0.161E-01-0.870E-02
DMP:  14    -0.695930025384E+02   -0.24607E-02   -0.37495E-02  3360   0.955E-02-0.468E-03
DMP:  15    -0.695945031152E+02   -0.15006E-02   -0.10333E-02  3360   0.330E-02-0.188E-02
DMP:  16    -0.695950719664E+02   -0.56885E-03   -0.40801E-03  3360   0.913E-03 0.280E-03
DMP:  17    -0.695952458089E+02   -0.17384E-03   -0.20779E-03  3360   0.575E-03-0.144E-03
DMP:  18    -0.695953626871E+02   -0.11688E-03   -0.56521E-04  3360   0.120E-03 0.568E-04
DMP:  19    -0.695953919706E+02   -0.29283E-04   -0.35232E-04  3360   0.877E-04 0.911E-06
DMP:  20    -0.695954118196E+02   -0.19849E-04   -0.11666E-04  3360   0.242E-04 0.131E-04
DMP:  21    -0.695954192982E+02   -0.74787E-05   -0.70703E-05  3360   0.141E-04 0.937E-05
   1 F= -.69595419E+02 E0= -.69595600E+02  d E =0.543266E-03
