 vasp.5.3.3 18Dez12 (build Nov 13 2015 09:58:40) complex                        
  
 executed on             LinuxIFC date 2017.10.18  13:04:00
 running on   48 total cores
 distrk:  each k-point on   16 cores,    3 groups
 distr:  one band on NCORES_PER_BAND=   1 cores,   16 groups


--------------------------------------------------------------------------------------------------------


 INCAR:
 POTCAR:    PAW_PBE Cu_pv 06Sep2000               
 POTCAR:    PAW_PBE Ge 05Jan2001                  
 POTCAR:    PAW_PBE S 17Jan2003                   

 ----------------------------------------------------------------------------- 
|                                                                             |
|           W    W    AA    RRRRR   N    N  II  N    N   GGGG   !!!           |
|           W    W   A  A   R    R  NN   N  II  NN   N  G    G  !!!           |
|           W    W  A    A  R    R  N N  N  II  N N  N  G       !!!           |
|           W WW W  AAAAAA  RRRRR   N  N N  II  N  N N  G  GGG   !            |
|           WW  WW  A    A  R   R   N   NN  II  N   NN  G    G                |
|           W    W  A    A  R    R  N    N  II  N    N   GGGG   !!!           |
|                                                                             |
|      For optimal performance we recommend that you set                      |
|        NPAR = 4 - approx SQRT( number of cores)                             |
|      (number of cores/NPAR must be integer)                                 |
|      This setting will greatly improve the performance of VASP for DFT.     |
|      The default NPAR=number of cores might be grossly inefficient          |
|      on modern multi-core architectures or massively parallel machines.     |
|      Do your own testing.                                                   |
|      Unfortunately you need to use the default for hybrid, GW and RPA       |
|      calculations.                                                          |
|                                                                             |
 ----------------------------------------------------------------------------- 


 ----------------------------------------------------------------------------- 
|                                                                             |
|           W    W    AA    RRRRR   N    N  II  N    N   GGGG   !!!           |
|           W    W   A  A   R    R  NN   N  II  NN   N  G    G  !!!           |
|           W    W  A    A  R    R  N N  N  II  N N  N  G       !!!           |
|           W WW W  AAAAAA  RRRRR   N  N N  II  N  N N  G  GGG   !            |
|           WW  WW  A    A  R   R   N   NN  II  N   NN  G    G                |
|           W    W  A    A  R    R  N    N  II  N    N   GGGG   !!!           |
|                                                                             |
|      You have enabled k-point parallelism (KPAR>1).                         |
|      This developmental code was originally  written by Paul Kent at ORNL,  |
|      and carefully double checked in Vienna.                                |
|      GW as well as linear response parallelism added by Martijn Marsman     |
|      and Georg Kresse.                                                      |
|      Carefully verify results versus KPAR=1.                                |
|      Report problems to Paul Kent and Vienna.                               |
|                                                                             |
 ----------------------------------------------------------------------------- 

 POTCAR:    PAW_PBE Cu_pv 06Sep2000               
   VRHFIN =Cu: d10 p1                                                           
   LEXCH  = PE                                                                  
   EATOM  =  4120.1201 eV,  302.8203 Ry                                         
                                                                                
   TITEL  = PAW_PBE Cu_pv 06Sep2000                                             
   LULTRA =        F    use ultrasoft PP ?                                      
   IUNSCR =        1    unscreen: 0-lin 1-nonlin 2-no                           
   RPACOR =    1.500    partial core radius                                     
   POMASS =   63.546; ZVAL   =   17.000    mass and valenz                      
   RCORE  =    2.000    outmost cutoff radius                                   
   RWIGS  =    2.000; RWIGS  =    1.058    wigner-seitz radius (au A)           
   ENMAX  =  368.648; ENMIN  =  276.486 eV                                      
   RCLOC  =    1.304    cutoff for local pot                                    
   LCOR   =        T    correct aug charges                                     
   LPAW   =        T    paw PP                                                  
   EAUG   =  758.233                                                            
   DEXC   =    0.000                                                            
   RMAX   =    2.046    core radius for proj-oper                               
   RAUG   =    1.300    factor for augmentation sphere                          
   RDEP   =    2.025    radius for radial grids                                 
   RDEPT  =    1.558    core radius for aug-charge                              
                                                                                
   Atomic configuration                                                         
    8 entries                                                                   
     n  l   j            E        occ.                                          
     1  0  0.50     -8850.2467   2.0000                                         
     2  0  0.50     -1062.3498   2.0000                                         
     2  1  1.50      -916.8226   6.0000                                         
     3  0  0.50      -114.6929   2.0000                                         
     3  1  1.50       -72.1325   6.0000                                         
     3  2  2.50        -5.0394  10.0000                                         
     4  0  0.50        -4.6097   1.0000                                         
     4  3  2.50        -1.3606   0.0000                                         
   Description                                                                  
     l       E           TYP  RCUT    TYP  RCUT                                 
     1    -72.1324777     23  1.700                                             
     1     -1.3605826     23  1.700                                             
     2     -5.0393776     23  2.000                                             
     2     -6.3999602     23  2.000                                             
     0     -4.6097062     23  1.800                                             
     0     14.1620818     23  1.800                                             
  local pseudopotential read in
  partial core-charges read in
  partial kinetic energy density read in
  atomic valenz-charges read in
  non local Contribution for L=           1  read in
    real space projection operators read in
  non local Contribution for L=           1  read in
    real space projection operators read in
  non local Contribution for L=           2  read in
    real space projection operators read in
  non local Contribution for L=           2  read in
    real space projection operators read in
  non local Contribution for L=           0  read in
    real space projection operators read in
  non local Contribution for L=           0  read in
    real space projection operators read in
    PAW grid and wavefunctions read in
 
   number of l-projection  operators is LMAX  =           6
   number of lm-projection operators is LMMAX =          18
 
 POTCAR:    PAW_PBE Ge 05Jan2001                  
   VRHFIN =Ge: s2p2                                                             
   LEXCH  = PE                                                                  
   EATOM  =   104.9960 eV,    7.7170 Ry                                         
                                                                                
   TITEL  = PAW_PBE Ge 05Jan2001                                                
   LULTRA =        F    use ultrasoft PP ?                                      
   IUNSCR =        1    unscreen: 0-lin 1-nonlin 2-no                           
   RPACOR =    2.170    partial core radius                                     
   POMASS =   72.610; ZVAL   =    4.000    mass and valenz                      
   RCORE  =    2.300    outmost cutoff radius                                   
   RWIGS  =    2.300; RWIGS  =    1.217    wigner-seitz radius (au A)           
   ENMAX  =  173.807; ENMIN  =  130.355 eV                                      
   ICORE  =        3    local potential                                         
   LCOR   =        T    correct aug charges                                     
   LPAW   =        T    paw PP                                                  
   EAUG   =  385.843                                                            
   DEXC   =    0.000                                                            
   RMAX   =    2.342    core radius for proj-oper                               
   RAUG   =    1.300    factor for augmentation sphere                          
   RDEP   =    2.318    radius for radial grids                                 
   RDEPT  =    2.103    core radius for aug-charge                              
                                                                                
   Atomic configuration                                                         
   10 entries                                                                   
     n  l   j            E        occ.                                          
     1  0  0.50    -10959.8463   2.0000                                         
     2  0  0.50     -1371.6056   2.0000                                         
     2  1  1.50     -1198.4791   6.0000                                         
     3  0  0.50      -168.4733   2.0000                                         
     3  1  1.50      -115.6019   6.0000                                         
     3  2  2.50       -29.3106  10.0000                                         
     4  0  0.50       -11.7309   2.0000                                         
     4  1  0.50        -3.8952   2.0000                                         
     4  2  1.50        -4.0817   0.0000                                         
     4  3  2.50        -4.0817   0.0000                                         
   Description                                                                  
     l       E           TYP  RCUT    TYP  RCUT                                 
     0    -11.7309493     23  2.300                                             
     0     -7.4578696     23  2.300                                             
     1     -3.8952261     23  2.300                                             
     1      6.1178114     23  2.300                                             
     2     -4.0817478     23  2.300                                             
     3     -1.3605826      7  2.300                                             
  local pseudopotential read in
  partial core-charges read in
  partial kinetic energy density read in
  atomic valenz-charges read in
  non local Contribution for L=           0  read in
    real space projection operators read in
  non local Contribution for L=           0  read in
    real space projection operators read in
  non local Contribution for L=           1  read in
    real space projection operators read in
  non local Contribution for L=           1  read in
    real space projection operators read in
  non local Contribution for L=           2  read in
    real space projection operators read in
    PAW grid and wavefunctions read in
 
   number of l-projection  operators is LMAX  =           5
   number of lm-projection operators is LMMAX =          13
 
 POTCAR:    PAW_PBE S 17Jan2003                   
   VRHFIN =S : s2p4                                                             
   LEXCH  = PE                                                                  
   EATOM  =   276.8230 eV,   20.3459 Ry                                         
                                                                                
   TITEL  = PAW_PBE S 17Jan2003                                                 
   LULTRA =        F    use ultrasoft PP ?                                      
   IUNSCR =        1    unscreen: 0-lin 1-nonlin 2-no                           
   RPACOR =    1.500    partial core radius                                     
   POMASS =   32.066; ZVAL   =    6.000    mass and valenz                      
   RCORE  =    1.900    outmost cutoff radius                                   
   RWIGS  =    2.200; RWIGS  =    1.164    wigner-seitz radius (au A)           
   ENMAX  =  280.000; ENMIN  =  194.016 eV                                      
   ICORE  =        2    local potential                                         
   LCOR   =        T    correct aug charges                                     
   LPAW   =        T    paw PP                                                  
   EAUG   =  335.092                                                            
   DEXC   =     .000                                                            
   RMAX   =    2.867    core radius for proj-oper                               
   RAUG   =    1.300    factor for augmentation sphere                          
   RDEP   =    1.954    radius for radial grids                                 
   QCUT   =   -4.360; QGAM   =    8.721    optimization parameters              
                                                                                
   Description                                                                  
     l     E      TYP  RCUT    TYP  RCUT                                        
     0   .000     23  1.900                                                     
     0   .000     23  1.900                                                     
     1   .000     23  1.900                                                     
     1   .000     23  1.900                                                     
     2   .000     23  1.900                                                     
  local pseudopotential read in
  partial core-charges read in
  atomic valenz-charges read in
  non local Contribution for L=           0  read in
    real space projection operators read in
  non local Contribution for L=           0  read in
    real space projection operators read in
  non local Contribution for L=           1  read in
    real space projection operators read in
  non local Contribution for L=           1  read in
    real space projection operators read in
    PAW grid and wavefunctions read in
 
   number of l-projection  operators is LMAX  =           4
   number of lm-projection operators is LMMAX =           8
 
  PAW_PBE Cu_pv 06Sep2000               :
 energy of atom  1       EATOM=-4120.1201
 kinetic energy error for atom=    0.0996 (will be added to EATOM!!)
  PAW_PBE Ge 05Jan2001                  :
 energy of atom  2       EATOM= -104.9960
 kinetic energy error for atom=    0.0003 (will be added to EATOM!!)
  PAW_PBE S 17Jan2003                   :
 energy of atom  3       EATOM= -276.8230
 kinetic energy error for atom=    0.0046 (will be added to EATOM!!)
 
 
 POSCAR: Cu Ge S                                 
  positions in direct lattice
  No initial velocities read in
 exchange correlation table for  LEXCH =        8
   RHO(1)=    0.500       N(1)  =     2000
   RHO(2)=  100.500       N(2)  =     4000
 


--------------------------------------------------------------------------------------------------------


 ion  position               nearest neighbor table
   1  0.618  0.121  0.120-   9 2.29  11 2.29  12 2.30   8 2.35
   2  0.121  0.618  0.620-  12 2.29   7 2.29   9 2.30  10 2.35
   3  0.963  0.790  0.120-   7 2.30  11 2.30  12 2.30   8 2.36
   4  0.790  0.963  0.619-   7 2.30   9 2.30  11 2.31  10 2.36
   5  0.440  0.267  0.599-   7 2.19   9 2.19  10 2.31   8 2.33
   6  0.267  0.440  0.099-  11 2.19  12 2.19   8 2.31  10 2.33
   7  0.079  0.912  0.497-   5 2.19   2 2.29   4 2.30   3 2.30
   8  0.571  0.412  0.980-   6 2.31   5 2.33   1 2.35   3 2.36
   9  0.737  0.250  0.495-   5 2.19   1 2.29   4 2.30   2 2.30
  10  0.412  0.571  0.480-   5 2.31   6 2.33   2 2.35   4 2.36
  11  0.912  0.079  0.997-   6 2.19   1 2.29   3 2.30   4 2.31
  12  0.250  0.737  0.995-   6 2.19   2 2.29   3 2.30   1 2.30
 
  Warning from LATTYP: Got some problem with cell dimensions!
  Tried to take original basis but could not verify dimensions!
  LATTYP: Found a base centered monoclinic cell.
 ALAT       =     6.4499010947
 B/A-ratio  =     1.7500516418
 C/A-ratio  =     1.9305142024
 COS(beta)  =    -0.4326083233
  
  Lattice vectors:
  
 A1 = (   3.2247960000,   5.6438300000,   0.0315720000)
 A2 = (   3.2247960000,  -5.6438300000,   0.0315720000)
 A3 = ( -10.7972380000,   0.0000000000,  -6.2018250000)


Analysis of symmetry for initial positions (statically):
=====================================================================
 Subroutine PRICEL returns:
 Original cell was already a primitive cell.
 

 Routine SETGRP: Setting up the symmetry group for a 
 base centered monoclinic supercell.


 Subroutine GETGRP returns: Found  1 space group operations
 (whereof  1 operations were pure point group operations)
 out of a pool of  4 trial point group operations.


The static configuration has the point symmetry C_1 .


Analysis of symmetry for dynamics (positions and initial velocities):
=====================================================================
 Subroutine PRICEL returns:
 Original cell was already a primitive cell.
 

 Routine SETGRP: Setting up the symmetry group for a 
 base centered monoclinic supercell.


 Subroutine GETGRP returns: Found  1 space group operations
 (whereof  1 operations were pure point group operations)
 out of a pool of  4 trial point group operations.


The dynamic configuration has the point symmetry C_1 .


 irot  :   1
 --------------------------------------------------------------------
 isymop:   1   0   0
           0   1   0
           0   0   1

 gtrans:     0.0000000     0.0000000     0.0000000

 ptrans:     0.0000000     0.0000000     0.0000000
 rotmap:
 (   1->   1)  (   2->   2)  (   3->   3)  (   4->   4)  (   5->   5) 
 (   6->   6)  (   7->   7)  (   8->   8)  (   9->   9)  (  10->  10) 
 (  11->  11)  (  12->  12) 
 
 
 KPOINTS: pymatgen 4.7.6+ generated KPOINTS with g

Automatic generation of k-mesh.
Space group operators:
 irot       det(A)        alpha          n_x          n_y          n_z        tau_x        tau_y        tau_z
    1     1.000000     0.000000     1.000000     0.000000     0.000000     0.000000     0.000000     0.000000
 
 Subroutine IBZKPT returns following result:
 ===========================================
 
 Found     42 irreducible k-points:
 
 Following reciprocal coordinates:
            Coordinates               Weight
  0.000000  0.000000  0.000000      1.000000
  0.250000  0.000000  0.000000      2.000000
  0.500000  0.000000  0.000000      1.000000
  0.000000  0.250000  0.000000      2.000000
  0.250000  0.250000  0.000000      2.000000
  0.500000  0.250000 -0.000000      2.000000
 -0.250000  0.250000  0.000000      2.000000
  0.000000  0.500000  0.000000      1.000000
  0.250000  0.500000 -0.000000      2.000000
  0.500000  0.500000  0.000000      1.000000
 -0.000000 -0.000000  0.200000      2.000000
  0.250000  0.000000  0.200000      2.000000
  0.500000  0.000000  0.200000      2.000000
 -0.250000 -0.000000  0.200000      2.000000
  0.000000  0.250000  0.200000      2.000000
  0.250000  0.250000  0.200000      2.000000
  0.500000  0.250000  0.200000      2.000000
 -0.250000  0.250000  0.200000      2.000000
  0.000000  0.500000  0.200000      2.000000
  0.250000  0.500000  0.200000      2.000000
  0.500000  0.500000  0.200000      2.000000
 -0.250000  0.500000  0.200000      2.000000
 -0.000000 -0.250000  0.200000      2.000000
  0.250000 -0.250000  0.200000      2.000000
  0.500000 -0.250000  0.200000      2.000000
 -0.250000 -0.250000  0.200000      2.000000
 -0.000000 -0.000000  0.400000      2.000000
  0.250000  0.000000  0.400000      2.000000
  0.500000  0.000000  0.400000      2.000000
 -0.250000  0.000000  0.400000      2.000000
  0.000000  0.250000  0.400000      2.000000
  0.250000  0.250000  0.400000      2.000000
  0.500000  0.250000  0.400000      2.000000
 -0.250000  0.250000  0.400000      2.000000
  0.000000  0.500000  0.400000      2.000000
  0.250000  0.500000  0.400000      2.000000
  0.500000  0.500000  0.400000      2.000000
 -0.250000  0.500000  0.400000      2.000000
  0.000000 -0.250000  0.400000      2.000000
  0.250000 -0.250000  0.400000      2.000000
  0.500000 -0.250000  0.400000      2.000000
 -0.250000 -0.250000  0.400000      2.000000
 
 Following cartesian coordinates:
            Coordinates               Weight
  0.000000  0.000000  0.000000      1.000000
  0.038631 -0.022148  0.013365      2.000000
  0.077263 -0.044296  0.026730      1.000000
  0.038631  0.022148  0.013365      2.000000
  0.077263  0.000000  0.026730      2.000000
  0.115894 -0.022148  0.040096      2.000000
  0.000000  0.044296  0.000000      2.000000
  0.077263  0.044296  0.026730      1.000000
  0.115894  0.022148  0.040096      2.000000
  0.154525  0.000000  0.053461      1.000000
 -0.000321  0.000000  0.032808      2.000000
  0.038310 -0.022148  0.046173      2.000000
  0.076941 -0.044296  0.059538      2.000000
 -0.038952  0.022148  0.019443      2.000000
  0.038310  0.022148  0.046173      2.000000
  0.076941  0.000000  0.059538      2.000000
  0.115573 -0.022148  0.072903      2.000000
 -0.000321  0.044296  0.032808      2.000000
  0.076941  0.044296  0.059538      2.000000
  0.115573  0.022148  0.072903      2.000000
  0.154204  0.000000  0.086269      2.000000
  0.038310  0.066444  0.046173      2.000000
 -0.038952 -0.022148  0.019443      2.000000
 -0.000321 -0.044296  0.032808      2.000000
  0.038310 -0.066444  0.046173      2.000000
 -0.077584  0.000000  0.006077      2.000000
 -0.000642  0.000000  0.065616      2.000000
  0.037989 -0.022148  0.078981      2.000000
  0.076620 -0.044296  0.092346      2.000000
 -0.039274  0.022148  0.052250      2.000000
  0.037989  0.022148  0.078981      2.000000
  0.076620  0.000000  0.092346      2.000000
  0.115251 -0.022148  0.105711      2.000000
 -0.000642  0.044296  0.065616      2.000000
  0.076620  0.044296  0.092346      2.000000
  0.115251  0.022148  0.105711      2.000000
  0.153883  0.000000  0.119076      2.000000
  0.037989  0.066444  0.078981      2.000000
 -0.039274 -0.022148  0.052250      2.000000
 -0.000642 -0.044296  0.065616      2.000000
  0.037989 -0.066444  0.078981      2.000000
 -0.077905  0.000000  0.038885      2.000000
 
 
 Subroutine IBZKPT_HF returns following result:
 ==============================================
 
 Found     80 k-points in 1st BZ
 the following     80 k-points will be used (e.g. in the exchange kernel)
 Following reciprocal coordinates:   # in IRBZ
  0.000000  0.000000  0.000000       1 t-inv F
  0.250000  0.000000  0.000000       2 t-inv F
  0.500000  0.000000  0.000000       3 t-inv F
  0.000000  0.250000  0.000000       4 t-inv F
  0.250000  0.250000  0.000000       5 t-inv F
  0.500000  0.250000 -0.000000       6 t-inv F
 -0.250000  0.250000  0.000000       7 t-inv F
  0.000000  0.500000  0.000000       8 t-inv F
  0.250000  0.500000 -0.000000       9 t-inv F
  0.500000  0.500000  0.000000      10 t-inv F
 -0.000000 -0.000000  0.200000      11 t-inv F
  0.250000  0.000000  0.200000      12 t-inv F
  0.500000  0.000000  0.200000      13 t-inv F
 -0.250000 -0.000000  0.200000      14 t-inv F
  0.000000  0.250000  0.200000      15 t-inv F
  0.250000  0.250000  0.200000      16 t-inv F
  0.500000  0.250000  0.200000      17 t-inv F
 -0.250000  0.250000  0.200000      18 t-inv F
  0.000000  0.500000  0.200000      19 t-inv F
  0.250000  0.500000  0.200000      20 t-inv F
  0.500000  0.500000  0.200000      21 t-inv F
 -0.250000  0.500000  0.200000      22 t-inv F
 -0.000000 -0.250000  0.200000      23 t-inv F
  0.250000 -0.250000  0.200000      24 t-inv F
  0.500000 -0.250000  0.200000      25 t-inv F
 -0.250000 -0.250000  0.200000      26 t-inv F
 -0.000000 -0.000000  0.400000      27 t-inv F
  0.250000  0.000000  0.400000      28 t-inv F
  0.500000  0.000000  0.400000      29 t-inv F
 -0.250000  0.000000  0.400000      30 t-inv F
  0.000000  0.250000  0.400000      31 t-inv F
  0.250000  0.250000  0.400000      32 t-inv F
  0.500000  0.250000  0.400000      33 t-inv F
 -0.250000  0.250000  0.400000      34 t-inv F
  0.000000  0.500000  0.400000      35 t-inv F
  0.250000  0.500000  0.400000      36 t-inv F
  0.500000  0.500000  0.400000      37 t-inv F
 -0.250000  0.500000  0.400000      38 t-inv F
  0.000000 -0.250000  0.400000      39 t-inv F
  0.250000 -0.250000  0.400000      40 t-inv F
  0.500000 -0.250000  0.400000      41 t-inv F
 -0.250000 -0.250000  0.400000      42 t-inv F
 -0.250000 -0.000000 -0.000000       2 t-inv T
 -0.000000 -0.250000 -0.000000       4 t-inv T
 -0.250000 -0.250000  0.000000       5 t-inv T
 -0.500000 -0.250000  0.000000       6 t-inv T
  0.250000 -0.250000  0.000000       7 t-inv T
 -0.250000 -0.500000  0.000000       9 t-inv T
  0.000000  0.000000 -0.200000      11 t-inv T
 -0.250000 -0.000000 -0.200000      12 t-inv T
 -0.500000 -0.000000 -0.200000      13 t-inv T
  0.250000  0.000000 -0.200000      14 t-inv T
 -0.000000 -0.250000 -0.200000      15 t-inv T
 -0.250000 -0.250000 -0.200000      16 t-inv T
 -0.500000 -0.250000 -0.200000      17 t-inv T
  0.250000 -0.250000 -0.200000      18 t-inv T
 -0.000000 -0.500000 -0.200000      19 t-inv T
 -0.250000 -0.500000 -0.200000      20 t-inv T
 -0.500000 -0.500000 -0.200000      21 t-inv T
  0.250000 -0.500000 -0.200000      22 t-inv T
  0.000000  0.250000 -0.200000      23 t-inv T
 -0.250000  0.250000 -0.200000      24 t-inv T
 -0.500000  0.250000 -0.200000      25 t-inv T
  0.250000  0.250000 -0.200000      26 t-inv T
  0.000000  0.000000 -0.400000      27 t-inv T
 -0.250000 -0.000000 -0.400000      28 t-inv T
 -0.500000 -0.000000 -0.400000      29 t-inv T
  0.250000 -0.000000 -0.400000      30 t-inv T
 -0.000000 -0.250000 -0.400000      31 t-inv T
 -0.250000 -0.250000 -0.400000      32 t-inv T
 -0.500000 -0.250000 -0.400000      33 t-inv T
  0.250000 -0.250000 -0.400000      34 t-inv T
 -0.000000 -0.500000 -0.400000      35 t-inv T
 -0.250000 -0.500000 -0.400000      36 t-inv T
 -0.500000 -0.500000 -0.400000      37 t-inv T
  0.250000 -0.500000 -0.400000      38 t-inv T
 -0.000000  0.250000 -0.400000      39 t-inv T
 -0.250000  0.250000 -0.400000      40 t-inv T
 -0.500000  0.250000 -0.400000      41 t-inv T
  0.250000  0.250000 -0.400000      42 t-inv T


--------------------------------------------------------------------------------------------------------




 Dimension of arrays:
   k-points           NKPTS =     42   k-points in BZ     NKDIM =     80   number of bands    NBANDS=     80
   number of dos      NEDOS =    301   number of ions     NIONS =     12
   non local maximal  LDIM  =      6   non local SUM 2l+1 LMDIM =     18
   total plane-waves  NPLWV =  32768
   max r-space proj   IRMAX =      1   max aug-charges    IRDMAX=   8224
   dimension x,y,z NGX =    32 NGY =   32 NGZ =   32
   dimension x,y,z NGXF=    64 NGYF=   64 NGZF=   64
   support grid    NGXF=    64 NGYF=   64 NGZF=   64
   ions per type =               4   2   6
 NGX,Y,Z   is equivalent  to a cutoff of   8.18,  8.18,  8.27 a.u.
 NGXF,Y,Z  is equivalent  to a cutoff of  16.37, 16.37, 16.55 a.u.


 I would recommend the setting:
   dimension x,y,z NGX =    32 NGY =   32 NGZ =   31
 SYSTEM =  CGS                                     
 POSCAR =  Cu Ge S                                 

 Startparameter for this run:
   NWRITE =      2    write-flag & timer
   PREC   = normal    normal or accurate (medium, high low for compatibility)
   ISTART =      1    job   : 0-new  1-cont  2-samecut
   ICHARG =      0    charge: 1-file 2-atom 10-const
   ISPIN  =      1    spin polarized calculation?
   LNONCOLLINEAR =      F non collinear calculations
   LSORBIT =      F    spin-orbit coupling
   INIWAV =      1    electr: 0-lowe 1-rand  2-diag
   LASPH  =      F    aspherical Exc in radial PAW
   METAGGA=      F    non-selfconsistent MetaGGA calc.

 Electronic Relaxation 1
   ENCUT  =  400.0 eV  29.40 Ry    5.42 a.u.  10.60 10.60 10.48*2*pi/ulx,y,z
   ENINI  =  400.0     initial cutoff
   ENAUG  =  758.2 eV  augmentation charge cutoff
   NELM   =     60;   NELMIN=  2; NELMDL=  0     # of ELM steps 
   EDIFF  = 0.1E-04   stopping-criterion for ELM
   LREAL  =      F    real-space projection
   NLSPLINE    = F    spline interpolate recip. space projectors
   LCOMPAT=      F    compatible to vasp.4.4
   GGA_COMPAT  = T    GGA compatible to vasp.4.4-vasp.4.6
   LMAXPAW     = -100 max onsite density
   LMAXMIX     =    2 max onsite mixed and CHGCAR
   VOSKOWN=      0    Vosko Wilk Nusair interpolation
   ROPT   =    0.00000   0.00000   0.00000
 Ionic relaxation
   EDIFFG = 0.1E-03   stopping-criterion for IOM
   NSW    =      0    number of steps for IOM
   NBLOCK =      1;   KBLOCK =      1    inner block; outer block 
   IBRION =     -1    ionic relax: 0-MD 1-quasi-New 2-CG
   NFREE  =      0    steps in history (QN), initial steepest desc. (CG)
   ISIF   =      0    stress and relaxation
   IWAVPR =     10    prediction:  0-non 1-charg 2-wave 3-comb
   ISYM   =      3    0-nonsym 1-usesym 2-fastsym
   LCORR  =      T    Harris-Foulkes like correction to forces

   POTIM  = 0.5000    time-step for ionic-motion
   TEIN   =    0.0    initial temperature
   TEBEG  =    0.0;   TEEND  =   0.0 temperature during run
   SMASS  =  -3.00    Nose mass-parameter (am)
   estimated Nose-frequenzy (Omega)   =  0.10E-29 period in steps =****** mass=  -0.966E-27a.u.
   SCALEE = 1.0000    scale energy and forces
   NPACO  =    256;   APACO  = 16.0  distance and # of slots for P.C.
   PSTRESS=    0.0 pullay stress

  Mass of Ions in am
   POMASS =  63.55 72.61 32.07
  Ionic Valenz
   ZVAL   =  17.00  4.00  6.00
  Atomic Wigner-Seitz radii
   RWIGS  =  -1.00 -1.00 -1.00
  virtual crystal weights 
   VCA    =   1.00  1.00  1.00
   NELECT =     112.0000    total number of electrons
   NUPDOWN=      -1.0000    fix difference up-down

 DOS related values:
   EMIN   =  10.00;   EMAX   =-10.00  energy-range for DOS
   EFERMI =   0.00
   ISMEAR =     1;   SIGMA  =   0.10  broadening in eV -4-tet -1-fermi 0-gaus

 Electronic relaxation 2 (details)
   IALGO  =     53    algorithm
   LDIAG  =      T    sub-space diagonalisation (order eigenvalues)
   LSUBROT=      T    optimize rotation matrix (better conditioning)
   TURBO    =      0    0=normal 1=particle mesh
   IRESTART =      0    0=no restart 2=restart with 2 vectors
   NREBOOT  =      0    no. of reboots
   NMIN     =      0    reboot dimension
   EREF     =   0.00    reference energy to select bands
   IMIX   =      4    mixing-type and parameters
     AMIX     =   0.40;   BMIX     =  1.00
     AMIX_MAG =   1.60;   BMIX_MAG =  1.00
     AMIN     =   0.10
     WC   =   100.;   INIMIX=   1;  MIXPRE=   1;  MAXMIX= -45

 Intra band minimization:
   WEIMIN = 0.0000     energy-eigenvalue tresh-hold
   EBREAK =  0.31E-07  absolut break condition
   DEPER  =   0.30     relativ break condition  

   TIME   =   0.40     timestep for ELM

  volume/ion in A,a.u.               =      18.49       124.79
  Fermi-wavevector in a.u.,A,eV,Ry     =   1.303450  2.463163 23.116052  1.698982
  Thomas-Fermi vector in A             =   2.434451
 
 Write flags
   LWAVE  =      T    write WAVECAR
   LCHARG =      T    write CHGCAR
   LVTOT  =      F    write LOCPOT, total local potential
   LVHAR  =      F    write LOCPOT, Hartree potential only
   LELF   =      F    write electronic localiz. function (ELF)
   LORBIT =      0    0 simple, 1 ext, 2 COOP (PROOUT)


 Dipole corrections
   LMONO  =      F    monopole corrections only (constant potential shift)
   LDIPOL =      F    correct potential (dipole corrections)
   IDIPOL =      0    1-x, 2-y, 3-z, 4-all directions 
   EPSILON=  1.0000000 bulk dielectric constant

 Exchange correlation treatment:
   GGA     =    PE    GGA type
   LEXCH   =     8    internal setting for exchange type
   VOSKOWN=      0    Vosko Wilk Nusair interpolation
   EXXOEP  =     0    0=HF, 1=EXX-LHF (local Hartree Fock) 2=EXX OEP
   LHFCALC =     T    Hartree Fock is set to
   LSYMGRAD=     F    symmetrize gradient (conserves proper symmetry)
   PRECFOCK=fast      Normal, Fast or Accurate (Low or Medium for compatibility)
   LRHFCALC=     F    long range Hartree Fock
   LRSCOR  =     F    long range correlation only (use DFT for short range part)
   LTHOMAS =     F    Thomas Fermi screening in HF
   LMODELHF=     F    short range full HF, long range fraction AEXX
   ENCUT4O =  -1.0   cutoff for four orbital integrals eV
   LMAXFOCK=     4    L truncation for augmentation on plane wave grid
   LMAXFOCKAE=  -1    L truncation for all-electron charge restoration on plane wave grid
   NMAXFOCKAE=   1    number of basis functions for all-electron charge restoration
   LFOCKAEDFT=     F  apply the AE augmentation even for DFT
   NKREDX  =     1    reduce k-point grid by
   NKREDY  =     1    reduce k-point grid by
   NKREDZ  =     1    reduce k-point grid by
   SHIFTRED=     F    shift reduced grid of Gamma
   HFKIDENT=     F    idential grid for each k-point
   ODDONLY =     F    use only odd q-grid points
   EVENONLY=     F    use only even q-grid points
   HFALPHA =   -1.0000 decay constant for conv. correction
   MCALPHA =    0.0000 extent of test-charge in conv. correction in multipole expansion
   AEXX    =    0.2500 exact exchange contribution
   HFSCREEN=    0.2000 screening length (either q_TF or 0.3 A-1)
   HFSCREENC=   0.2000 screening length for correlation (either q_TF or 0.3 A-1)
   HFRCUT  =    0.0000 spherical cutoff for potential kernel
   ALDAX   =    0.7500 LDA exchange part
   AGGAX   =    0.7500 GGA exchange part
   ALDAC   =    1.0000 LDA correlation
   AGGAC   =    1.0000 GGA correlation
   NBANDSGWLOW=     1    first orbital included in HF term
 Linear response parameters
   LEPSILON=     F    determine dielectric tensor
   LRPA    =     F    only Hartree local field effects (RPA)
   LNABLA  =     F    use nabla operator in PAW spheres
   LVEL    =     F    velocity operator in full k-point grid
   LINTERFAST=   F  fast interpolation
   KINTER  =     0    interpolate to denser k-point grid
   CSHIFT  =0.1000    complex shift for real part using Kramers Kronig
   OMEGAMAX=  -1.0    maximum frequency
   DEG_THRESHOLD= 0.2000000E-02 threshold for treating states as degnerate
   RTIME   =    0.100 relaxation time in fs

 Orbital magnetization related:
   ORBITALMAG=     F  switch on orbital magnetization
   LCHIMAG   =     F  perturbation theory with respect to B field
   DQ        =  0.001000  dq finite difference perturbation B field



--------------------------------------------------------------------------------------------------------


 Static calculation
 charge density and potential will be updated during run
 non-spin polarized calculation
 Conjugate gradient for all bands, subspace preconditioning
 perform sub-space diagonalisation
    before iterative eigenvector-optimisation
 modified Broyden-mixing scheme, WC =      100.0
 initial mixing is a Kerker type mixing with AMIX =  0.4000 and BMIX =      1.0000
 Hartree-type preconditioning will be used
 using additional bands           24
 reciprocal scheme for non local part
 use partial core corrections
 no Harris-corrections to forces 
 use gradient corrections 
 use of overlap-Matrix (Vanderbilt PP)
 Methfessel and Paxton  Order N= 1 SIGMA  =   0.10


--------------------------------------------------------------------------------------------------------


  energy-cutoff  :      400.00
  volume of cell :      221.90
      direct lattice vectors                 reciprocal lattice vectors
     3.224796000 -5.643830000  0.031572000     0.154525165 -0.088592321  0.053460880
     3.224796000  5.643830000  0.031572000     0.154525165  0.088592321  0.053460880
    -2.101946000  0.000000000  6.075537000    -0.001606004  0.000000000  0.164038877

  length of vectors
     6.500240234  6.500240234  6.428866683     0.185969598  0.185969598  0.164046738


 
 old parameters found on file WAVECAR:
  energy-cutoff  :      400.00
  volume of cell :      222.35
      direct lattice vectors                 reciprocal lattice vectors
     3.227235519 -5.642745207  0.030241751     0.154430495 -0.088609353  0.053450002
     3.227235519  5.642745207  0.030241751     0.154430495  0.088609353  0.053450002
    -2.106135241  0.000000000  6.085154262    -0.001534965  0.000000000  0.163803104

  length of vectors

 
 k-points in units of 2pi/SCALE and weight: pymatgen 4.7.6+ generated KPOINTS with g
   0.00000000  0.00000000  0.00000000       0.013
   0.03863129 -0.02214808  0.01336522       0.025
   0.07726258 -0.04429616  0.02673044       0.013
   0.03863129  0.02214808  0.01336522       0.025
   0.07726258  0.00000000  0.02673044       0.025
   0.11589387 -0.02214808  0.04009566       0.025
   0.00000000  0.04429616  0.00000000       0.025
   0.07726258  0.04429616  0.02673044       0.013
   0.11589387  0.02214808  0.04009566       0.025
   0.15452516  0.00000000  0.05346088       0.013
  -0.00032120  0.00000000  0.03280778       0.025
   0.03831009 -0.02214808  0.04617300       0.025
   0.07694138 -0.04429616  0.05953822       0.025
  -0.03895249  0.02214808  0.01944256       0.025
   0.03831009  0.02214808  0.04617300       0.025
   0.07694138  0.00000000  0.05953822       0.025
   0.11557267 -0.02214808  0.07290344       0.025
  -0.00032120  0.04429616  0.03280778       0.025
   0.07694138  0.04429616  0.05953822       0.025
   0.11557267  0.02214808  0.07290344       0.025
   0.15420396  0.00000000  0.08626865       0.025
   0.03831009  0.06644424  0.04617300       0.025
  -0.03895249 -0.02214808  0.01944256       0.025
  -0.00032120 -0.04429616  0.03280778       0.025
   0.03831009 -0.06644424  0.04617300       0.025
  -0.07758378  0.00000000  0.00607734       0.025
  -0.00064240  0.00000000  0.06561555       0.025
   0.03798889 -0.02214808  0.07898077       0.025
   0.07662018 -0.04429616  0.09234599       0.025
  -0.03927369  0.02214808  0.05225033       0.025
   0.03798889  0.02214808  0.07898077       0.025
   0.07662018  0.00000000  0.09234599       0.025
   0.11525147 -0.02214808  0.10571121       0.025
  -0.00064240  0.04429616  0.06561555       0.025
   0.07662018  0.04429616  0.09234599       0.025
   0.11525147  0.02214808  0.10571121       0.025
   0.15388276  0.00000000  0.11907643       0.025
   0.03798889  0.06644424  0.07898077       0.025
  -0.03927369 -0.02214808  0.05225033       0.025
  -0.00064240 -0.04429616  0.06561555       0.025
   0.03798889 -0.06644424  0.07898077       0.025
  -0.07790498  0.00000000  0.03888511       0.025
 
 k-points in reciprocal lattice and weights: pymatgen 4.7.6+ generated KPOINTS with g
   0.00000000  0.00000000  0.00000000       0.013
   0.25000000  0.00000000  0.00000000       0.025
   0.50000000  0.00000000  0.00000000       0.013
   0.00000000  0.25000000  0.00000000       0.025
   0.25000000  0.25000000  0.00000000       0.025
   0.50000000  0.25000000 -0.00000000       0.025
  -0.25000000  0.25000000  0.00000000       0.025
   0.00000000  0.50000000  0.00000000       0.013
   0.25000000  0.50000000 -0.00000000       0.025
   0.50000000  0.50000000  0.00000000       0.013
  -0.00000000 -0.00000000  0.20000000       0.025
   0.25000000  0.00000000  0.20000000       0.025
   0.50000000  0.00000000  0.20000000       0.025
  -0.25000000 -0.00000000  0.20000000       0.025
   0.00000000  0.25000000  0.20000000       0.025
   0.25000000  0.25000000  0.20000000       0.025
   0.50000000  0.25000000  0.20000000       0.025
  -0.25000000  0.25000000  0.20000000       0.025
   0.00000000  0.50000000  0.20000000       0.025
   0.25000000  0.50000000  0.20000000       0.025
   0.50000000  0.50000000  0.20000000       0.025
  -0.25000000  0.50000000  0.20000000       0.025
  -0.00000000 -0.25000000  0.20000000       0.025
   0.25000000 -0.25000000  0.20000000       0.025
   0.50000000 -0.25000000  0.20000000       0.025
  -0.25000000 -0.25000000  0.20000000       0.025
  -0.00000000 -0.00000000  0.40000000       0.025
   0.25000000  0.00000000  0.40000000       0.025
   0.50000000  0.00000000  0.40000000       0.025
  -0.25000000  0.00000000  0.40000000       0.025
   0.00000000  0.25000000  0.40000000       0.025
   0.25000000  0.25000000  0.40000000       0.025
   0.50000000  0.25000000  0.40000000       0.025
  -0.25000000  0.25000000  0.40000000       0.025
   0.00000000  0.50000000  0.40000000       0.025
   0.25000000  0.50000000  0.40000000       0.025
   0.50000000  0.50000000  0.40000000       0.025
  -0.25000000  0.50000000  0.40000000       0.025
   0.00000000 -0.25000000  0.40000000       0.025
   0.25000000 -0.25000000  0.40000000       0.025
   0.50000000 -0.25000000  0.40000000       0.025
  -0.25000000 -0.25000000  0.40000000       0.025
 
 position of ions in fractional coordinates (direct lattice) 
   0.61844300  0.12117100  0.11953300
   0.12117100  0.61844300  0.61953300
   0.96295700  0.79032200  0.12036848
   0.79032200  0.96295700  0.61881300
   0.43973200  0.26728100  0.59904700
   0.26728100  0.43973200  0.09904700
   0.07949800  0.91167500  0.49736300
   0.57140300  0.41236400  0.98018400
   0.73711100  0.25006200  0.49504900
   0.41236400  0.57140300  0.48018400
   0.91167500  0.07949800  0.99736300
   0.25006200  0.73711100  0.99504900
 
 position of ions in cartesian coordinates  (Angst):
   2.13385236 -2.80651863  0.74957826
   1.08287936  2.80651863  3.78734676
   5.40095905 -0.97432259  0.78665770
   4.35325560  0.97432259  3.81497580
   1.02080825 -0.97328413  3.66185403
   2.07178125  0.97328413  0.62408553
   2.15090056  4.69666552  3.05304062
   1.11215405 -0.89758908  5.98620365
   2.14286528 -2.74882176  3.03885554
   2.16312705  0.89758908  2.94843515
   1.09992756 -4.69666552  6.09080912
   1.09189228  2.74882176  6.07662404
 


--------------------------------------------------------------------------------------------------------


 k-point  1 :   0.0000 0.0000 0.0000  plane waves:    4051
 k-point  2 :   0.2500 0.0000 0.0000  plane waves:    4032
 k-point  3 :   0.5000 0.0000 0.0000  plane waves:    4030
 k-point  4 :   0.0000 0.2500 0.0000  plane waves:    4032
 k-point  5 :   0.2500 0.2500 0.0000  plane waves:    4038
 k-point  6 :   0.5000 0.2500-0.0000  plane waves:    4037
 k-point  7 :  -0.2500 0.2500 0.0000  plane waves:    4042
 k-point  8 :   0.0000 0.5000 0.0000  plane waves:    4030
 k-point  9 :   0.2500 0.5000-0.0000  plane waves:    4037
 k-point 10 :   0.5000 0.5000 0.0000  plane waves:    4026
 k-point 11 :  -0.0000-0.0000 0.2000  plane waves:    4046
 k-point 12 :   0.2500 0.0000 0.2000  plane waves:    4034
 k-point 13 :   0.5000 0.0000 0.2000  plane waves:    4025
 k-point 14 :  -0.2500-0.0000 0.2000  plane waves:    4044
 k-point 15 :   0.0000 0.2500 0.2000  plane waves:    4034
 k-point 16 :   0.2500 0.2500 0.2000  plane waves:    4017
 k-point 17 :   0.5000 0.2500 0.2000  plane waves:    4039
 k-point 18 :  -0.2500 0.2500 0.2000  plane waves:    4042
 k-point 19 :   0.0000 0.5000 0.2000  plane waves:    4025
 k-point 20 :   0.2500 0.5000 0.2000  plane waves:    4039
 k-point 21 :   0.5000 0.5000 0.2000  plane waves:    4030
 k-point 22 :  -0.2500 0.5000 0.2000  plane waves:    4030
 k-point 23 :  -0.0000-0.2500 0.2000  plane waves:    4044
 k-point 24 :   0.2500-0.2500 0.2000  plane waves:    4042
 k-point 25 :   0.5000-0.2500 0.2000  plane waves:    4030
 k-point 26 :  -0.2500-0.2500 0.2000  plane waves:    4020
 k-point 27 :  -0.0000-0.0000 0.4000  plane waves:    4027
 k-point 28 :   0.2500 0.0000 0.4000  plane waves:    4034
 k-point 29 :   0.5000 0.0000 0.4000  plane waves:    4013
 k-point 30 :  -0.2500 0.0000 0.4000  plane waves:    4042
 k-point 31 :   0.0000 0.2500 0.4000  plane waves:    4034
 k-point 32 :   0.2500 0.2500 0.4000  plane waves:    4009
 k-point 33 :   0.5000 0.2500 0.4000  plane waves:    4026
 k-point 34 :  -0.2500 0.2500 0.4000  plane waves:    4027
 k-point 35 :   0.0000 0.5000 0.4000  plane waves:    4013
 k-point 36 :   0.2500 0.5000 0.4000  plane waves:    4026
 k-point 37 :   0.5000 0.5000 0.4000  plane waves:    4037
 k-point 38 :  -0.2500 0.5000 0.4000  plane waves:    4022
 k-point 39 :   0.0000-0.2500 0.4000  plane waves:    4042
 k-point 40 :   0.2500-0.2500 0.4000  plane waves:    4027
 k-point 41 :   0.5000-0.2500 0.4000  plane waves:    4022
 k-point 42 :  -0.2500-0.2500 0.4000  plane waves:    4015

 maximum and minimum number of plane-waves per node :      4051     4009

 maximum number of plane-waves:      4051
 maximum index in each direction: 
   IXMAX=   10   IYMAX=   10   IZMAX=   10
   IXMIN=  -11   IYMIN=  -11   IZMIN=  -10

 WARNING: aliasing errors must be expected set NGX to  44 to avoid them
 WARNING: aliasing errors must be expected set NGY to  44 to avoid them
 WARNING: aliasing errors must be expected set NGZ to  42 to avoid them
 aliasing errors are usually negligible using standard VASP settings
 and one can safely disregard these warnings

 serial   3D FFT for wavefunctions
 parallel 3D FFT for charge:
    minimum data exchange during FFTs selected (reduces bandwidth)


 FFT grid for exact exchange (Hartree Fock) 
  NGX = 24; NGY = 24; NGZ = 24

 
 Radii for the augmentation spheres in the non-local exchange
 for species   1 augmentation radius   1.120 (default was   0.830)
       energy cutoff for augmentation   1600.0
 for species   2 augmentation radius   1.570 (default was   1.163)
       energy cutoff for augmentation   1600.0
 for species   3 augmentation radius   1.034 (default was   0.970)
       energy cutoff for augmentation   1600.0

 total amount of memory used by VASP on root node   151697. kBytes
========================================================================

   base      :      30000. kBytes
   nonl-proj :      74517. kBytes
   fftplans  :        702. kBytes
   grid      :       2400. kBytes
   one-center:        186. kBytes
   HF        :        194. kBytes
   nonlr-proj:       1122. kBytes
   wavefun   :      42576. kBytes
 
 Broyden mixing: mesh for mixing (old mesh)
   NGX = 21   NGY = 21   NGZ = 21
  (NGX  = 64   NGY  = 64   NGZ  = 64)
  gives a total of   9261 points

 charge density for first step will be calculated from the start-wavefunctions


--------------------------------------------------------------------------------------------------------


 Maximum index for augmentation-charges          485 (set IRDMAX)


--------------------------------------------------------------------------------------------------------


 initial charge from wavefunction
 First call to EWALD:  gamma=   0.293
 Maximum number of real-space cells 3x 3x 3
 Maximum number of reciprocal cells 3x 3x 3

 FEWALD executed in parallel
    FEWALD:  cpu time    0.00: real time    0.00


----------------------------------------- Iteration    1(   1)  ---------------------------------------


    POTLOK:  cpu time    0.05: real time    0.05
    SETDIJ:  cpu time    2.04: real time    2.04
 
    SUBROT:  cpu time    0.94: real time    0.94
    SUBROT:  cpu time    0.39: real time    0.40
    SUBROT:  cpu time    0.39: real time    0.40
    --------------------------------------------
    SUBRT+:  cpu time    1.73: real time    1.75

 Broyden mixing:
  rms(total) = 0.31390E-01    rms(broyden)= 0.31374E-01
  rms(prec ) = 0.47280E-01
  weight for this iteration     100.00

 eigenvalues of (default mixing * dielectric matrix)
  average eigenvalue GAMMA=   1.7385
  1.0306  2.4465
 
    TRIAL :  cpu time  246.77: real time  246.98
    CORREC:  cpu time    0.00: real time    0.00
    CHARGE:  cpu time    0.05: real time    0.06
    --------------------------------------------
      LOOP:  cpu time  248.93: real time  249.15

 eigenvalue-minimisations  :     0
 total energy-change (2. order) : 0.7571891E+02  (-0.2136114E+03)
 number of electron     112.0001363 magnetization 
 augmentation part       38.9147858 magnetization 

 Free energy of the ion-electron system (eV)
  ---------------------------------------------------
  alpha Z        PSCENC =       339.31929130
  Ewald energy   TEWEN  =     -9064.66361233
  -1/2 Hartree   DENC   =     -8066.95705098
  -exchange  EXHF       =       327.43936732
  -V(xc)+E(xc)   XCENC  =       369.89338022
  PAW double counting   =     16958.25468668   -17450.99284292
  entropy T*S    EENTRO =        -0.00144936
  eigenvalues    EBANDS =     -1657.55799540
  atomic energy  EATOM  =     18320.98302006
  ---------------------------------------------------
  free energy    TOTEN  =        75.71890724 eV

  energy without entropy =       75.72035660  energy(sigma->0) =       75.71939036


--------------------------------------------------------------------------------------------------------




----------------------------------------- Iteration    1(   2)  ---------------------------------------


    POTLOK:  cpu time    0.05: real time    0.05
    SETDIJ:  cpu time    2.05: real time    2.05
 
    SUBROT:  cpu time    1.49: real time    1.50
    SUBROT:  cpu time    0.41: real time    0.41
    SUBROT:  cpu time    0.44: real time    0.44
    SUBROT:  cpu time    0.40: real time    0.40
    --------------------------------------------
    SUBRT+:  cpu time    2.75: real time    2.75

 Broyden mixing:
  rms(total) = 0.28375E-01    rms(broyden)= 0.28365E-01
  rms(prec ) = 0.51585E-01
  weight for this iteration     100.00

 eigenvalues of (default mixing * dielectric matrix)
  average eigenvalue GAMMA=   1.5316
  2.5366  1.2105  0.8477
 
    TRIAL :  cpu time  256.74: real time  256.91
    CORREC:  cpu time    0.00: real time    0.00
    CHARGE:  cpu time    0.07: real time    0.07
    --------------------------------------------
      LOOP:  cpu time  258.91: real time  259.10

 eigenvalue-minimisations  :     0
 total energy-change (2. order) :-0.8398271E+02  (-0.1470879E+03)
 number of electron     112.0001274 magnetization 
 augmentation part       35.4514312 magnetization 

 Free energy of the ion-electron system (eV)
  ---------------------------------------------------
  alpha Z        PSCENC =       339.31929130
  Ewald energy   TEWEN  =     -9064.66361233
  -1/2 Hartree   DENC   =     -8371.33690394
  -exchange  EXHF       =       338.97434507
  -V(xc)+E(xc)   XCENC  =       377.34261379
  PAW double counting   =     17433.73104230   -17973.00874005
  entropy T*S    EENTRO =        -0.00059574
  eigenvalues    EBANDS =     -1409.60341177
  atomic energy  EATOM  =     18320.98302006
  ---------------------------------------------------
  free energy    TOTEN  =        -8.26380491 eV

  energy without entropy =       -8.26320918  energy(sigma->0) =       -8.26360633


--------------------------------------------------------------------------------------------------------




----------------------------------------- Iteration    1(   3)  ---------------------------------------


    POTLOK:  cpu time    0.06: real time    0.06
    SETDIJ:  cpu time    2.00: real time    2.00
 
    SUBROT:  cpu time    0.87: real time    0.87
    SUBROT:  cpu time    0.38: real time    0.39
    SUBROT:  cpu time    0.41: real time    0.41
    SUBROT:  cpu time    0.40: real time    0.40
    --------------------------------------------
    SUBRT+:  cpu time    2.06: real time    2.09

 Broyden mixing:
  rms(total) = 0.28108E-01    rms(broyden)= 0.28097E-01
  rms(prec ) = 0.52414E-01
  weight for this iteration     100.00

 eigenvalues of (default mixing * dielectric matrix)
  average eigenvalue GAMMA=   1.7749
  1.0114  2.4990  1.8142
 
    TRIAL :  cpu time  255.95: real time  256.15
    CORREC:  cpu time    0.00: real time    0.00
    CHARGE:  cpu time    0.06: real time    0.06
    --------------------------------------------
      LOOP:  cpu time  258.07: real time  258.27

 eigenvalue-minimisations  :     0
 total energy-change (2. order) :-0.6841328E+01  (-0.2053032E+03)
 number of electron     112.0001390 magnetization 
 augmentation part       39.6859069 magnetization 

 Free energy of the ion-electron system (eV)
  ---------------------------------------------------
  alpha Z        PSCENC =       339.31929130
  Ewald energy   TEWEN  =     -9064.66361233
  -1/2 Hartree   DENC   =     -7476.98298213
  -exchange  EXHF       =       324.97478117
  -V(xc)+E(xc)   XCENC  =       357.37939023
  PAW double counting   =     15153.15374156   -15582.57533354
  entropy T*S    EENTRO =         0.00026482
  eigenvalues    EBANDS =     -2386.69283365
  atomic energy  EATOM  =     18320.98302006
  ---------------------------------------------------
  free energy    TOTEN  =       -15.10513306 eV

  energy without entropy =      -15.10539787  energy(sigma->0) =      -15.10522133


--------------------------------------------------------------------------------------------------------




----------------------------------------- Iteration    1(   4)  ---------------------------------------


    POTLOK:  cpu time    0.12: real time    0.12
    SETDIJ:  cpu time    2.07: real time    2.07
 
    SUBROT:  cpu time    0.84: real time    0.84
    SUBROT:  cpu time    0.42: real time    0.42
    SUBROT:  cpu time    0.39: real time    0.39
    SUBROT:  cpu time    0.40: real time    0.40
    SUBROT:  cpu time    0.42: real time    0.42
    --------------------------------------------
    SUBRT+:  cpu time    2.47: real time    2.47

 Broyden mixing:
  rms(total) = 0.12233E+00    rms(broyden)= 0.12216E+00
  rms(prec ) = 0.21561E+00
  weight for this iteration     100.00

 eigenvalues of (default mixing * dielectric matrix)
  average eigenvalue GAMMA=   1.2684
  2.6425  1.4050  0.6576  0.3686
 
    TRIAL :  cpu time  259.44: real time  259.35
    CORREC:  cpu time    0.00: real time    0.00
    CHARGE:  cpu time    0.07: real time    0.07
    --------------------------------------------
      LOOP:  cpu time  261.70: real time  261.62

 eigenvalue-minimisations  :     0
 total energy-change (2. order) :-0.7503252E+01  (-0.1075661E+03)
 number of electron     112.0001317 magnetization 
 augmentation part       37.2381640 magnetization 

 Free energy of the ion-electron system (eV)
  ---------------------------------------------------
  alpha Z        PSCENC =       339.31929130
  Ewald energy   TEWEN  =     -9064.66361233
  -1/2 Hartree   DENC   =     -8543.46646834
  -exchange  EXHF       =       342.99684653
  -V(xc)+E(xc)   XCENC  =       381.66064384
  PAW double counting   =     17633.73390361   -18214.52197998
  entropy T*S    EENTRO =         0.00036345
  eigenvalues    EBANDS =     -1218.65029505
  atomic energy  EATOM  =     18320.98302006
  ---------------------------------------------------
  free energy    TOTEN  =       -22.60838555 eV

  energy without entropy =      -22.60874899  energy(sigma->0) =      -22.60850670


--------------------------------------------------------------------------------------------------------




----------------------------------------- Iteration    1(   5)  ---------------------------------------


    POTLOK:  cpu time    0.07: real time    0.07
    SETDIJ:  cpu time    2.08: real time    2.08
 
    SUBROT:  cpu time    0.85: real time    0.85
    SUBROT:  cpu time    0.41: real time    0.41
    SUBROT:  cpu time    0.41: real time    0.41
    SUBROT:  cpu time    0.39: real time    0.39
    --------------------------------------------
    SUBRT+:  cpu time    2.07: real time    2.08

 Broyden mixing:
  rms(total) = 0.40609E-01    rms(broyden)= 0.40600E-01
  rms(prec ) = 0.84339E-01
  weight for this iteration     100.00

 eigenvalues of (default mixing * dielectric matrix)
  average eigenvalue GAMMA=   1.6953
  2.4610  0.9347  1.6902
 
    TRIAL :  cpu time  263.49: real time  263.29
    CORREC:  cpu time    0.00: real time    0.00
    CHARGE:  cpu time    0.05: real time    0.05
    --------------------------------------------
      LOOP:  cpu time  265.69: real time  265.50

 eigenvalue-minimisations  :     0
 total energy-change (2. order) :-0.3818065E+02  (-0.1513094E+02)
 number of electron     112.0001317 magnetization 
 augmentation part       37.2533893 magnetization 

 Free energy of the ion-electron system (eV)
  ---------------------------------------------------
  alpha Z        PSCENC =       339.31929130
  Ewald energy   TEWEN  =     -9064.66361233
  -1/2 Hartree   DENC   =     -8006.44142381
  -exchange  EXHF       =       336.34986121
  -V(xc)+E(xc)   XCENC  =       368.36195862
  PAW double counting   =     15867.42110100   -16336.76738275
  entropy T*S    EENTRO =         0.00062062
  eigenvalues    EBANDS =     -1885.35221148
  atomic energy  EATOM  =     18320.98302006
  ---------------------------------------------------
  free energy    TOTEN  =       -60.78903473 eV

  energy without entropy =      -60.78965535  energy(sigma->0) =      -60.78924161


--------------------------------------------------------------------------------------------------------




----------------------------------------- Iteration    1(   6)  ---------------------------------------


    POTLOK:  cpu time    0.07: real time    0.07
    SETDIJ:  cpu time    2.08: real time    2.08
 
    SUBROT:  cpu time    0.82: real time    0.82
    SUBROT:  cpu time    0.41: real time    0.41
    SUBROT:  cpu time    0.41: real time    0.41
    SUBROT:  cpu time    0.43: real time    0.43
    --------------------------------------------
    SUBRT+:  cpu time    2.08: real time    2.08

 Broyden mixing:
  rms(total) = 0.27268E-02    rms(broyden)= 0.27263E-02
  rms(prec ) = 0.45139E-02
  weight for this iteration     100.00

 eigenvalues of (default mixing * dielectric matrix)
  average eigenvalue GAMMA=   1.8325
  1.0207  2.5234  1.9534
 
    TRIAL :  cpu time  259.53: real time  259.33
    CORREC:  cpu time    0.00: real time    0.00
    CHARGE:  cpu time    0.05: real time    0.05
    --------------------------------------------
      LOOP:  cpu time  261.75: real time  261.55

 eigenvalue-minimisations  :     0
 total energy-change (2. order) :-0.5171241E+01  (-0.8072501E+01)
 number of electron     112.0001344 magnetization 
 augmentation part       38.2241817 magnetization 

 Free energy of the ion-electron system (eV)
  ---------------------------------------------------
  alpha Z        PSCENC =       339.31929130
  Ewald energy   TEWEN  =     -9064.66361233
  -1/2 Hartree   DENC   =     -8003.37817591
  -exchange  EXHF       =       337.17730403
  -V(xc)+E(xc)   XCENC  =       368.82662407
  PAW double counting   =     15775.23151977   -16244.53514814
  entropy T*S    EENTRO =         0.00062807
  eigenvalues    EBANDS =     -1894.92171962
  atomic energy  EATOM  =     18320.98302006
  ---------------------------------------------------
  free energy    TOTEN  =       -65.96027616 eV

  energy without entropy =      -65.96090423  energy(sigma->0) =      -65.96048551


--------------------------------------------------------------------------------------------------------




----------------------------------------- Iteration    1(   7)  ---------------------------------------


    POTLOK:  cpu time    0.05: real time    0.05
    SETDIJ:  cpu time    2.05: real time    2.05
 
    SUBROT:  cpu time    2.36: real time    2.36
    SUBROT:  cpu time    1.15: real time    1.15
    SUBROT:  cpu time    1.17: real time    1.17
    SUBROT:  cpu time    1.16: real time    1.16
    --------------------------------------------
    SUBRT+:  cpu time    5.84: real time    5.86

 Broyden mixing:
  rms(total) = 0.12961E-01    rms(broyden)= 0.12957E-01
  rms(prec ) = 0.22966E-01
  weight for this iteration     100.00

 eigenvalues of (default mixing * dielectric matrix)
  average eigenvalue GAMMA=   1.6444
  2.5042  0.8950  1.5342
 
    TRIAL :  cpu time  266.54: real time  266.42
    CORREC:  cpu time    0.00: real time    0.00
    CHARGE:  cpu time    0.07: real time    0.07
    --------------------------------------------
      LOOP:  cpu time  268.72: real time  268.60

 eigenvalue-minimisations  :     0
 total energy-change (2. order) :-0.1529318E+01  (-0.4101583E+01)
 number of electron     112.0001329 magnetization 
 augmentation part       37.7051957 magnetization 

 Free energy of the ion-electron system (eV)
  ---------------------------------------------------
  alpha Z        PSCENC =       339.31929130
  Ewald energy   TEWEN  =     -9064.66361233
  -1/2 Hartree   DENC   =     -8242.76274849
  -exchange  EXHF       =       341.60805473
  -V(xc)+E(xc)   XCENC  =       374.53925712
  PAW double counting   =     16205.87475594   -16709.07107082
  entropy T*S    EENTRO =         0.00041391
  eigenvalues    EBANDS =     -1633.31716939
  atomic energy  EATOM  =     18320.98302006
  ---------------------------------------------------
  free energy    TOTEN  =       -67.48959382 eV

  energy without entropy =      -67.49000773  energy(sigma->0) =      -67.48973179


--------------------------------------------------------------------------------------------------------




----------------------------------------- Iteration    1(   8)  ---------------------------------------


    POTLOK:  cpu time    0.09: real time    0.09
    SETDIJ:  cpu time    2.00: real time    2.00
 
    SUBROT:  cpu time    2.09: real time    2.08
    SUBROT:  cpu time    1.02: real time    1.02
    SUBROT:  cpu time    1.02: real time    1.02
    SUBROT:  cpu time    1.03: real time    1.03
    --------------------------------------------
    SUBRT+:  cpu time    5.16: real time    5.16

 Broyden mixing:
  rms(total) = 0.82620E-02    rms(broyden)= 0.82596E-02
  rms(prec ) = 0.13896E-01
  weight for this iteration     100.00

 eigenvalues of (default mixing * dielectric matrix)
  average eigenvalue GAMMA=   1.6801
  2.4553  0.9474  1.6376
 
    TRIAL :  cpu time  251.23: real time  251.01
    CORREC:  cpu time    0.00: real time    0.00
    CHARGE:  cpu time    0.10: real time    0.10
    --------------------------------------------
      LOOP:  cpu time  253.42: real time  253.21

 eigenvalue-minimisations  :     0
 total energy-change (2. order) :-0.1595313E+01  (-0.7724392E+00)
 number of electron     112.0001329 magnetization 
 augmentation part       37.7261626 magnetization 

 Free energy of the ion-electron system (eV)
  ---------------------------------------------------
  alpha Z        PSCENC =       339.31929130
  Ewald energy   TEWEN  =     -9064.66361233
  -1/2 Hartree   DENC   =     -8116.76731387
  -exchange  EXHF       =       339.52203252
  -V(xc)+E(xc)   XCENC  =       371.38055128
  PAW double counting   =     15916.24873503   -16397.57191807
  entropy T*S    EENTRO =         0.00070876
  eigenvalues    EBANDS =     -1777.53610709
  atomic energy  EATOM  =     18320.98302006
  ---------------------------------------------------
  free energy    TOTEN  =       -69.08490725 eV

  energy without entropy =      -69.08561601  energy(sigma->0) =      -69.08514350


--------------------------------------------------------------------------------------------------------




----------------------------------------- Iteration    1(   9)  ---------------------------------------


    POTLOK:  cpu time    0.10: real time    0.10
    SETDIJ:  cpu time    2.06: real time    2.06
 
    SUBROT:  cpu time    0.88: real time    0.88
    SUBROT:  cpu time    0.43: real time    0.43
    SUBROT:  cpu time    0.41: real time    0.41
    SUBROT:  cpu time    0.42: real time    0.42
    --------------------------------------------
    SUBRT+:  cpu time    2.14: real time    2.14

 Broyden mixing:
  rms(total) = 0.49588E-03    rms(broyden)= 0.49528E-03
  rms(prec ) = 0.77464E-03
  weight for this iteration     100.00

 eigenvalues of (default mixing * dielectric matrix)
  average eigenvalue GAMMA=   1.7117
  2.5297  1.0025  1.6028
 
    TRIAL :  cpu time  250.85: real time  250.64
    CORREC:  cpu time    0.00: real time    0.00
    CHARGE:  cpu time    0.06: real time    0.06
    --------------------------------------------
      LOOP:  cpu time  253.07: real time  252.86

 eigenvalue-minimisations  :     0
 total energy-change (2. order) :-0.3118507E+00  (-0.3813905E+00)
 number of electron     112.0001334 magnetization 
 augmentation part       37.9051352 magnetization 

 Free energy of the ion-electron system (eV)
  ---------------------------------------------------
  alpha Z        PSCENC =       339.31929130
  Ewald energy   TEWEN  =     -9064.66361233
  -1/2 Hartree   DENC   =     -8124.83043531
  -exchange  EXHF       =       339.60350739
  -V(xc)+E(xc)   XCENC  =       371.45503580
  PAW double counting   =     15913.32697881   -16394.63251739
  entropy T*S    EENTRO =         0.00083871
  eigenvalues    EBANDS =     -1769.95873507
  atomic energy  EATOM  =     18320.98302006
  ---------------------------------------------------
  free energy    TOTEN  =       -69.39675797 eV

  energy without entropy =      -69.39759668  energy(sigma->0) =      -69.39703754


--------------------------------------------------------------------------------------------------------




----------------------------------------- Iteration    1(  10)  ---------------------------------------


    POTLOK:  cpu time    0.10: real time    0.10
    SETDIJ:  cpu time    2.05: real time    2.05
 
    SUBROT:  cpu time    0.85: real time    0.85
    SUBROT:  cpu time    0.42: real time    0.42
    SUBROT:  cpu time    0.42: real time    0.42
    SUBROT:  cpu time    0.42: real time    0.42
    --------------------------------------------
    SUBRT+:  cpu time    2.11: real time    2.12

 Broyden mixing:
  rms(total) = 0.22642E-02    rms(broyden)= 0.22637E-02
  rms(prec ) = 0.38124E-02
  weight for this iteration     100.00

 eigenvalues of (default mixing * dielectric matrix)
  average eigenvalue GAMMA=   1.6865
  2.4750  0.9888  1.5956
 
    TRIAL :  cpu time  251.61: real time  251.40
    CORREC:  cpu time    0.00: real time    0.00
    CHARGE:  cpu time    0.07: real time    0.07
    --------------------------------------------
      LOOP:  cpu time  253.84: real time  253.63

 eigenvalue-minimisations  :     0
 total energy-change (2. order) :-0.1025648E+00  (-0.1516933E+00)
 number of electron     112.0001332 magnetization 
 augmentation part       37.8182324 magnetization 

 Free energy of the ion-electron system (eV)
  ---------------------------------------------------
  alpha Z        PSCENC =       339.31929130
  Ewald energy   TEWEN  =     -9064.66361233
  -1/2 Hartree   DENC   =     -8171.61367980
  -exchange  EXHF       =       340.39631157
  -V(xc)+E(xc)   XCENC  =       372.53820601
  PAW double counting   =     15993.88444909   -16481.84361000
  entropy T*S    EENTRO =         0.00068499
  eigenvalues    EBANDS =     -1718.50053743
  atomic energy  EATOM  =     18320.98302006
  ---------------------------------------------------
  free energy    TOTEN  =       -69.49932282 eV

  energy without entropy =      -69.50000781  energy(sigma->0) =      -69.49955115


--------------------------------------------------------------------------------------------------------




----------------------------------------- Iteration    1(  11)  ---------------------------------------


    POTLOK:  cpu time    0.05: real time    0.05
    SETDIJ:  cpu time    2.05: real time    2.04
 
    SUBROT:  cpu time    1.83: real time    1.83
    SUBROT:  cpu time    0.92: real time    0.92
    SUBROT:  cpu time    0.90: real time    0.90
    SUBROT:  cpu time    0.90: real time    0.90
    --------------------------------------------
    SUBRT+:  cpu time    4.56: real time    4.57

 Broyden mixing:
  rms(total) = 0.78143E-03    rms(broyden)= 0.78118E-03
  rms(prec ) = 0.15613E-02
  weight for this iteration     100.00

 eigenvalues of (default mixing * dielectric matrix)
  average eigenvalue GAMMA=   1.6763
  2.4937  0.9846  1.5505
 
    TRIAL :  cpu time  252.67: real time  252.46
    CORREC:  cpu time    0.00: real time    0.00
    CHARGE:  cpu time    0.09: real time    0.09
    --------------------------------------------
      LOOP:  cpu time  254.86: real time  254.66

 eigenvalue-minimisations  :     0
 total energy-change (2. order) :-0.6923328E-01  (-0.3671388E-01)
 number of electron     112.0001331 magnetization 
 augmentation part       37.7860702 magnetization 

 Free energy of the ion-electron system (eV)
  ---------------------------------------------------
  alpha Z        PSCENC =       339.31929130
  Ewald energy   TEWEN  =     -9064.66361233
  -1/2 Hartree   DENC   =     -8150.31211858
  -exchange  EXHF       =       340.06849142
  -V(xc)+E(xc)   XCENC  =       372.06614201
  PAW double counting   =     15941.96985998   -16426.90103687
  entropy T*S    EENTRO =         0.00057936
  eigenvalues    EBANDS =     -1742.09927808
  atomic energy  EATOM  =     18320.98302006
  ---------------------------------------------------
  free energy    TOTEN  =       -69.56855610 eV

  energy without entropy =      -69.56913546  energy(sigma->0) =      -69.56874922


--------------------------------------------------------------------------------------------------------




----------------------------------------- Iteration    1(  12)  ---------------------------------------


    POTLOK:  cpu time    0.08: real time    0.08
    SETDIJ:  cpu time    2.05: real time    2.05
 
    SUBROT:  cpu time    0.92: real time    0.92
    SUBROT:  cpu time    0.42: real time    0.42
    SUBROT:  cpu time    0.42: real time    0.42
    SUBROT:  cpu time    0.41: real time    0.41
    --------------------------------------------
    SUBRT+:  cpu time    2.17: real time    2.19

 Broyden mixing:
  rms(total) = 0.20265E-03    rms(broyden)= 0.20256E-03
  rms(prec ) = 0.44271E-03
  weight for this iteration     100.00

 eigenvalues of (default mixing * dielectric matrix)
  average eigenvalue GAMMA=   1.6496
  2.5061  0.9995  1.4432
 
    TRIAL :  cpu time  250.77: real time  250.57
    CORREC:  cpu time    0.00: real time    0.00
    CHARGE:  cpu time    0.08: real time    0.08
    --------------------------------------------
      LOOP:  cpu time  252.98: real time  252.79

 eigenvalue-minimisations  :     0
 total energy-change (2. order) :-0.1240685E-01  (-0.2266152E-01)
 number of electron     112.0001332 magnetization 
 augmentation part       37.8260346 magnetization 

 Free energy of the ion-electron system (eV)
  ---------------------------------------------------
  alpha Z        PSCENC =       339.31929130
  Ewald energy   TEWEN  =     -9064.66361233
  -1/2 Hartree   DENC   =     -8142.10091471
  -exchange  EXHF       =       339.95505713
  -V(xc)+E(xc)   XCENC  =       371.89495676
  PAW double counting   =     15920.45084127   -16404.32107940
  entropy T*S    EENTRO =         0.00053185
  eigenvalues    EBANDS =     -1751.09910239
  atomic energy  EATOM  =     18320.98302006
  ---------------------------------------------------
  free energy    TOTEN  =       -69.58096294 eV

  energy without entropy =      -69.58149479  energy(sigma->0) =      -69.58114023


--------------------------------------------------------------------------------------------------------




----------------------------------------- Iteration    1(  13)  ---------------------------------------


    POTLOK:  cpu time    0.07: real time    0.07
    SETDIJ:  cpu time    2.04: real time    2.04
 
    SUBROT:  cpu time    0.90: real time    0.90
    SUBROT:  cpu time    0.43: real time    0.43
    SUBROT:  cpu time    0.43: real time    0.43
    SUBROT:  cpu time    0.43: real time    0.43
    --------------------------------------------
    SUBRT+:  cpu time    2.19: real time    2.20

 Broyden mixing:
  rms(total) = 0.55323E-03    rms(broyden)= 0.55312E-03
  rms(prec ) = 0.93851E-03
  weight for this iteration     100.00

 eigenvalues of (default mixing * dielectric matrix)
  average eigenvalue GAMMA=   1.6939
  2.4804  0.9961  1.6051
 
    TRIAL :  cpu time  251.73: real time  251.52
    CORREC:  cpu time    0.00: real time    0.00
    CHARGE:  cpu time    0.09: real time    0.09
    --------------------------------------------
      LOOP:  cpu time  253.93: real time  253.73

 eigenvalue-minimisations  :     0
 total energy-change (2. order) :-0.9578925E-02  (-0.5111582E-02)
 number of electron     112.0001332 magnetization 
 augmentation part       37.8298141 magnetization 

 Free energy of the ion-electron system (eV)
  ---------------------------------------------------
  alpha Z        PSCENC =       339.31929130
  Ewald energy   TEWEN  =     -9064.66361233
  -1/2 Hartree   DENC   =     -8151.90411212
  -exchange  EXHF       =       340.12600650
  -V(xc)+E(xc)   XCENC  =       372.12693013
  PAW double counting   =     15936.45583338   -16421.80684369
  entropy T*S    EENTRO =         0.00052045
  eigenvalues    EBANDS =     -1740.22758695
  atomic energy  EATOM  =     18320.98302006
  ---------------------------------------------------
  free energy    TOTEN  =       -69.59054187 eV

  energy without entropy =      -69.59106232  energy(sigma->0) =      -69.59071535


--------------------------------------------------------------------------------------------------------




----------------------------------------- Iteration    1(  14)  ---------------------------------------


    POTLOK:  cpu time    0.07: real time    0.07
    SETDIJ:  cpu time    2.06: real time    2.06
 
    SUBROT:  cpu time    0.89: real time    0.89
    SUBROT:  cpu time    0.42: real time    0.43
    SUBROT:  cpu time    0.43: real time    0.43
    SUBROT:  cpu time    0.43: real time    0.43
    --------------------------------------------
    SUBRT+:  cpu time    2.18: real time    2.19

 Broyden mixing:
  rms(total) = 0.68465E-04    rms(broyden)= 0.68451E-04
  rms(prec ) = 0.13915E-03
  weight for this iteration     100.00

 eigenvalues of (default mixing * dielectric matrix)
  average eigenvalue GAMMA=   1.6735
  2.5158  0.9911  1.5135
 
    TRIAL :  cpu time  258.72: real time  258.50
    CORREC:  cpu time    0.00: real time    0.00
    CHARGE:  cpu time    0.09: real time    0.09
    --------------------------------------------
      LOOP:  cpu time  260.93: real time  260.72

 eigenvalue-minimisations  :     0
 total energy-change (2. order) :-0.2460669E-02  (-0.3749543E-02)
 number of electron     112.0001332 magnetization 
 augmentation part       37.8124508 magnetization 

 Free energy of the ion-electron system (eV)
  ---------------------------------------------------
  alpha Z        PSCENC =       339.31929130
  Ewald energy   TEWEN  =     -9064.66361233
  -1/2 Hartree   DENC   =     -8152.40658622
  -exchange  EXHF       =       340.12373257
  -V(xc)+E(xc)   XCENC  =       372.13572677
  PAW double counting   =     15934.35353227   -16419.86314077
  entropy T*S    EENTRO =         0.00053657
  eigenvalues    EBANDS =     -1739.57548665
  atomic energy  EATOM  =     18320.98302006
  ---------------------------------------------------
  free energy    TOTEN  =       -69.59300254 eV

  energy without entropy =      -69.59353911  energy(sigma->0) =      -69.59318140


--------------------------------------------------------------------------------------------------------




----------------------------------------- Iteration    1(  15)  ---------------------------------------


    POTLOK:  cpu time    0.05: real time    0.05
    SETDIJ:  cpu time    2.06: real time    2.06
 
    SUBROT:  cpu time    1.45: real time    1.45
    SUBROT:  cpu time    0.70: real time    0.70
    SUBROT:  cpu time    0.71: real time    0.70
    SUBROT:  cpu time    0.70: real time    0.70
    --------------------------------------------
    SUBRT+:  cpu time    3.56: real time    3.56

 Broyden mixing:
  rms(total) = 0.19174E-03    rms(broyden)= 0.19168E-03
  rms(prec ) = 0.32714E-03
  weight for this iteration     100.00

 eigenvalues of (default mixing * dielectric matrix)
  average eigenvalue GAMMA=   1.6850
  2.4719  0.9892  1.5938
 
    TRIAL :  cpu time  252.10: real time  251.89
    CORREC:  cpu time    0.00: real time    0.00
    CHARGE:  cpu time    0.09: real time    0.09
    --------------------------------------------
      LOOP:  cpu time  254.31: real time  254.10

 eigenvalue-minimisations  :     0
 total energy-change (2. order) :-0.1500577E-02  (-0.1033324E-02)
 number of electron     112.0001332 magnetization 
 augmentation part       37.8167366 magnetization 

 Free energy of the ion-electron system (eV)
  ---------------------------------------------------
  alpha Z        PSCENC =       339.31929130
  Ewald energy   TEWEN  =     -9064.66361233
  -1/2 Hartree   DENC   =     -8147.74418770
  -exchange  EXHF       =       340.03550369
  -V(xc)+E(xc)   XCENC  =       372.02561629
  PAW double counting   =     15922.41446405   -16407.31921587
  entropy T*S    EENTRO =         0.00054842
  eigenvalues    EBANDS =     -1744.64591917
  atomic energy  EATOM  =     18320.98302006
  ---------------------------------------------------
  free energy    TOTEN  =       -69.59450312 eV

  energy without entropy =      -69.59505153  energy(sigma->0) =      -69.59468592


--------------------------------------------------------------------------------------------------------




----------------------------------------- Iteration    1(  16)  ---------------------------------------


    POTLOK:  cpu time    0.08: real time    0.08
    SETDIJ:  cpu time    2.05: real time    2.05
 
    SUBROT:  cpu time    1.16: real time    1.16
    SUBROT:  cpu time    0.42: real time    0.42
    SUBROT:  cpu time    0.43: real time    0.42
    SUBROT:  cpu time    0.42: real time    0.42
    --------------------------------------------
    SUBRT+:  cpu time    2.43: real time    2.45

 Broyden mixing:
  rms(total) = 0.83019E-04    rms(broyden)= 0.83001E-04
  rms(prec ) = 0.13871E-03
  weight for this iteration     100.00

 eigenvalues of (default mixing * dielectric matrix)
  average eigenvalue GAMMA=   1.6880
  2.4861  0.9897  1.5883
 
    TRIAL :  cpu time  249.76: real time  249.55
    CORREC:  cpu time    0.00: real time    0.00
    CHARGE:  cpu time    0.09: real time    0.09
    --------------------------------------------
      LOOP:  cpu time  251.98: real time  251.78

 eigenvalue-minimisations  :     0
 total energy-change (2. order) :-0.5688511E-03  (-0.4080140E-03)
 number of electron     112.0001332 magnetization 
 augmentation part       37.8215049 magnetization 

 Free energy of the ion-electron system (eV)
  ---------------------------------------------------
  alpha Z        PSCENC =       339.31929130
  Ewald energy   TEWEN  =     -9064.66361233
  -1/2 Hartree   DENC   =     -8148.85461117
  -exchange  EXHF       =       340.05392526
  -V(xc)+E(xc)   XCENC  =       372.05256671
  PAW double counting   =     15923.24997071   -16408.34125151
  entropy T*S    EENTRO =         0.00054919
  eigenvalues    EBANDS =     -1743.39491942
  atomic energy  EATOM  =     18320.98302006
  ---------------------------------------------------
  free energy    TOTEN  =       -69.59507197 eV

[...]
     22      -2.2895      2.00000
     23      -1.9495      2.00000
     24      -1.6189      2.00000
     25      -1.2180      2.00000
     26      -1.0070      2.00000
     27      -0.9743      2.00000
     28      -0.7119      2.00000
     29      -0.5501      2.00000
     30      -0.3918      2.00000
     31      -0.2881      2.00000
     32      -0.1976      2.00000
     33      -0.1788      2.00000
     34      -0.1397      2.00000
     35      -0.0216      2.00000
     36       0.0201      2.00000
     37       1.2960      2.00000
     38       1.3082      2.00000
     39       1.3699      2.00000
     40       1.4113      2.00000
     41       1.4510      2.00000
     42       1.4663      2.00000
     43       1.5059      2.00000
     44       1.5501      2.00000
     45       1.7647      2.00000
     46       1.8939      2.00000
     47       1.9825      2.00000
     48       2.1532      2.00000
     49       2.3737      2.00000
     50       2.5748      2.00000
     51       2.7032      2.00000
     52       2.9073      2.00000
     53       3.0145      2.00000
     54       3.2201      2.00000
     55       3.3994      2.00000
     56       3.6565      2.00000
     57       6.3797     -0.00000
     58       6.5180     -0.00000
     59       7.7175      0.00000
     60       7.9030      0.00000
     61       8.2960      0.00000
     62       8.5713      0.00000
     63       9.3281      0.00000
     64       9.8446      0.00000
     65      10.0220      0.00000
     66      10.3532      0.00000
     67      10.5848      0.00000
     68      10.7885      0.00000
     69      10.9751      0.00000
     70      11.2553      0.00000
     71      11.3040      0.00000
     72      11.7033      0.00000
     73      12.2529      0.00000
     74      12.4668      0.00000
     75      13.0953      0.00000
     76      13.4642      0.00000
     77      13.7957      0.00000
     78      14.6669      0.00000
     79      14.9949      0.00000
     80      15.7284      0.00000

 k-point  40 :       0.2500   -0.2500    0.4000
  band No.  band energies     occupation 
      1     -68.6460      2.00000
      2     -68.6443      2.00000
      3     -68.6339      2.00000
      4     -68.6329      2.00000
      5     -68.6138      2.00000
      6     -68.6123      2.00000
      7     -68.5966      2.00000
      8     -68.5950      2.00000
      9     -68.5797      2.00000
     10     -68.5779      2.00000
     11     -68.5611      2.00000
     12     -68.5582      2.00000
     13     -12.2203      2.00000
     14     -11.8187      2.00000
     15     -10.8231      2.00000
     16     -10.6704      2.00000
     17     -10.3500      2.00000
     18     -10.2769      2.00000
     19      -5.4461      2.00000
     20      -5.1167      2.00000
     21      -2.4291      2.00000
     22      -2.1552      2.00000
     23      -2.0172      2.00000
     24      -1.5249      2.00000
     25      -1.3542      2.00000
     26      -1.1652      2.00000
     27      -0.9373      2.00000
     28      -0.8132      2.00000
     29      -0.5851      2.00000
     30      -0.5368      2.00000
     31      -0.2784      2.00000
     32      -0.2366      2.00000
     33      -0.1348      2.00000
     34      -0.0879      2.00000
     35      -0.0261      2.00000
     36       0.0325      2.00000
     37       1.3127      2.00000
     38       1.3458      2.00000
     39       1.3637      2.00000
     40       1.3976      2.00000
     41       1.4519      2.00000
     42       1.4815      2.00000
     43       1.4988      2.00000
     44       1.5645      2.00000
     45       1.8021      2.00000
     46       1.8465      2.00000
     47       1.9603      2.00000
     48       2.1097      2.00000
     49       2.2951      2.00000
     50       2.5300      2.00000
     51       2.6389      2.00000
     52       2.7699      2.00000
     53       2.9289      2.00000
     54       3.1608      2.00000
     55       3.3021      2.00000
     56       3.5738      2.00000
     57       6.5633     -0.00000
     58       6.7186     -0.00000
     59       7.9646      0.00000
     60       8.0023      0.00000
     61       8.7306      0.00000
     62       9.0913      0.00000
     63       9.4599      0.00000
     64       9.8266      0.00000
     65      10.2987      0.00000
     66      10.3649      0.00000
     67      10.7772      0.00000
     68      10.8483      0.00000
     69      11.1164      0.00000
     70      11.2714      0.00000
     71      11.3685      0.00000
     72      11.6200      0.00000
     73      12.0484      0.00000
     74      12.2941      0.00000
     75      12.6516      0.00000
     76      13.1232      0.00000
     77      13.2866      0.00000
     78      14.2430      0.00000
     79      15.6317      0.00000
     80      15.8334      0.00000

 k-point  41 :       0.5000   -0.2500    0.4000
  band No.  band energies     occupation 
      1     -68.6459      2.00000
      2     -68.6442      2.00000
      3     -68.6336      2.00000
      4     -68.6328      2.00000
      5     -68.6137      2.00000
      6     -68.6124      2.00000
      7     -68.5964      2.00000
      8     -68.5949      2.00000
      9     -68.5797      2.00000
     10     -68.5779      2.00000
     11     -68.5610      2.00000
     12     -68.5581      2.00000
     13     -12.0799      2.00000
     14     -11.7761      2.00000
     15     -10.8462      2.00000
     16     -10.7600      2.00000
     17     -10.5333      2.00000
     18     -10.3151      2.00000
     19      -5.4187      2.00000
     20      -4.9404      2.00000
     21      -2.4002      2.00000
     22      -2.1321      2.00000
     23      -1.8619      2.00000
     24      -1.7224      2.00000
     25      -1.4470      2.00000
     26      -1.1226      2.00000
     27      -0.8809      2.00000
     28      -0.6459      2.00000
     29      -0.6062      2.00000
     30      -0.4484      2.00000
     31      -0.2627      2.00000
     32      -0.1809      2.00000
     33      -0.1190      2.00000
     34      -0.0541      2.00000
     35      -0.0218      2.00000
     36       0.0201      2.00000
     37       1.2615      2.00000
     38       1.3164      2.00000
     39       1.4106      2.00000
     40       1.4367      2.00000
     41       1.4839      2.00000
     42       1.4924      2.00000
     43       1.5151      2.00000
     44       1.5743      2.00000
     45       1.7616      2.00000
     46       1.8421      2.00000
     47       2.1177      2.00000
     48       2.1823      2.00000
     49       2.3657      2.00000
     50       2.4596      2.00000
     51       2.4928      2.00000
     52       2.6940      2.00000
     53       2.8240      2.00000
     54       3.0914      2.00000
     55       3.2903      2.00000
     56       3.5250      2.00000
     57       6.4959     -0.00000
     58       6.5854     -0.00000
     59       7.4541      0.00000
     60       7.7192      0.00000
     61       8.5894      0.00000
     62       8.7461      0.00000
     63       9.3004      0.00000
     64       9.5335      0.00000
     65       9.9512      0.00000
     66      10.1863      0.00000
     67      10.6795      0.00000
     68      11.1122      0.00000
     69      11.2491      0.00000
     70      11.5686      0.00000
     71      11.7073      0.00000
     72      11.8949      0.00000
     73      12.2994      0.00000
     74      12.6583      0.00000
     75      13.0096      0.00000
     76      13.2309      0.00000
     77      13.6626      0.00000
     78      14.0704      0.00000
     79      14.3906      0.00000
     80      16.5133      0.00000

 k-point  42 :      -0.2500   -0.2500    0.4000
  band No.  band energies     occupation 
      1     -68.6460      2.00000
      2     -68.6444      2.00000
      3     -68.6336      2.00000
      4     -68.6327      2.00000
      5     -68.6136      2.00000
      6     -68.6126      2.00000
      7     -68.5964      2.00000
      8     -68.5949      2.00000
      9     -68.5797      2.00000
     10     -68.5779      2.00000
     11     -68.5612      2.00000
     12     -68.5583      2.00000
     13     -12.1791      2.00000
     14     -11.7063      2.00000
     15     -10.7177      2.00000
     16     -10.6922      2.00000
     17     -10.5875      2.00000
     18     -10.3916      2.00000
     19      -5.4453      2.00000
     20      -5.0721      2.00000
     21      -2.5084      2.00000
     22      -2.3819      2.00000
     23      -1.9625      2.00000
     24      -1.3669      2.00000
     25      -1.3311      2.00000
     26      -1.0536      2.00000
     27      -0.8327      2.00000
     28      -0.7644      2.00000
     29      -0.4266      2.00000
     30      -0.3382      2.00000
     31      -0.2727      2.00000
     32      -0.2089      2.00000
     33      -0.1427      2.00000
     34      -0.1374      2.00000
     35      -0.0129      2.00000
     36       0.0266      2.00000
     37       1.1730      2.00000
     38       1.3711      2.00000
     39       1.3976      2.00000
     40       1.4530      2.00000
     41       1.4536      2.00000
     42       1.4990      2.00000
     43       1.5174      2.00000
     44       1.5496      2.00000
     45       1.7442      2.00000
     46       1.8215      2.00000
     47       1.9750      2.00000
     48       2.2267      2.00000
     49       2.3976      2.00000
     50       2.6120      2.00000
     51       2.6545      2.00000
     52       2.9168      2.00000
     53       3.0689      2.00000
     54       3.1167      2.00000
     55       3.2875      2.00000
     56       3.5836      2.00000
     57       6.2899     -0.00000
     58       6.3790     -0.00000
     59       7.3579      0.00000
     60       7.5238      0.00000
     61       8.3088      0.00000
     62       8.3343      0.00000
     63       9.1049      0.00000
     64       9.3600      0.00000
     65       9.7166      0.00000
     66       9.9490      0.00000
     67      10.5259      0.00000
     68      10.9872      0.00000
     69      11.4236      0.00000
     70      11.5664      0.00000
     71      12.0167      0.00000
     72      12.2837      0.00000
     73      12.4282      0.00000
     74      12.4797      0.00000
     75      13.0342      0.00000
     76      13.1498      0.00000
     77      14.1428      0.00000
     78      14.4357      0.00000
     79      15.1664      0.00000
     80      15.8722      0.00000


--------------------------------------------------------------------------------------------------------


 soft charge-density along one line, spin component           1
         0         1         2         3         4         5         6         7         8         9
 total charge-density along one line
 
 pseudopotential strength for first ion, spin component:           1
-65.423   0.002   0.006   7.363   0.000  -0.003   0.001   0.007
  0.002 -65.393  -0.005   0.000   7.352   0.001  -0.001  -0.024
  0.006  -0.005 -65.383  -0.003   0.001   7.349  -0.037  -0.001
  7.363   0.000  -0.003   6.111   0.000   0.001   0.002  -0.003
  0.000   7.352   0.001   0.000   6.113  -0.000   0.000   0.007
 -0.003   0.001   7.349   0.001  -0.000   6.114   0.009   0.000
  0.001  -0.001  -0.037   0.002   0.000   0.009  -2.979  -0.003
  0.007  -0.024  -0.001  -0.003   0.007   0.000  -0.003  -2.984
  0.022   0.042   0.009  -0.005  -0.008  -0.003  -0.003   0.008
 -0.001  -0.017   0.007   0.000   0.005  -0.003   0.004   0.007
  0.025   0.000  -0.034  -0.007  -0.000   0.007  -0.000   0.007
  0.001  -0.001  -0.036   0.002   0.000   0.008  -3.625  -0.003
  0.007  -0.023  -0.001  -0.003   0.007   0.000  -0.003  -3.630
  0.022   0.042   0.009  -0.005  -0.008  -0.002  -0.003   0.008
 -0.001  -0.017   0.007   0.000   0.004  -0.003   0.004   0.007
  0.025   0.000  -0.034  -0.007  -0.000   0.006  -0.000   0.007
  0.007  -0.005   0.004  -0.001   0.001  -0.001  -0.002   0.000
  0.015  -0.010   0.009  -0.002   0.001  -0.002  -0.003   0.001
 total augmentation occupancy for first ion, spin component:           1
  2.000  -0.000   0.000  -0.003  -0.000   0.000   0.007  -0.005   0.001  -0.001  -0.005  -0.007   0.005  -0.001   0.001   0.004
 -0.000   2.000  -0.000  -0.000  -0.003   0.000  -0.001   0.005   0.004   0.001   0.000   0.001  -0.005  -0.005  -0.001  -0.000
  0.000  -0.000   2.000   0.000   0.000  -0.003  -0.000  -0.000  -0.001  -0.005  -0.004   0.001   0.000   0.001   0.005   0.005
 -0.003  -0.000   0.000   0.095   0.006  -0.005  -0.334   0.233  -0.074   0.011   0.017   0.281  -0.197   0.058  -0.007  -0.011
 -0.000  -0.003   0.000   0.006   0.102   0.001   0.020  -0.048  -0.445   0.015   0.011  -0.013   0.037   0.377  -0.011  -0.009
  0.000   0.000  -0.003  -0.005   0.001   0.099   0.098  -0.003  -0.014   0.236   0.354  -0.077   0.001   0.011  -0.202  -0.297
  0.007  -0.001  -0.000  -0.334   0.020   0.098   4.008  -0.793   0.097   0.216   0.146  -1.736   0.744  -0.089  -0.182  -0.141
 -0.005   0.005  -0.000   0.233  -0.048  -0.003  -0.793   3.512   0.292   0.158   0.297   0.743  -1.271  -0.215  -0.114  -0.206
  0.001   0.004  -0.001  -0.074  -0.445  -0.014   0.097   0.292   4.691  -0.041  -0.117  -0.089  -0.216  -2.400   0.035   0.086
 -0.001   0.001  -0.005   0.011   0.015   0.236   0.216   0.158  -0.041   3.635   0.797  -0.182  -0.114   0.035  -1.354  -0.759
 -0.005   0.000  -0.004   0.017   0.011   0.354   0.146   0.297  -0.117   0.797   3.995  -0.141  -0.206   0.086  -0.759  -1.741
 -0.007   0.001   0.001   0.281  -0.013  -0.077  -1.736   0.743  -0.089  -0.182  -0.141   1.442  -0.696   0.082   0.154   0.136
  0.005  -0.005   0.000  -0.197   0.037   0.001   0.744  -1.271  -0.216  -0.114  -0.206  -0.696   1.006   0.154   0.079   0.132
 -0.001  -0.005   0.001   0.058   0.377   0.011  -0.089  -0.215  -2.400   0.035   0.086   0.082   0.154   2.083  -0.029  -0.063
  0.001  -0.001   0.005  -0.007  -0.011  -0.202  -0.182  -0.114   0.035  -1.354  -0.759   0.154   0.079  -0.029   1.059   0.721
  0.004  -0.000   0.005  -0.011  -0.009  -0.297  -0.141  -0.206   0.086  -0.759  -1.741   0.136   0.132  -0.063   0.721   1.461
 -0.025   0.016  -0.013  -0.020   0.011  -0.006   0.080  -0.101  -0.023  -0.006   0.025  -0.063   0.088   0.035   0.006   0.005
  0.012  -0.008   0.006   0.001  -0.000  -0.000  -0.008   0.003  -0.004   0.004  -0.019   0.004  -0.005  -0.002  -0.001   0.003


------------------------ aborting loop because EDIFF is reached ----------------------------------------


    FORLOC:  cpu time    0.00: real time    0.00
    FORHF :  cpu time  526.17: real time  525.71
    FORNL :  cpu time    0.39: real time    0.39
    FORCOR:  cpu time    2.08: real time    2.08

 VOLUME and BASIS-vectors are now :
 -----------------------------------------------------------------------------
  energy-cutoff  :      400.00
  volume of cell :      221.90
      direct lattice vectors                 reciprocal lattice vectors
     3.224796000 -5.643830000  0.031572000     0.154525165 -0.088592321  0.053460880
     3.224796000  5.643830000  0.031572000     0.154525165  0.088592321  0.053460880
    -2.101946000  0.000000000  6.075537000    -0.001606004  0.000000000  0.164038877

  length of vectors
     6.500240234  6.500240234  6.428866683     0.185969598  0.185969598  0.164046738


 FORCES acting on ions:
    Electron-Ion                     Ewald-Force                    Non-Local-Force
 -----------------------------------------------------------------------------------------------
   -.139E+02 -.973E+02 0.126E+02   0.127E+02 0.949E+02 -.110E+02   0.103E+01 0.211E+01 -.141E+01
   -.138E+02 0.972E+02 0.918E+01   0.126E+02 -.948E+02 -.757E+01   0.103E+01 -.210E+01 -.142E+01
   0.235E+02 -.168E+02 0.955E+01   -.202E+02 0.166E+02 -.821E+01   -.281E+01 0.158E+00 -.124E+01
   0.260E+02 0.169E+02 0.227E+01   -.227E+02 -.167E+02 -.977E+00   -.284E+01 -.169E+00 -.113E+01
   -.112E+02 -.315E+02 -.115E+02   0.105E+02 0.302E+02 0.104E+02   0.683E+00 0.134E+01 0.113E+01
   -.109E+02 0.315E+02 -.109E+02   0.102E+02 -.302E+02 0.976E+01   0.682E+00 -.134E+01 0.113E+01
   -.136E+03 -.993E+01 -.518E+02   0.132E+03 0.997E+01 0.511E+02   0.278E+01 -.294E-01 0.723E+00
   0.700E+02 -.126E+03 0.970E+02   -.682E+02 0.123E+03 -.949E+02   -.156E+01 0.229E+01 -.187E+01
   0.666E+02 -.133E+03 -.501E+02   -.651E+02 0.130E+03 0.491E+02   -.135E+01 0.218E+01 0.874E+00
   0.703E+02 0.126E+03 0.959E+02   -.686E+02 -.123E+03 -.938E+02   -.156E+01 -.229E+01 -.188E+01
   -.135E+03 0.112E+02 -.487E+02   0.132E+03 -.112E+02 0.479E+02   0.278E+01 0.368E-01 0.736E+00
   0.670E+02 0.131E+03 -.493E+02   -.655E+02 -.129E+03 0.483E+02   -.135E+01 -.218E+01 0.878E+00
 -----------------------------------------------------------------------------------------------
   0.273E+01 -.491E-02 0.390E+01   -.426E-13 -.284E-13 0.142E-13   -.247E+01 0.128E-02 -.348E+01
 
 
 POSITION                                       TOTAL-FORCE (eV/Angst)
 -----------------------------------------------------------------------------------
      2.13385     -2.80652      0.74958        -0.003149     -0.001638      0.000523
      1.08288      2.80652      3.78735        -0.004130      0.000742      0.003238
      5.40096     -0.97432      0.78666         0.021005     -0.001862     -0.055204
      4.35326      0.97432      3.81498         0.001377      0.000661      0.003874
      1.02081     -0.97328      3.66185         0.007938      0.006962      0.005155
      2.07178      0.97328      0.62409        -0.000897     -0.004214      0.000356
      2.15090      4.69667      3.05304        -0.005841      0.001825      0.027824
      1.11215     -0.89759      5.98620        -0.000957     -0.006578      0.003976
      2.14287     -2.74882      3.03886        -0.002466      0.002749     -0.000418
      2.16313      0.89759      2.94844        -0.000862      0.007091      0.001469
      1.09993     -4.69667      6.09081        -0.001641     -0.012791      0.003767
      1.09189      2.74882      6.07662        -0.010377      0.007052      0.005439
 -----------------------------------------------------------------------------------
    total drift:                               -0.052877     -0.002506     -0.070738


--------------------------------------------------------------------------------------------------------



  FREE ENERGIE OF THE ION-ELECTRON SYSTEM (eV)
  ---------------------------------------------------
  free  energy   TOTEN  =       -69.59541930 eV

  energy  without entropy=      -69.59596256  energy(sigma->0) =      -69.59560039
 


--------------------------------------------------------------------------------------------------------


    POTLOK:  cpu time    2.16: real time    2.16


--------------------------------------------------------------------------------------------------------


 writing wavefunctions
     LOOP+:  cpu time 5933.17: real time 5932.87
    4ORBIT:  cpu time    0.00: real time    0.00

 total amount of memory used by VASP on root node   155705. kBytes
========================================================================

   base      :      30000. kBytes
   nonl-proj :      74517. kBytes
   fftplans  :        702. kBytes
   grid      :       2400. kBytes
   one-center:        186. kBytes
   HF        :        194. kBytes
   nonlr-proj:       5130. kBytes
   wavefun   :      42576. kBytes
 
  
  
 General timing and accounting informations for this job:
 ========================================================
  
                  Total CPU time used (sec):     5972.793
                            User time (sec):     5968.748
                          System time (sec):        4.045
                         Elapsed time (sec):     5976.954
  
                   Maximum memory used (kb):      297408.
                   Average memory used (kb):           0.
  
                          Minor page faults:        78586
                          Major page faults:            1
                 Voluntary context switches:         4160
