   12   12    1    1
  0.1849176E+02  0.6500240E-09  0.6500240E-09  0.6428867E-09  0.5000000E-15
  1.000000000000000E-004
  CAR 
 CGS                                     
  112   42   80
 
  0.0000000E+00  0.0000000E+00  0.0000000E+00  0.1250000E-01
   1      -68.646149
   2      -68.645027
   3      -68.633890
   4      -68.633561
   5      -68.613026
   6      -68.612893
   7      -68.595549
   8      -68.595021
   9      -68.578272
  10      -68.577843
  11      -68.561268
  12      -68.560981
  13      -12.720292
  14      -11.130408
  15      -10.915272
  16      -10.603627
  17      -10.251726
  18      -10.236562
  19       -5.984870
  20       -4.983780
  21       -2.758592
  22       -2.208716
  23       -2.068385
  24       -1.922897
  25       -1.578133
  26       -0.985826
  27       -0.951962
  28       -0.684590
  29       -0.399802
  30       -0.279649
  31       -0.257466
  32       -0.234318
  33       -0.189966
  34       -0.157954
  35       -0.041580
  36        0.034406
  37        1.350936
  38        1.361510
  39        1.412835
  40        1.457146
  41        1.471085
  42        1.473569
  43        1.520608
  44        1.531722
  45        1.574824
  46        1.711653
  47        1.892050
  48        1.928184
  49        2.059440
  50        2.653807
  51        2.727070
  52        3.091303
  53        3.217709
  54        4.006716
  55        4.036391
  56        4.172252
  57        5.539143
  58        6.357315
  59        7.629957
  60        7.986749
  61        8.618613
  62        8.792285
  63        9.573936
  64        9.738028
  65        9.813970
  66       10.420145
  67       10.580849
  68       10.698645
  69       10.712492
  70       11.282228
  71       11.709871
  72       12.393666
  73       12.452095
  74       12.728645
  75       13.321960
  76       13.384744
  77       13.834176
  78       13.884829
  79       14.146063
  80       14.177068
 
  0.2500000E+00  0.7372575E-17  0.1387779E-16  0.2500000E-01
   1      -68.646130
   2      -68.644980
   3      -68.633848
   4      -68.633538
   5      -68.612862
   6      -68.612846
   7      -68.595580
   8      -68.595011
   9      -68.578212
  10      -68.577780
  11      -68.561228
  12      -68.560952
  13      -12.595060
  14      -11.129351
  15      -10.979918
  16      -10.677805
  17      -10.365100
  18      -10.280075
  19       -5.933268
  20       -4.773037
  21       -2.643400
  22       -2.252143
  23       -2.085513
  24       -1.690154
  25       -1.348211
  26       -0.998241
  27       -0.767541
  28       -0.624393
  29       -0.552830
  30       -0.438938
  31       -0.360278
  32       -0.242662
  33       -0.192381
  34       -0.169027
  35       -0.046966
  36        0.040945
  37        1.278282
  38        1.335117
  39        1.353957
  40        1.393010
  41        1.427231
  42        1.471682
  43        1.497564
  44        1.529230
  45        1.724684
  46        1.860511
  47        2.057372
  48        2.093552
  49        2.231356
  50        2.414119
  51        2.554499
  52        2.825588
  53        2.950248
  54        3.241916
  55        3.661619
  56        4.040535
  57        6.171427
  58        6.905498
  59        8.138304
  60        8.267507
  61        8.594110
  62        9.013822
  63        9.243870
  64        9.530745
  65        9.863267
  66       10.377123
  67       10.635705
  68       10.811835
  69       10.938376
  70       11.192311
  71       11.659558
  72       11.771300
  73       12.117351
  74       12.441416
  75       12.617795
  76       13.007605
  77       13.505250
  78       13.873199
  79       14.213817
  80       14.710296
 
  0.5000000E+00  0.1474515E-16  0.2775558E-16  0.1250000E-01
   1      -68.645962
   2      -68.644867
   3      -68.633825
   4      -68.633403
   5      -68.612844
   6      -68.612794
   7      -68.595490
   8      -68.594951
   9      -68.578213
  10      -68.577711
  11      -68.561059
  12      -68.560837
  13      -12.435216
  14      -11.251839
  15      -10.954430
  16      -10.764900
  17      -10.425322
  18      -10.361691
  19       -5.871027
  20       -4.547630
  21       -2.490899
  22       -2.245041
  23       -1.947133
  24       -1.464197
  25       -1.226072
  26       -1.101961
  27       -0.899270
  28       -0.867603
  29       -0.599288
  30       -0.538072
  31       -0.274489
  32       -0.206033
  33       -0.202031
  34       -0.141736
  35       -0.031545
  36        0.082963
  37        1.253465
  38        1.326585
  39        1.347960
  40        1.396861
  41        1.471104
  42        1.478593
  43        1.499851
  44        1.552133
  45        1.751534
  46        1.790399
  47        1.968001
  48        2.148757
  49        2.322580
  50        2.362712
  51        2.554575
  52        2.670859
  53        2.937112
  54        3.076492
  55        3.248605
  56        3.864268
  57        6.385667
  58        7.096441
  59        7.981025
  60        8.205142
  61        8.518995
  62        8.819816
  63        9.327805
  64        9.889707
  65       10.011737
  66       10.516133
  67       10.694779
  68       10.794564
  69       11.142155
  70       11.407213
  71       11.610120
  72       11.773412
  73       11.942672
  74       12.505256
  75       12.780595
  76       13.000157
  77       13.392660
  78       13.540323
  79       13.941413
  80       14.270155
 
  0.7372575E-17  0.2500000E+00  0.1387779E-16  0.2500000E-01
   1      -68.646103
   2      -68.645002
   3      -68.633863
   4      -68.633524
   5      -68.612859
   6      -68.612851
   7      -68.595553
   8      -68.595043
   9      -68.578197
  10      -68.577795
  11      -68.561229
  12      -68.560950
  13      -12.595210
  14      -11.127300
  15      -10.980755
  16      -10.680218
  17      -10.365940
  18      -10.277746
  19       -5.933263
  20       -4.773432
  21       -2.644425
  22       -2.251493
  23       -2.087225
  24       -1.687586
  25       -1.346877
  26       -0.999065
  27       -0.769861
  28       -0.622292
  29       -0.549000
  30       -0.439650
  31       -0.361314
  32       -0.243171
  33       -0.194370
  34       -0.168625
  35       -0.046540
  36        0.039090
  37        1.279519
  38        1.334703
  39        1.354493
  40        1.391942
  41        1.427933
  42        1.471514
  43        1.497778
  44        1.530392
  45        1.725130
  46        1.858047
  47        2.057041
  48        2.093855
  49        2.230846
  50        2.413279
  51        2.557597
  52        2.827408
  53        2.946354
  54        3.241206
  55        3.663985
  56        4.040221
  57        6.171970
  58        6.906021
  59        8.138208
  60        8.268438
  61        8.593709
  62        9.013596
  63        9.242598
  64        9.530715
  65        9.864291
  66       10.376398
  67       10.634467
  68       10.815702
  69       10.937239
  70       11.189211
  71       11.656662
  72       11.771943
  73       12.116343
  74       12.440967
  75       12.618342
  76       13.010569
  77       13.516320
  78       13.898274
  79       14.270706
  80       14.841356
 
  0.2500000E+00  0.2500000E+00  0.0000000E+00  0.2500000E-01
   1      -68.646125
   2      -68.645004
   3      -68.633782
   4      -68.633391
   5      -68.613010
   6      -68.612969
   7      -68.595459
   8      -68.594912
   9      -68.578329
  10      -68.577911
  11      -68.561254
  12      -68.560962
  13      -12.439286
  14      -11.191329
  15      -10.940888
  16      -10.880804
  17      -10.392712
  18      -10.349225
  19       -5.876128
  20       -4.521474
  21       -2.415616
  22       -2.245909
  23       -1.792630
  24       -1.681128
  25       -1.355125
  26       -1.300509
  27       -1.083442
  28       -0.680575
  29       -0.522241
  30       -0.299813
  31       -0.282451
  32       -0.222949
  33       -0.187850
  34       -0.125370
  35       -0.094189
  36        0.080436
  37        1.293103
  38        1.310935
  39        1.415599
  40        1.425859
  41        1.463835
  42        1.482035
  43        1.494369
  44        1.570230
  45        1.670605
  46        1.878553
  47        1.940843
  48        2.135543
  49        2.279091
  50        2.321949
  51        2.557167
  52        2.650724
  53        2.902881
  54        2.946186
  55        3.698933
  56        3.833555
  57        6.172290
  58        6.990178
  59        8.004656
  60        8.327696
  61        8.434240
  62        8.572044
  63        9.146280
  64        9.248752
  65       10.361831
  66       10.496409
  67       10.920088
  68       11.185148
  69       11.327795
  70       11.556156
  71       11.815713
  72       11.961418
  73       12.313190
  74       12.502763
  75       12.710354
  76       12.914506
  77       13.337457
  78       13.446788
  79       14.257458
  80       14.366889
 
  0.5000000E+00  0.2500000E+00 -0.2775558E-16  0.2500000E-01
   1      -68.645878
   2      -68.644810
   3      -68.633837
   4      -68.633490
   5      -68.612772
   6      -68.612751
   7      -68.595475
   8      -68.594999
   9      -68.578097
  10      -68.577739
  11      -68.561078
  12      -68.560846
  13      -12.439678
  14      -11.355071
  15      -10.936107
  16      -10.740088
  17      -10.387202
  18      -10.274160
  19       -5.947911
  20       -4.642473
  21       -2.389700
  22       -2.224655
  23       -2.058357
  24       -1.639867
  25       -1.361823
  26       -1.281549
  27       -1.024169
  28       -0.514368
  29       -0.486378
  30       -0.330490
  31       -0.283958
  32       -0.213079
  33       -0.149835
  34       -0.132951
  35       -0.011990
  36        0.114159
  37        1.246327
  38        1.315173
  39        1.382168
  40        1.436868
  41        1.462020
  42        1.491890
  43        1.496547
  44        1.548834
  45        1.749752
  46        1.827713
  47        1.922089
  48        2.135405
  49        2.221381
  50        2.384419
  51        2.562039
  52        2.788716
  53        2.979343
  54        3.310868
  55        3.601820
  56        3.750514
  57        6.087842
  58        6.939106
  59        7.612526
  60        8.069041
  61        8.411010
  62        8.616532
  63        8.982523
  64        9.152636
  65       10.087547
  66       10.336893
  67       10.732258
  68       11.108711
  69       11.459823
  70       11.595454
  71       11.801222
  72       12.085037
  73       12.476267
  74       12.918198
  75       13.032372
  76       13.828718
  77       14.192843
  78       14.648466
  79       15.431888
  80       15.641791
 
 -0.2500000E+00  0.2500000E+00  0.0000000E+00  0.2500000E-01
   1      -68.646118
   2      -68.644993
   3      -68.633835
   4      -68.633497
   5      -68.612796
   6      -68.612779
   7      -68.595549
   8      -68.595013
   9      -68.578162
  10      -68.577726
  11      -68.561229
  12      -68.560953
  13      -12.598170
  14      -11.252195
  15      -10.989423
  16      -10.572805
  17      -10.365289
  18      -10.181728
  19       -6.010208
  20       -4.895109
  21       -2.645712
  22       -2.313124
  23       -1.970998
  24       -1.645961
  25       -1.494758
  26       -1.183833
  27       -0.789560
  28       -0.588516
  29       -0.450978
  30       -0.331425
  31       -0.295058
  32       -0.230559
  33       -0.175614
  34       -0.131790
  35       -0.007321
  36        0.070850
  37        1.259055
  38        1.320426
  39        1.365199
  40        1.421996
  41        1.431137
  42        1.476324
  43        1.503434
  44        1.543515
  45        1.725257
  46        1.812604
  47        1.995082
  48        2.072161
  49        2.417028
  50        2.462249
  51        2.529271
  52        2.873662
  53        3.142031
  54        3.228240
  55        3.783105
  56        4.069587
  57        5.979926
  58        6.688474
  59        7.534428
  60        8.223160
  61        8.618369
  62        8.913779
  63        9.306223
  64        9.432756
  65        9.803795
  66       10.275224
  67       10.542050
  68       10.829053
  69       10.971221
  70       11.382729
  71       11.471106
  72       11.734562
  73       12.101806
  74       12.664943
  75       12.940740
  76       13.101433
  77       13.350353
  78       13.518393
  79       14.475982
  80       14.755557
 
  0.1474515E-16  0.5000000E+00  0.2775558E-16  0.1250000E-01
   1      -68.645977
   2      -68.644832
   3      -68.633840
   4      -68.633389
   5      -68.612818
   6      -68.612834
   7      -68.595472
   8      -68.594969
   9      -68.578158
  10      -68.577768
  11      -68.561117
  12      -68.560782
  13      -12.435657
  14      -11.248219
  15      -10.955194
  16      -10.770535
  17      -10.425836
  18      -10.357668
  19       -5.871083
  20       -4.548528
  21       -2.493936
  22       -2.244184
  23       -1.945213
  24       -1.464152
  25       -1.223293
  26       -1.103346
  27       -0.898731
  28       -0.868086
  29       -0.597235
  30       -0.535126
  31       -0.275167
  32       -0.209673
  33       -0.199883
  34       -0.144264
  35       -0.028402
  36        0.077574
  37        1.254649
  38        1.326875
  39        1.347054
  40        1.396522
  41        1.470506
  42        1.479226
  43        1.500339
  44        1.553672
  45        1.753099
  46        1.791527
  47        1.968741
  48        2.145450
  49        2.317367
  50        2.362970
  51        2.555103
  52        2.668883
  53        2.938317
  54        3.082048
  55        3.249251
  56        3.861925
  57        6.386723
  58        7.098739
  59        7.982984
  60        8.203708
  61        8.519085
  62        8.820020
  63        9.328312
  64        9.886738
  65       10.010025
  66       10.517840
  67       10.691910
  68       10.793675
  69       11.139667
  70       11.406918
  71       11.610474
  72       11.776005
  73       11.940131
  74       12.508928
  75       12.825040
  76       13.029212
  77       13.547906
  78       13.685002
  79       14.552349
  80       15.245573
 
  0.2500000E+00  0.5000000E+00 -0.2775558E-16  0.2500000E-01
   1      -68.645905
   2      -68.644786
   3      -68.633796
   4      -68.633489
   5      -68.612784
   6      -68.612764
   7      -68.595465
   8      -68.595028
   9      -68.578077
  10      -68.577757
  11      -68.561118
  12      -68.560803
  13      -12.439911
  14      -11.353846
  15      -10.936113
  16      -10.742198
  17      -10.387633
  18      -10.272464
  19       -5.947933
  20       -4.642813
  21       -2.391100
  22       -2.226112
  23       -2.056306
  24       -1.640251
  25       -1.360576
  26       -1.281419
  27       -1.022935
  28       -0.511120
  29       -0.485139
  30       -0.333725
  31       -0.283349
  32       -0.214685
  33       -0.150436
  34       -0.134032
  35       -0.010653
  36        0.112123
  37        1.246970
  38        1.314945
  39        1.383579
  40        1.436195
  41        1.462214
  42        1.491841
  43        1.496691
  44        1.549270
  45        1.748270
  46        1.828042
  47        1.922184
  48        2.136108
  49        2.219110
  50        2.385351
  51        2.560366
  52        2.790521
  53        2.978653
  54        3.313593
  55        3.602559
  56        3.748618
  57        6.088298
  58        6.939521
  59        7.612075
  60        8.069374
  61        8.410812
  62        8.616930
  63        8.983478
  64        9.151571
  65       10.087032
  66       10.335707
  67       10.732796
  68       11.109856
  69       11.457669
  70       11.576711
  71       11.786783
  72       12.031238
  73       12.521999
  74       12.682629
  75       12.911651
  76       13.209164
  77       14.226737
  78       14.763330
  79       15.248190
  80       15.907533
 
  0.5000000E+00  0.5000000E+00  0.0000000E+00  0.1250000E-01
   1      -68.645761
   2      -68.644588
   3      -68.633661
   4      -68.633273
   5      -68.612616
   6      -68.612709
   7      -68.595234
   8      -68.594858
   9      -68.578043
  10      -68.577606
  11      -68.560885
  12      -68.560634
  13      -12.431825
  14      -11.501727
  15      -10.911334
  16      -10.621212
  17      -10.395876
  18      -10.200910
  19       -6.026486
  20       -4.811107
  21       -2.310766
  22       -2.262707
  23       -2.093117
  24       -1.702897
  25       -1.242710
  26       -1.110256
  27       -0.845425
  28       -0.780052
  29       -0.732608
  30       -0.245235
  31       -0.197249
  32       -0.178667
  33       -0.152002
  34       -0.042777
  35       -0.002680
  36        0.185069
  37        1.265461
  38        1.318098
  39        1.377247
  40        1.414163
  41        1.432075
  42        1.493497
  43        1.507138
  44        1.548851
  45        1.787022
  46        1.847794
  47        1.995740
  48        2.150456
  49        2.252666
  50        2.338204
  51        2.560546
  52        2.760459
  53        2.773958
  54        3.368959
  55        3.765674
  56        4.006250
  57        5.854128
  58        6.766383
  59        7.083099
  60        8.411686
  61        8.561661
  62        8.770522
  63        9.141204
  64        9.242255
  65        9.959565
  66       10.285008
  67       10.728296
  68       10.824893
  69       10.874846
  70       11.276551
  71       11.757800
  72       11.916865
  73       11.972022
  74       12.367262
  75       12.540613
  76       13.455506
  77       14.279671
  78       14.666930
  79       16.746508
  80       16.752882
 
 -0.2168404E-18 -0.2168404E-18  0.2000000E+00  0.2500000E-01
   1      -68.646156
   2      -68.645025
   3      -68.633858
   4      -68.633531
   5      -68.612929
   6      -68.612836
   7      -68.595561
   8      -68.595049
   9      -68.578244
  10      -68.577816
  11      -68.561271
  12      -68.560982
  13      -12.617103
  14      -11.425116
  15      -10.777758
  16      -10.608646
  17      -10.250630
  18      -10.238474
  19       -5.831174
  20       -5.047053
  21       -2.598482
  22       -2.371323
  23       -1.962910
  24       -1.774198
  25       -1.445295
  26       -1.125442
  27       -1.066595
  28       -0.771495
  29       -0.471399
  30       -0.293752
  31       -0.237397
  32       -0.235374
  33       -0.190803
  34       -0.146182
  35       -0.018621
  36        0.024673
  37        1.334073
  38        1.380778
  39        1.415820
  40        1.439652
  41        1.464464
  42        1.466457
  43        1.514609
  44        1.544966
  45        1.632391
  46        1.759179
  47        1.786553
  48        1.950826
  49        2.088366
  50        2.658006
  51        2.720855
  52        3.195923
  53        3.253652
  54        3.520502
  55        3.895033
  56        3.975491
  57        6.046627
  58        6.415867
  59        7.824906
  60        7.907685
  61        8.365642
  62        8.819095
  63        9.775600
  64        9.795673
  65       10.063611
  66       10.583490
  67       10.643016
  68       10.813663
  69       10.859013
  70       11.493268
  71       11.557458
  72       12.027804
  73       12.579671
  74       12.776580
  75       12.913474
  76       13.204545
  77       13.536540
  78       13.821318
  79       14.195532
  80       14.699587
 
  0.2500000E+00  0.1517883E-17  0.2000000E+00  0.2500000E-01
   1      -68.646090
   2      -68.644963
   3      -68.633845
   4      -68.633516
   5      -68.612926
   6      -68.612924
   7      -68.595534
   8      -68.594992
   9      -68.578244
  10      -68.577837
  11      -68.561207
  12      -68.560919
  13      -12.457681
  14      -11.466966
  15      -10.863479
  16      -10.690006
  17      -10.374062
  18      -10.246304
  19       -5.766720
  20       -4.803831
  21       -2.442247
  22       -2.232947
  23       -1.852139
  24       -1.713705
  25       -1.434439
  26       -1.190309
  27       -0.889405
  28       -0.745543
  29       -0.604940
  30       -0.524305
  31       -0.309615
  32       -0.241939
  33       -0.172491
  34       -0.124106
  35       -0.053559
  36        0.060598
  37        1.301815
  38        1.336056
  39        1.369420
  40        1.431390
  41        1.446208
  42        1.478784
  43        1.520558
  44        1.546621
  45        1.643264
  46        1.872031
  47        1.978386
  48        2.047976
  49        2.194164
  50        2.475790
  51        2.593237
  52        2.838253
  53        2.963220
  54        3.134646
  55        3.569038
  56        3.724746
  57        6.442312
  58        6.957276
  59        8.171322
  60        8.246761
  61        8.833337
  62        9.128871
  63        9.464384
  64        9.796264
  65       10.084744
  66       10.297779
  67       10.741225
  68       11.076932
  69       11.290682
  70       11.425472
  71       11.634264
  72       11.724459
  73       12.085993
  74       12.267035
  75       12.541966
  76       12.658454
  77       12.953761
  78       13.059793
  79       13.638057
  80       14.693163
 
  0.5000000E+00  0.9107298E-17  0.2000000E+00  0.2500000E-01
   1      -68.645868
   2      -68.644839
   3      -68.633759
   4      -68.633442
   5      -68.612763
   6      -68.612806
   7      -68.595404
   8      -68.594945
   9      -68.578109
  10      -68.577774
  11      -68.561113
  12      -68.560872
  13      -12.355028
  14      -11.413776
  15      -10.953687
  16      -10.684023
  17      -10.478118
  18      -10.336323
  19       -5.751913
  20       -4.721480
  21       -2.521418
  22       -2.183656
  23       -1.953894
  24       -1.534902
  25       -1.302923
  26       -1.097679
  27       -0.869557
  28       -0.757311
  29       -0.548246
  30       -0.445897
  31       -0.291108
  32       -0.179308
  33       -0.146070
  34       -0.103780
  35       -0.045651
  36        0.022291
  37        1.271513
  38        1.297768
  39        1.352508
  40        1.429436
  41        1.451907
  42        1.480117
  43        1.500817
  44        1.587191
  45        1.717829
  46        1.931049
  47        2.076134
  48        2.148513
  49        2.268115
  50        2.403475
  51        2.569511
  52        2.598749
  53        2.896748
  54        3.008171
  55        3.358921
  56        3.900574
  57        6.365794
  58        6.896698
  59        7.573560
  60        8.084648
  61        8.547428
  62        8.797924
  63        9.280272
  64        9.628420
  65        9.931839
  66       10.276347
  67       10.658322
  68       10.930189
  69       10.973232
  70       11.279616
  71       11.520269
  72       11.787653
  73       12.249154
  74       12.546199
  75       13.104998
  76       13.517370
  77       14.302786
  78       14.664479
  79       15.125929
  80       16.270356
 
 -0.2500000E+00 -0.4098284E-16  0.2000000E+00  0.2500000E-01
   1      -68.646143
   2      -68.645025
   3      -68.633832
   4      -68.633509
   5      -68.612920
   6      -68.612860
   7      -68.595565
   8      -68.595015
   9      -68.578259
  10      -68.577836
  11      -68.561257
  12      -68.560983
  13      -12.540610
  14      -11.336718
  15      -10.874193
  16      -10.605977
  17      -10.398045
  18      -10.285309
  19       -5.824735
  20       -4.974635
  21       -2.663612
  22       -2.453489
  23       -2.037259
  24       -1.576718
  25       -1.173147
  26       -0.984922
  27       -0.793031
  28       -0.652545
  29       -0.518929
  30       -0.390230
  31       -0.268977
  32       -0.255248
  33       -0.191841
  34       -0.143616
  35       -0.047457
  36        0.015106
  37        1.289227
  38        1.310429
  39        1.388612
  40        1.408994
  41        1.433956
  42        1.455846
  43        1.491949
  44        1.564660
  45        1.687625
  46        1.914994
  47        1.986519
  48        2.145836
  49        2.336494
  50        2.564861
  51        2.616131
  52        2.829530
  53        2.974207
  54        3.248087
  55        3.681901
  56        3.944728
  57        6.179291
  58        6.637651
  59        7.766329
  60        7.972301
  61        8.215081
  62        8.562293
  63        9.379916
  64        9.576962
  65        9.908226
  66       10.252155
  67       10.544665
  68       10.788404
  69       10.841198
  70       11.068978
  71       11.568984
  72       12.023160
  73       12.527820
  74       12.753520
  75       12.951706
  76       13.307358
  77       13.411582
  78       13.738533
  79       13.846564
  80       14.726762
 
  0.1517883E-17  0.2500000E+00  0.2000000E+00  0.2500000E-01
   1      -68.646091
   2      -68.644965
   3      -68.633845
   4      -68.633515
   5      -68.612933
   6      -68.612915
   7      -68.595542
   8      -68.594981
   9      -68.578254
  10      -68.577827
  11      -68.561196
  12      -68.560931
  13      -12.457853
  14      -11.466333
  15      -10.864446
  16      -10.689844
  17      -10.374849
  18      -10.245012
  19       -5.766816
  20       -4.804242
  21       -2.444050
  22       -2.232665
  23       -1.849639
  24       -1.712917
  25       -1.434798
  26       -1.189502
  27       -0.892767
  28       -0.745265
  29       -0.605656
  30       -0.518069
  31       -0.313525
  32       -0.241964
  33       -0.175094
  34       -0.122875
  35       -0.052670
  36        0.060147
  37        1.301678
  38        1.335870
  39        1.369665
  40        1.432381
  41        1.446171
  42        1.478485
  43        1.521220
  44        1.546693
  45        1.643075
  46        1.870153
  47        1.977271
  48        2.047860
  49        2.195520
  50        2.474640
  51        2.596710
  52        2.839511
  53        2.963384
  54        3.132813
  55        3.567571
  56        3.725528
  57        6.443076
  58        6.957407
  59        8.171825
  60        8.246373
  61        8.834398
  62        9.129429
  63        9.463269
  64        9.796497
  65       10.083962
  66       10.298694
  67       10.739715
  68       11.077952
  69       11.288478
  70       11.423500
  71       11.632185
  72       11.723714
  73       12.085098
  74       12.267316
  75       12.542983
  76       12.656487
  77       12.955574
  78       13.059846
  79       13.656735
  80       14.699360
 
  0.2500000E+00  0.2500000E+00  0.2000000E+00  0.2500000E-01
   1      -68.645998
   2      -68.644875
   3      -68.633722
   4      -68.633336
   5      -68.612772
   6      -68.612758
   7      -68.595405
   8      -68.594873
   9      -68.578142
  10      -68.577678
  11      -68.561140
  12      -68.560808
  13      -12.325688
  14      -11.475099
  15      -10.866226
  16      -10.854592
  17      -10.409683
  18      -10.285714
  19       -5.748037
  20       -4.691372
  21       -2.239248
  22       -2.138770
  23       -1.928989
  24       -1.849174
  25       -1.454156
  26       -1.397906
  27       -1.041275
  28       -0.521352
  29       -0.459700
  30       -0.347450
  31       -0.247217
  32       -0.217170
  33       -0.161572
  34       -0.111615
  35       -0.092075
  36        0.079623
  37        1.261790
  38        1.347974
  39        1.397038
  40        1.435469
  41        1.452309
  42        1.509675
  43        1.535778
  44        1.542596
  45        1.752853
  46        1.816811
  47        2.039984
  48        2.134787
  49        2.287198
  50        2.310433
  51        2.520807
  52        2.770103
  53        2.898745
  54        3.261120
  55        3.496397
  56        3.800951
  57        6.185041
  58        6.841599
  59        7.826838
  60        8.044400
  61        8.190279
  62        8.727631
  63        9.153570
  64        9.306710
  65       10.218735
  66       10.441075
  67       10.593111
  68       11.004877
  69       11.238975
  70       11.488192
  71       11.812548
  72       12.169700
  73       12.206406
  74       12.575995
  75       12.690831
  76       13.117131
  77       13.415915
  78       13.881203
  79       14.005304
  80       14.527548
 
  0.5000000E+00  0.2500000E+00  0.2000000E+00  0.2500000E-01
   1      -68.645871
   2      -68.644732
   3      -68.633746
   4      -68.633544
   5      -68.612775
   6      -68.612799
   7      -68.595465
   8      -68.594948
   9      -68.578118
  10      -68.577758
  11      -68.561044
  12      -68.560840
  13      -12.372581
  14      -11.473651
  15      -10.935723
  16      -10.655420
  17      -10.418089
  18      -10.306742
  19       -5.800803
  20       -4.836435
  21       -2.525407
  22       -2.243542
  23       -1.870838
  24       -1.643331
  25       -1.506047
  26       -1.307623
  27       -0.902035
  28       -0.535747
  29       -0.379344
  30       -0.350498
  31       -0.223271
  32       -0.178172
  33       -0.156842
  34       -0.075877
  35       -0.028258
  36        0.079797
  37        1.189388
  38        1.363854
  39        1.397836
  40        1.441885
  41        1.463361
  42        1.506683
  43        1.519568
  44        1.584685
  45        1.739740
  46        1.818037
  47        2.036960
  48        2.236383
  49        2.269246
  50        2.362104
  51        2.489050
  52        2.670290
  53        3.052261
  54        3.410875
  55        3.727137
  56        3.863653
  57        5.933016
  58        6.613756
  59        7.353785
  60        7.942415
  61        8.066433
  62        8.724556
  63        8.906021
  64        9.138644
  65        9.844919
  66       10.327555
  67       10.557008
  68       10.927285
  69       11.223291
  70       11.415854
  71       11.750990
  72       12.002735
  73       12.496499
  74       12.832206
  75       13.204948
  76       14.182069
  77       14.709789
  78       15.163181
  79       15.913904
  80       16.570815
 
 -0.2500000E+00  0.2500000E+00  0.2000000E+00  0.2500000E-01
   1      -68.646090
   2      -68.644930
   3      -68.633892
   4      -68.633557
   5      -68.612848