       N       E                     dE             d eps       ncg     rms          ort
SDA:   1     0.757199069457E+02    0.75720E+02   -0.21362E+03  3360   0.534E+03 0.000E+00
DMP:   2    -0.822551748625E+01   -0.83945E+02   -0.14726E+03  3360   0.397E+03-0.744E+02
DMP:   3    -0.149645833034E+02   -0.67391E+01   -0.20646E+03  3360   0.705E+03-0.494E+03
DMP:   4    -0.224435369390E+02   -0.74790E+01   -0.10788E+03  3360   0.392E+03-0.321E+03
DMP:   5    -0.607771467010E+02   -0.38334E+02   -0.15107E+02  3360   0.709E+02-0.867E+02
DMP:   6    -0.659090552159E+02   -0.51319E+01   -0.82257E+01  3360   0.248E+02-0.111E+02
DMP:   7    -0.674581369740E+02   -0.15491E+01   -0.41645E+01  3360   0.148E+02-0.115E+02
DMP:   8    -0.690812690208E+02   -0.16231E+01   -0.77645E+00  3360   0.286E+01-0.239E+01
DMP:   9    -0.693940563728E+02   -0.31279E+00   -0.38851E+00  3360   0.111E+01-0.367E+00
DMP:  10    -0.694983961596E+02   -0.10434E+00   -0.15336E+00  3360   0.551E+00-0.439E+00
DMP:  11    -0.695684271473E+02   -0.70031E-01   -0.37005E-01  3360   0.106E+00-0.345E-01
DMP:  12    -0.695808239468E+02   -0.12397E-01   -0.22984E-01  3360   0.693E-01-0.310E-01
DMP:  13    -0.695905429601E+02   -0.97190E-02   -0.51526E-02  3360   0.162E-01-0.881E-02
DMP:  14    -0.695930207493E+02   -0.24778E-02   -0.38062E-02  3360   0.970E-02-0.484E-03
DMP:  15    -0.695945398442E+02   -0.15191E-02   -0.10459E-02  3360   0.335E-02-0.193E-02
DMP:  16    -0.695951169708E+02   -0.57713E-03   -0.41366E-03  3360   0.923E-03 0.290E-03
DMP:  17    -0.695952925502E+02   -0.17558E-03   -0.21031E-03  3360   0.583E-03-0.149E-03
DMP:  18    -0.695954108957E+02   -0.11835E-03   -0.57196E-04  3360   0.121E-03 0.578E-04
DMP:  19    -0.695954404651E+02   -0.29569E-04   -0.35778E-04  3360   0.892E-04 0.658E-06
DMP:  20    -0.695954605963E+02   -0.20131E-04   -0.11810E-04  3360   0.245E-04 0.132E-04
DMP:  21    -0.695954681742E+02   -0.75779E-05   -0.71737E-05  3360   0.143E-04 0.951E-05
   1 F= -.69595468E+02 E0= -.69595657E+02  d E =0.565933E-03
