 vasp.5.3.3 18Dez12 (build Nov 13 2015 09:58:40) complex                        
  
 executed on             LinuxIFC date 2017.10.18  16:12:18
 running on   48 total cores
 distrk:  each k-point on   16 cores,    3 groups
 distr:  one band on NCORES_PER_BAND=   1 cores,   16 groups


--------------------------------------------------------------------------------------------------------


 INCAR:
 POTCAR:    PAW_PBE Cu_pv 06Sep2000               
 POTCAR:    PAW_PBE Ge 05Jan2001                  
 POTCAR:    PAW_PBE S 17Jan2003                   

 ----------------------------------------------------------------------------- 
|                                                                             |
|           W    W    AA    RRRRR   N    N  II  N    N   GGGG   !!!           |
|           W    W   A  A   R    R  NN   N  II  NN   N  G    G  !!!           |
|           W    W  A    A  R    R  N N  N  II  N N  N  G       !!!           |
|           W WW W  AAAAAA  RRRRR   N  N N  II  N  N N  G  GGG   !            |
|           WW  WW  A    A  R   R   N   NN  II  N   NN  G    G                |
|           W    W  A    A  R    R  N    N  II  N    N   GGGG   !!!           |
|                                                                             |
|      For optimal performance we recommend that you set                      |
|        NPAR = 4 - approx SQRT( number of cores)                             |
|      (number of cores/NPAR must be integer)                                 |
|      This setting will greatly improve the performance of VASP for DFT.     |
|      The default NPAR=number of cores might be grossly inefficient          |
|      on modern multi-core architectures or massively parallel machines.     |
|      Do your own testing.                                                   |
|      Unfortunately you need to use the default for hybrid, GW and RPA       |
|      calculations.                                                          |
|                                                                             |
 ----------------------------------------------------------------------------- 


 ----------------------------------------------------------------------------- 
|                                                                             |
|           W    W    AA    RRRRR   N    N  II  N    N   GGGG   !!!           |
|           W    W   A  A   R    R  NN   N  II  NN   N  G    G  !!!           |
|           W    W  A    A  R    R  N N  N  II  N N  N  G       !!!           |
|           W WW W  AAAAAA  RRRRR   N  N N  II  N  N N  G  GGG   !            |
|           WW  WW  A    A  R   R   N   NN  II  N   NN  G    G                |
|           W    W  A    A  R    R  N    N  II  N    N   GGGG   !!!           |
|                                                                             |
|      You have enabled k-point parallelism (KPAR>1).                         |
|      This developmental code was originally  written by Paul Kent at ORNL,  |
|      and carefully double checked in Vienna.                                |
|      GW as well as linear response parallelism added by Martijn Marsman     |
|      and Georg Kresse.                                                      |
|      Carefully verify results versus KPAR=1.                                |
|      Report problems to Paul Kent and Vienna.                               |
|                                                                             |
 ----------------------------------------------------------------------------- 

 POTCAR:    PAW_PBE Cu_pv 06Sep2000               
   VRHFIN =Cu: d10 p1                                                           
   LEXCH  = PE                                                                  
   EATOM  =  4120.1201 eV,  302.8203 Ry                                         
                                                                                
   TITEL  = PAW_PBE Cu_pv 06Sep2000                                             
   LULTRA =        F    use ultrasoft PP ?                                      
   IUNSCR =        1    unscreen: 0-lin 1-nonlin 2-no                           
   RPACOR =    1.500    partial core radius                                     
   POMASS =   63.546; ZVAL   =   17.000    mass and valenz                      
   RCORE  =    2.000    outmost cutoff radius                                   
   RWIGS  =    2.000; RWIGS  =    1.058    wigner-seitz radius (au A)           
   ENMAX  =  368.648; ENMIN  =  276.486 eV                                      
   RCLOC  =    1.304    cutoff for local pot                                    
   LCOR   =        T    correct aug charges                                     
   LPAW   =        T    paw PP                                                  
   EAUG   =  758.233                                                            
   DEXC   =    0.000                                                            
   RMAX   =    2.046    core radius for proj-oper                               
   RAUG   =    1.300    factor for augmentation sphere                          
   RDEP   =    2.025    radius for radial grids                                 
   RDEPT  =    1.558    core radius for aug-charge                              
                                                                                
   Atomic configuration                                                         
    8 entries                                                                   
     n  l   j            E        occ.                                          
     1  0  0.50     -8850.2467   2.0000                                         
     2  0  0.50     -1062.3498   2.0000                                         
     2  1  1.50      -916.8226   6.0000                                         
     3  0  0.50      -114.6929   2.0000                                         
     3  1  1.50       -72.1325   6.0000                                         
     3  2  2.50        -5.0394  10.0000                                         
     4  0  0.50        -4.6097   1.0000                                         
     4  3  2.50        -1.3606   0.0000                                         
   Description                                                                  
     l       E           TYP  RCUT    TYP  RCUT                                 
     1    -72.1324777     23  1.700                                             
     1     -1.3605826     23  1.700                                             
     2     -5.0393776     23  2.000                                             
     2     -6.3999602     23  2.000                                             
     0     -4.6097062     23  1.800                                             
     0     14.1620818     23  1.800                                             
  local pseudopotential read in
  partial core-charges read in
  partial kinetic energy density read in
  atomic valenz-charges read in
  non local Contribution for L=           1  read in
    real space projection operators read in
  non local Contribution for L=           1  read in
    real space projection operators read in
  non local Contribution for L=           2  read in
    real space projection operators read in
  non local Contribution for L=           2  read in
    real space projection operators read in
  non local Contribution for L=           0  read in
    real space projection operators read in
  non local Contribution for L=           0  read in
    real space projection operators read in
    PAW grid and wavefunctions read in
 
   number of l-projection  operators is LMAX  =           6
   number of lm-projection operators is LMMAX =          18
 
 POTCAR:    PAW_PBE Ge 05Jan2001                  
   VRHFIN =Ge: s2p2                                                             
   LEXCH  = PE                                                                  
   EATOM  =   104.9960 eV,    7.7170 Ry                                         
                                                                                
   TITEL  = PAW_PBE Ge 05Jan2001                                                
   LULTRA =        F    use ultrasoft PP ?                                      
   IUNSCR =        1    unscreen: 0-lin 1-nonlin 2-no                           
   RPACOR =    2.170    partial core radius                                     
   POMASS =   72.610; ZVAL   =    4.000    mass and valenz                      
   RCORE  =    2.300    outmost cutoff radius                                   
   RWIGS  =    2.300; RWIGS  =    1.217    wigner-seitz radius (au A)           
   ENMAX  =  173.807; ENMIN  =  130.355 eV                                      
   ICORE  =        3    local potential                                         
   LCOR   =        T    correct aug charges                                     
   LPAW   =        T    paw PP                                                  
   EAUG   =  385.843                                                            
   DEXC   =    0.000                                                            
   RMAX   =    2.342    core radius for proj-oper                               
   RAUG   =    1.300    factor for augmentation sphere                          
   RDEP   =    2.318    radius for radial grids                                 
   RDEPT  =    2.103    core radius for aug-charge                              
                                                                                
   Atomic configuration                                                         
   10 entries                                                                   
     n  l   j            E        occ.                                          
     1  0  0.50    -10959.8463   2.0000                                         
     2  0  0.50     -1371.6056   2.0000                                         
     2  1  1.50     -1198.4791   6.0000                                         
     3  0  0.50      -168.4733   2.0000                                         
     3  1  1.50      -115.6019   6.0000                                         
     3  2  2.50       -29.3106  10.0000                                         
     4  0  0.50       -11.7309   2.0000                                         
     4  1  0.50        -3.8952   2.0000                                         
     4  2  1.50        -4.0817   0.0000                                         
     4  3  2.50        -4.0817   0.0000                                         
   Description                                                                  
     l       E           TYP  RCUT    TYP  RCUT                                 
     0    -11.7309493     23  2.300                                             
     0     -7.4578696     23  2.300                                             
     1     -3.8952261     23  2.300                                             
     1      6.1178114     23  2.300                                             
     2     -4.0817478     23  2.300                                             
     3     -1.3605826      7  2.300                                             
  local pseudopotential read in
  partial core-charges read in
  partial kinetic energy density read in
  atomic valenz-charges read in
  non local Contribution for L=           0  read in
    real space projection operators read in
  non local Contribution for L=           0  read in
    real space projection operators read in
  non local Contribution for L=           1  read in
    real space projection operators read in
  non local Contribution for L=           1  read in
    real space projection operators read in
  non local Contribution for L=           2  read in
    real space projection operators read in
    PAW grid and wavefunctions read in
 
   number of l-projection  operators is LMAX  =           5
   number of lm-projection operators is LMMAX =          13
 
 POTCAR:    PAW_PBE S 17Jan2003                   
   VRHFIN =S : s2p4                                                             
   LEXCH  = PE                                                                  
   EATOM  =   276.8230 eV,   20.3459 Ry                                         
                                                                                
   TITEL  = PAW_PBE S 17Jan2003                                                 
   LULTRA =        F    use ultrasoft PP ?                                      
   IUNSCR =        1    unscreen: 0-lin 1-nonlin 2-no                           
   RPACOR =    1.500    partial core radius                                     
   POMASS =   32.066; ZVAL   =    6.000    mass and valenz                      
   RCORE  =    1.900    outmost cutoff radius                                   
   RWIGS  =    2.200; RWIGS  =    1.164    wigner-seitz radius (au A)           
   ENMAX  =  280.000; ENMIN  =  194.016 eV                                      
   ICORE  =        2    local potential                                         
   LCOR   =        T    correct aug charges                                     
   LPAW   =        T    paw PP                                                  
   EAUG   =  335.092                                                            
   DEXC   =     .000                                                            
   RMAX   =    2.867    core radius for proj-oper                               
   RAUG   =    1.300    factor for augmentation sphere                          
   RDEP   =    1.954    radius for radial grids                                 
   QCUT   =   -4.360; QGAM   =    8.721    optimization parameters              
                                                                                
   Description                                                                  
     l     E      TYP  RCUT    TYP  RCUT                                        
     0   .000     23  1.900                                                     
     0   .000     23  1.900                                                     
     1   .000     23  1.900                                                     
     1   .000     23  1.900                                                     
     2   .000     23  1.900                                                     
  local pseudopotential read in
  partial core-charges read in
  atomic valenz-charges read in
  non local Contribution for L=           0  read in
    real space projection operators read in
  non local Contribution for L=           0  read in
    real space projection operators read in
  non local Contribution for L=           1  read in
    real space projection operators read in
  non local Contribution for L=           1  read in
    real space projection operators read in
    PAW grid and wavefunctions read in
 
   number of l-projection  operators is LMAX  =           4
   number of lm-projection operators is LMMAX =           8
 
  PAW_PBE Cu_pv 06Sep2000               :
 energy of atom  1       EATOM=-4120.1201
 kinetic energy error for atom=    0.0996 (will be added to EATOM!!)
  PAW_PBE Ge 05Jan2001                  :
 energy of atom  2       EATOM= -104.9960
 kinetic energy error for atom=    0.0003 (will be added to EATOM!!)
  PAW_PBE S 17Jan2003                   :
 energy of atom  3       EATOM= -276.8230
 kinetic energy error for atom=    0.0046 (will be added to EATOM!!)
 
 
 POSCAR: Cu Ge S                                 
  positions in direct lattice
  No initial velocities read in
 exchange correlation table for  LEXCH =        8
   RHO(1)=    0.500       N(1)  =     2000
   RHO(2)=  100.500       N(2)  =     4000
 


--------------------------------------------------------------------------------------------------------


 ion  position               nearest neighbor table
   1  0.620  0.121  0.120-  11 2.28   9 2.29  12 2.31   8 2.35
   2  0.121  0.618  0.620-  12 2.29   7 2.29   9 2.30  10 2.35
   3  0.963  0.790  0.119-  11 2.30  12 2.30   7 2.31   8 2.36
   4  0.790  0.963  0.619-   7 2.30   9 2.30  11 2.31  10 2.36
   5  0.440  0.267  0.599-   7 2.19   9 2.19  10 2.31   8 2.33
   6  0.267  0.440  0.099-  11 2.19  12 2.19   8 2.31  10 2.33
   7  0.079  0.912  0.497-   5 2.19   2 2.29   4 2.30   3 2.31
   8  0.571  0.412  0.980-   6 2.31   5 2.33   1 2.35   3 2.36
   9  0.737  0.250  0.495-   5 2.19   1 2.29   4 2.30   2 2.30
  10  0.412  0.571  0.480-   5 2.31   6 2.33   2 2.35   4 2.36
  11  0.912  0.079  0.997-   6 2.19   1 2.28   3 2.30   4 2.31
  12  0.250  0.737  0.995-   6 2.19   2 2.29   3 2.30   1 2.31
 
  Warning from LATTYP: Got some problem with cell dimensions!
  Tried to take original basis but could not verify dimensions!
  LATTYP: Found a base centered monoclinic cell.
 ALAT       =     6.4499010947
 B/A-ratio  =     1.7500516418
 C/A-ratio  =     1.9305142024
 COS(beta)  =    -0.4326083233
  
  Lattice vectors:
  
 A1 = (   3.2247960000,   5.6438300000,   0.0315720000)
 A2 = (   3.2247960000,  -5.6438300000,   0.0315720000)
 A3 = ( -10.7972380000,   0.0000000000,  -6.2018250000)


Analysis of symmetry for initial positions (statically):
=====================================================================
 Subroutine PRICEL returns:
 Original cell was already a primitive cell.
 

 Routine SETGRP: Setting up the symmetry group for a 
 base centered monoclinic supercell.


 Subroutine GETGRP returns: Found  1 space group operations
 (whereof  1 operations were pure point group operations)
 out of a pool of  4 trial point group operations.


The static configuration has the point symmetry C_1 .


Analysis of symmetry for dynamics (positions and initial velocities):
=====================================================================
 Subroutine PRICEL returns:
 Original cell was already a primitive cell.
 

 Routine SETGRP: Setting up the symmetry group for a 
 base centered monoclinic supercell.


 Subroutine GETGRP returns: Found  1 space group operations
 (whereof  1 operations were pure point group operations)
 out of a pool of  4 trial point group operations.


The dynamic configuration has the point symmetry C_1 .


 irot  :   1
 --------------------------------------------------------------------
 isymop:   1   0   0
           0   1   0
           0   0   1

 gtrans:     0.0000000     0.0000000     0.0000000

 ptrans:     0.0000000     0.0000000     0.0000000
 rotmap:
 (   1->   1)  (   2->   2)  (   3->   3)  (   4->   4)  (   5->   5) 
 (   6->   6)  (   7->   7)  (   8->   8)  (   9->   9)  (  10->  10) 
 (  11->  11)  (  12->  12) 
 
 
 KPOINTS: pymatgen 4.7.6+ generated KPOINTS with g

Automatic generation of k-mesh.
Space group operators:
 irot       det(A)        alpha          n_x          n_y          n_z        tau_x        tau_y        tau_z
    1     1.000000     0.000000     1.000000     0.000000     0.000000     0.000000     0.000000     0.000000
 
 Subroutine IBZKPT returns following result:
 ===========================================
 
 Found     42 irreducible k-points:
 
 Following reciprocal coordinates:
            Coordinates               Weight
  0.000000  0.000000  0.000000      1.000000
  0.250000  0.000000  0.000000      2.000000
  0.500000  0.000000  0.000000      1.000000
  0.000000  0.250000  0.000000      2.000000
  0.250000  0.250000  0.000000      2.000000
  0.500000  0.250000 -0.000000      2.000000
 -0.250000  0.250000  0.000000      2.000000
  0.000000  0.500000  0.000000      1.000000
  0.250000  0.500000 -0.000000      2.000000
  0.500000  0.500000  0.000000      1.000000
 -0.000000 -0.000000  0.200000      2.000000
  0.250000  0.000000  0.200000      2.000000
  0.500000  0.000000  0.200000      2.000000
 -0.250000 -0.000000  0.200000      2.000000
  0.000000  0.250000  0.200000      2.000000
  0.250000  0.250000  0.200000      2.000000
  0.500000  0.250000  0.200000      2.000000
 -0.250000  0.250000  0.200000      2.000000
  0.000000  0.500000  0.200000      2.000000
  0.250000  0.500000  0.200000      2.000000
  0.500000  0.500000  0.200000      2.000000
 -0.250000  0.500000  0.200000      2.000000
 -0.000000 -0.250000  0.200000      2.000000
  0.250000 -0.250000  0.200000      2.000000
  0.500000 -0.250000  0.200000      2.000000
 -0.250000 -0.250000  0.200000      2.000000
 -0.000000 -0.000000  0.400000      2.000000
  0.250000  0.000000  0.400000      2.000000
  0.500000  0.000000  0.400000      2.000000
 -0.250000  0.000000  0.400000      2.000000
  0.000000  0.250000  0.400000      2.000000
  0.250000  0.250000  0.400000      2.000000
  0.500000  0.250000  0.400000      2.000000
 -0.250000  0.250000  0.400000      2.000000
  0.000000  0.500000  0.400000      2.000000
  0.250000  0.500000  0.400000      2.000000
  0.500000  0.500000  0.400000      2.000000
 -0.250000  0.500000  0.400000      2.000000
  0.000000 -0.250000  0.400000      2.000000
  0.250000 -0.250000  0.400000      2.000000
  0.500000 -0.250000  0.400000      2.000000
 -0.250000 -0.250000  0.400000      2.000000
 
 Following cartesian coordinates:
            Coordinates               Weight
  0.000000  0.000000  0.000000      1.000000
  0.038631 -0.022148  0.013365      2.000000
  0.077263 -0.044296  0.026730      1.000000
  0.038631  0.022148  0.013365      2.000000
  0.077263  0.000000  0.026730      2.000000
  0.115894 -0.022148  0.040096      2.000000
  0.000000  0.044296  0.000000      2.000000
  0.077263  0.044296  0.026730      1.000000
  0.115894  0.022148  0.040096      2.000000
  0.154525  0.000000  0.053461      1.000000
 -0.000321  0.000000  0.032808      2.000000
  0.038310 -0.022148  0.046173      2.000000
  0.076941 -0.044296  0.059538      2.000000
 -0.038952  0.022148  0.019443      2.000000
  0.038310  0.022148  0.046173      2.000000
  0.076941  0.000000  0.059538      2.000000
  0.115573 -0.022148  0.072903      2.000000
 -0.000321  0.044296  0.032808      2.000000
  0.076941  0.044296  0.059538      2.000000
  0.115573  0.022148  0.072903      2.000000
  0.154204  0.000000  0.086269      2.000000
  0.038310  0.066444  0.046173      2.000000
 -0.038952 -0.022148  0.019443      2.000000
 -0.000321 -0.044296  0.032808      2.000000
  0.038310 -0.066444  0.046173      2.000000
 -0.077584  0.000000  0.006077      2.000000
 -0.000642  0.000000  0.065616      2.000000
  0.037989 -0.022148  0.078981      2.000000
  0.076620 -0.044296  0.092346      2.000000
 -0.039274  0.022148  0.052250      2.000000
  0.037989  0.022148  0.078981      2.000000
  0.076620  0.000000  0.092346      2.000000
  0.115251 -0.022148  0.105711      2.000000
 -0.000642  0.044296  0.065616      2.000000
  0.076620  0.044296  0.092346      2.000000
  0.115251  0.022148  0.105711      2.000000
  0.153883  0.000000  0.119076      2.000000
  0.037989  0.066444  0.078981      2.000000
 -0.039274 -0.022148  0.052250      2.000000
 -0.000642 -0.044296  0.065616      2.000000
  0.037989 -0.066444  0.078981      2.000000
 -0.077905  0.000000  0.038885      2.000000
 
 
 Subroutine IBZKPT_HF returns following result:
 ==============================================
 
 Found     80 k-points in 1st BZ
 the following     80 k-points will be used (e.g. in the exchange kernel)
 Following reciprocal coordinates:   # in IRBZ
  0.000000  0.000000  0.000000       1 t-inv F
  0.250000  0.000000  0.000000       2 t-inv F
  0.500000  0.000000  0.000000       3 t-inv F
  0.000000  0.250000  0.000000       4 t-inv F
  0.250000  0.250000  0.000000       5 t-inv F
  0.500000  0.250000 -0.000000       6 t-inv F
 -0.250000  0.250000  0.000000       7 t-inv F
  0.000000  0.500000  0.000000       8 t-inv F
  0.250000  0.500000 -0.000000       9 t-inv F
  0.500000  0.500000  0.000000      10 t-inv F
 -0.000000 -0.000000  0.200000      11 t-inv F
  0.250000  0.000000  0.200000      12 t-inv F
  0.500000  0.000000  0.200000      13 t-inv F
 -0.250000 -0.000000  0.200000      14 t-inv F
  0.000000  0.250000  0.200000      15 t-inv F
  0.250000  0.250000  0.200000      16 t-inv F
  0.500000  0.250000  0.200000      17 t-inv F
 -0.250000  0.250000  0.200000      18 t-inv F
  0.000000  0.500000  0.200000      19 t-inv F
  0.250000  0.500000  0.200000      20 t-inv F
  0.500000  0.500000  0.200000      21 t-inv F
 -0.250000  0.500000  0.200000      22 t-inv F
 -0.000000 -0.250000  0.200000      23 t-inv F
  0.250000 -0.250000  0.200000      24 t-inv F
  0.500000 -0.250000  0.200000      25 t-inv F
 -0.250000 -0.250000  0.200000      26 t-inv F
 -0.000000 -0.000000  0.400000      27 t-inv F
  0.250000  0.000000  0.400000      28 t-inv F
  0.500000  0.000000  0.400000      29 t-inv F
 -0.250000  0.000000  0.400000      30 t-inv F
  0.000000  0.250000  0.400000      31 t-inv F
  0.250000  0.250000  0.400000      32 t-inv F
  0.500000  0.250000  0.400000      33 t-inv F
 -0.250000  0.250000  0.400000      34 t-inv F
  0.000000  0.500000  0.400000      35 t-inv F
  0.250000  0.500000  0.400000      36 t-inv F
  0.500000  0.500000  0.400000      37 t-inv F
 -0.250000  0.500000  0.400000      38 t-inv F
  0.000000 -0.250000  0.400000      39 t-inv F
  0.250000 -0.250000  0.400000      40 t-inv F
  0.500000 -0.250000  0.400000      41 t-inv F
 -0.250000 -0.250000  0.400000      42 t-inv F
 -0.250000 -0.000000 -0.000000       2 t-inv T
 -0.000000 -0.250000 -0.000000       4 t-inv T
 -0.250000 -0.250000  0.000000       5 t-inv T
 -0.500000 -0.250000  0.000000       6 t-inv T
  0.250000 -0.250000  0.000000       7 t-inv T
 -0.250000 -0.500000  0.000000       9 t-inv T
  0.000000  0.000000 -0.200000      11 t-inv T
 -0.250000 -0.000000 -0.200000      12 t-inv T
 -0.500000 -0.000000 -0.200000      13 t-inv T
  0.250000  0.000000 -0.200000      14 t-inv T
 -0.000000 -0.250000 -0.200000      15 t-inv T
 -0.250000 -0.250000 -0.200000      16 t-inv T
 -0.500000 -0.250000 -0.200000      17 t-inv T
  0.250000 -0.250000 -0.200000      18 t-inv T
 -0.000000 -0.500000 -0.200000      19 t-inv T
 -0.250000 -0.500000 -0.200000      20 t-inv T
 -0.500000 -0.500000 -0.200000      21 t-inv T
  0.250000 -0.500000 -0.200000      22 t-inv T
  0.000000  0.250000 -0.200000      23 t-inv T
 -0.250000  0.250000 -0.200000      24 t-inv T
 -0.500000  0.250000 -0.200000      25 t-inv T
  0.250000  0.250000 -0.200000      26 t-inv T
  0.000000  0.000000 -0.400000      27 t-inv T
 -0.250000 -0.000000 -0.400000      28 t-inv T
 -0.500000 -0.000000 -0.400000      29 t-inv T
  0.250000 -0.000000 -0.400000      30 t-inv T
 -0.000000 -0.250000 -0.400000      31 t-inv T
 -0.250000 -0.250000 -0.400000      32 t-inv T
 -0.500000 -0.250000 -0.400000      33 t-inv T
  0.250000 -0.250000 -0.400000      34 t-inv T
 -0.000000 -0.500000 -0.400000      35 t-inv T
 -0.250000 -0.500000 -0.400000      36 t-inv T
 -0.500000 -0.500000 -0.400000      37 t-inv T
  0.250000 -0.500000 -0.400000      38 t-inv T
 -0.000000  0.250000 -0.400000      39 t-inv T
 -0.250000  0.250000 -0.400000      40 t-inv T
 -0.500000  0.250000 -0.400000      41 t-inv T
  0.250000  0.250000 -0.400000      42 t-inv T


--------------------------------------------------------------------------------------------------------




 Dimension of arrays:
   k-points           NKPTS =     42   k-points in BZ     NKDIM =     80   number of bands    NBANDS=     80
   number of dos      NEDOS =    301   number of ions     NIONS =     12
   non local maximal  LDIM  =      6   non local SUM 2l+1 LMDIM =     18
   total plane-waves  NPLWV =  32768
   max r-space proj   IRMAX =      1   max aug-charges    IRDMAX=   8224
   dimension x,y,z NGX =    32 NGY =   32 NGZ =   32
   dimension x,y,z NGXF=    64 NGYF=   64 NGZF=   64
   support grid    NGXF=    64 NGYF=   64 NGZF=   64
   ions per type =               4   2   6
 NGX,Y,Z   is equivalent  to a cutoff of   8.18,  8.18,  8.27 a.u.
 NGXF,Y,Z  is equivalent  to a cutoff of  16.37, 16.37, 16.55 a.u.


 I would recommend the setting:
   dimension x,y,z NGX =    32 NGY =   32 NGZ =   31
 SYSTEM =  CGS                                     
 POSCAR =  Cu Ge S                                 

 Startparameter for this run:
   NWRITE =      2    write-flag & timer
   PREC   = normal    normal or accurate (medium, high low for compatibility)
   ISTART =      1    job   : 0-new  1-cont  2-samecut
   ICHARG =      0    charge: 1-file 2-atom 10-const
   ISPIN  =      1    spin polarized calculation?
   LNONCOLLINEAR =      F non collinear calculations
   LSORBIT =      F    spin-orbit coupling
   INIWAV =      1    electr: 0-lowe 1-rand  2-diag
   LASPH  =      F    aspherical Exc in radial PAW
   METAGGA=      F    non-selfconsistent MetaGGA calc.

 Electronic Relaxation 1
   ENCUT  =  400.0 eV  29.40 Ry    5.42 a.u.  10.60 10.60 10.48*2*pi/ulx,y,z
   ENINI  =  400.0     initial cutoff
   ENAUG  =  758.2 eV  augmentation charge cutoff
   NELM   =     60;   NELMIN=  2; NELMDL=  0     # of ELM steps 
   EDIFF  = 0.1E-04   stopping-criterion for ELM
   LREAL  =      F    real-space projection
   NLSPLINE    = F    spline interpolate recip. space projectors
   LCOMPAT=      F    compatible to vasp.4.4
   GGA_COMPAT  = T    GGA compatible to vasp.4.4-vasp.4.6
   LMAXPAW     = -100 max onsite density
   LMAXMIX     =    2 max onsite mixed and CHGCAR
   VOSKOWN=      0    Vosko Wilk Nusair interpolation
   ROPT   =    0.00000   0.00000   0.00000
 Ionic relaxation
   EDIFFG = 0.1E-03   stopping-criterion for IOM
   NSW    =      0    number of steps for IOM
   NBLOCK =      1;   KBLOCK =      1    inner block; outer block 
   IBRION =     -1    ionic relax: 0-MD 1-quasi-New 2-CG
   NFREE  =      0    steps in history (QN), initial steepest desc. (CG)
   ISIF   =      0    stress and relaxation
   IWAVPR =     10    prediction:  0-non 1-charg 2-wave 3-comb
   ISYM   =      3    0-nonsym 1-usesym 2-fastsym
   LCORR  =      T    Harris-Foulkes like correction to forces

   POTIM  = 0.5000    time-step for ionic-motion
   TEIN   =    0.0    initial temperature
   TEBEG  =    0.0;   TEEND  =   0.0 temperature during run
   SMASS  =  -3.00    Nose mass-parameter (am)
   estimated Nose-frequenzy (Omega)   =  0.10E-29 period in steps =****** mass=  -0.966E-27a.u.
   SCALEE = 1.0000    scale energy and forces
   NPACO  =    256;   APACO  = 16.0  distance and # of slots for P.C.
   PSTRESS=    0.0 pullay stress

  Mass of Ions in am
   POMASS =  63.55 72.61 32.07
  Ionic Valenz
   ZVAL   =  17.00  4.00  6.00
  Atomic Wigner-Seitz radii
   RWIGS  =  -1.00 -1.00 -1.00
  virtual crystal weights 
   VCA    =   1.00  1.00  1.00
   NELECT =     112.0000    total number of electrons
   NUPDOWN=      -1.0000    fix difference up-down

 DOS related values:
   EMIN   =  10.00;   EMAX   =-10.00  energy-range for DOS
   EFERMI =   0.00
   ISMEAR =     1;   SIGMA  =   0.10  broadening in eV -4-tet -1-fermi 0-gaus

 Electronic relaxation 2 (details)
   IALGO  =     53    algorithm
   LDIAG  =      T    sub-space diagonalisation (order eigenvalues)
   LSUBROT=      T    optimize rotation matrix (better conditioning)
   TURBO    =      0    0=normal 1=particle mesh
   IRESTART =      0    0=no restart 2=restart with 2 vectors
   NREBOOT  =      0    no. of reboots
   NMIN     =      0    reboot dimension
   EREF     =   0.00    reference energy to select bands
   IMIX   =      4    mixing-type and parameters
     AMIX     =   0.40;   BMIX     =  1.00
     AMIX_MAG =   1.60;   BMIX_MAG =  1.00
     AMIN     =   0.10
     WC   =   100.;   INIMIX=   1;  MIXPRE=   1;  MAXMIX= -45

 Intra band minimization:
   WEIMIN = 0.0000     energy-eigenvalue tresh-hold
   EBREAK =  0.31E-07  absolut break condition
   DEPER  =   0.30     relativ break condition  

   TIME   =   0.40     timestep for ELM

  volume/ion in A,a.u.               =      18.49       124.79
  Fermi-wavevector in a.u.,A,eV,Ry     =   1.303450  2.463163 23.116052  1.698982
  Thomas-Fermi vector in A             =   2.434451
 
 Write flags
   LWAVE  =      T    write WAVECAR
   LCHARG =      T    write CHGCAR
   LVTOT  =      F    write LOCPOT, total local potential
   LVHAR  =      F    write LOCPOT, Hartree potential only
   LELF   =      F    write electronic localiz. function (ELF)
   LORBIT =      0    0 simple, 1 ext, 2 COOP (PROOUT)


 Dipole corrections
   LMONO  =      F    monopole corrections only (constant potential shift)
   LDIPOL =      F    correct potential (dipole corrections)
   IDIPOL =      0    1-x, 2-y, 3-z, 4-all directions 
   EPSILON=  1.0000000 bulk dielectric constant

 Exchange correlation treatment:
   GGA     =    PE    GGA type
   LEXCH   =     8    internal setting for exchange type
   VOSKOWN=      0    Vosko Wilk Nusair interpolation
   EXXOEP  =     0    0=HF, 1=EXX-LHF (local Hartree Fock) 2=EXX OEP
   LHFCALC =     T    Hartree Fock is set to
   LSYMGRAD=     F    symmetrize gradient (conserves proper symmetry)
   PRECFOCK=fast      Normal, Fast or Accurate (Low or Medium for compatibility)
   LRHFCALC=     F    long range Hartree Fock
   LRSCOR  =     F    long range correlation only (use DFT for short range part)
   LTHOMAS =     F    Thomas Fermi screening in HF
   LMODELHF=     F    short range full HF, long range fraction AEXX
   ENCUT4O =  -1.0   cutoff for four orbital integrals eV
   LMAXFOCK=     4    L truncation for augmentation on plane wave grid
   LMAXFOCKAE=  -1    L truncation for all-electron charge restoration on plane wave grid
   NMAXFOCKAE=   1    number of basis functions for all-electron charge restoration
   LFOCKAEDFT=     F  apply the AE augmentation even for DFT
   NKREDX  =     1    reduce k-point grid by
   NKREDY  =     1    reduce k-point grid by
   NKREDZ  =     1    reduce k-point grid by
   SHIFTRED=     F    shift reduced grid of Gamma
   HFKIDENT=     F    idential grid for each k-point
   ODDONLY =     F    use only odd q-grid points
   EVENONLY=     F    use only even q-grid points
   HFALPHA =   -1.0000 decay constant for conv. correction
   MCALPHA =    0.0000 extent of test-charge in conv. correction in multipole expansion
   AEXX    =    0.2500 exact exchange contribution
   HFSCREEN=    0.2000 screening length (either q_TF or 0.3 A-1)
   HFSCREENC=   0.2000 screening length for correlation (either q_TF or 0.3 A-1)
   HFRCUT  =    0.0000 spherical cutoff for potential kernel
   ALDAX   =    0.7500 LDA exchange part
   AGGAX   =    0.7500 GGA exchange part
   ALDAC   =    1.0000 LDA correlation
   AGGAC   =    1.0000 GGA correlation
   NBANDSGWLOW=     1    first orbital included in HF term
 Linear response parameters
   LEPSILON=     F    determine dielectric tensor
   LRPA    =     F    only Hartree local field effects (RPA)
   LNABLA  =     F    use nabla operator in PAW spheres
   LVEL    =     F    velocity operator in full k-point grid
   LINTERFAST=   F  fast interpolation
   KINTER  =     0    interpolate to denser k-point grid
   CSHIFT  =0.1000    complex shift for real part using Kramers Kronig
   OMEGAMAX=  -1.0    maximum frequency
   DEG_THRESHOLD= 0.2000000E-02 threshold for treating states as degnerate
   RTIME   =    0.100 relaxation time in fs

 Orbital magnetization related:
   ORBITALMAG=     F  switch on orbital magnetization
   LCHIMAG   =     F  perturbation theory with respect to B field
   DQ        =  0.001000  dq finite difference perturbation B field



--------------------------------------------------------------------------------------------------------


 Static calculation
 charge density and potential will be updated during run
 non-spin polarized calculation
 Conjugate gradient for all bands, subspace preconditioning
 perform sub-space diagonalisation
    before iterative eigenvector-optimisation
 modified Broyden-mixing scheme, WC =      100.0
 initial mixing is a Kerker type mixing with AMIX =  0.4000 and BMIX =      1.0000
 Hartree-type preconditioning will be used
 using additional bands           24
 reciprocal scheme for non local part
 use partial core corrections
 no Harris-corrections to forces 
 use gradient corrections 
 use of overlap-Matrix (Vanderbilt PP)
 Methfessel and Paxton  Order N= 1 SIGMA  =   0.10


--------------------------------------------------------------------------------------------------------


  energy-cutoff  :      400.00
  volume of cell :      221.90
      direct lattice vectors                 reciprocal lattice vectors
     3.224796000 -5.643830000  0.031572000     0.154525165 -0.088592321  0.053460880
     3.224796000  5.643830000  0.031572000     0.154525165  0.088592321  0.053460880
    -2.101946000  0.000000000  6.075537000    -0.001606004  0.000000000  0.164038877

  length of vectors
     6.500240234  6.500240234  6.428866683     0.185969598  0.185969598  0.164046738


 
 old parameters found on file WAVECAR:
  energy-cutoff  :      400.00
  volume of cell :      222.35
      direct lattice vectors                 reciprocal lattice vectors
     3.227235519 -5.642745207  0.030241751     0.154430495 -0.088609353  0.053450002
     3.227235519  5.642745207  0.030241751     0.154430495  0.088609353  0.053450002
    -2.106135241  0.000000000  6.085154262    -0.001534965  0.000000000  0.163803104

  length of vectors

 
 k-points in units of 2pi/SCALE and weight: pymatgen 4.7.6+ generated KPOINTS with g
   0.00000000  0.00000000  0.00000000       0.013
   0.03863129 -0.02214808  0.01336522       0.025
   0.07726258 -0.04429616  0.02673044       0.013
   0.03863129  0.02214808  0.01336522       0.025
   0.07726258  0.00000000  0.02673044       0.025
   0.11589387 -0.02214808  0.04009566       0.025
   0.00000000  0.04429616  0.00000000       0.025
   0.07726258  0.04429616  0.02673044       0.013
   0.11589387  0.02214808  0.04009566       0.025
   0.15452516  0.00000000  0.05346088       0.013
  -0.00032120  0.00000000  0.03280778       0.025
   0.03831009 -0.02214808  0.04617300       0.025
   0.07694138 -0.04429616  0.05953822       0.025
  -0.03895249  0.02214808  0.01944256       0.025
   0.03831009  0.02214808  0.04617300       0.025
   0.07694138  0.00000000  0.05953822       0.025
   0.11557267 -0.02214808  0.07290344       0.025
  -0.00032120  0.04429616  0.03280778       0.025
   0.07694138  0.04429616  0.05953822       0.025
   0.11557267  0.02214808  0.07290344       0.025
   0.15420396  0.00000000  0.08626865       0.025
   0.03831009  0.06644424  0.04617300       0.025
  -0.03895249 -0.02214808  0.01944256       0.025
  -0.00032120 -0.04429616  0.03280778       0.025
   0.03831009 -0.06644424  0.04617300       0.025
  -0.07758378  0.00000000  0.00607734       0.025
  -0.00064240  0.00000000  0.06561555       0.025
   0.03798889 -0.02214808  0.07898077       0.025
   0.07662018 -0.04429616  0.09234599       0.025
  -0.03927369  0.02214808  0.05225033       0.025
   0.03798889  0.02214808  0.07898077       0.025
   0.07662018  0.00000000  0.09234599       0.025
   0.11525147 -0.02214808  0.10571121       0.025
  -0.00064240  0.04429616  0.06561555       0.025
   0.07662018  0.04429616  0.09234599       0.025
   0.11525147  0.02214808  0.10571121       0.025
   0.15388276  0.00000000  0.11907643       0.025
   0.03798889  0.06644424  0.07898077       0.025
  -0.03927369 -0.02214808  0.05225033       0.025
  -0.00064240 -0.04429616  0.06561555       0.025
   0.03798889 -0.06644424  0.07898077       0.025
  -0.07790498  0.00000000  0.03888511       0.025
 
 k-points in reciprocal lattice and weights: pymatgen 4.7.6+ generated KPOINTS with g
   0.00000000  0.00000000  0.00000000       0.013
   0.25000000  0.00000000  0.00000000       0.025
   0.50000000  0.00000000  0.00000000       0.013
   0.00000000  0.25000000  0.00000000       0.025
   0.25000000  0.25000000  0.00000000       0.025
   0.50000000  0.25000000 -0.00000000       0.025
  -0.25000000  0.25000000  0.00000000       0.025
   0.00000000  0.50000000  0.00000000       0.013
   0.25000000  0.50000000 -0.00000000       0.025
   0.50000000  0.50000000  0.00000000       0.013
  -0.00000000 -0.00000000  0.20000000       0.025
   0.25000000  0.00000000  0.20000000       0.025
   0.50000000  0.00000000  0.20000000       0.025
  -0.25000000 -0.00000000  0.20000000       0.025
   0.00000000  0.25000000  0.20000000       0.025
   0.25000000  0.25000000  0.20000000       0.025
   0.50000000  0.25000000  0.20000000       0.025
  -0.25000000  0.25000000  0.20000000       0.025
   0.00000000  0.50000000  0.20000000       0.025
   0.25000000  0.50000000  0.20000000       0.025
   0.50000000  0.50000000  0.20000000       0.025
  -0.25000000  0.50000000  0.20000000       0.025
  -0.00000000 -0.25000000  0.20000000       0.025
   0.25000000 -0.25000000  0.20000000       0.025
   0.50000000 -0.25000000  0.20000000       0.025
  -0.25000000 -0.25000000  0.20000000       0.025
  -0.00000000 -0.00000000  0.40000000       0.025
   0.25000000  0.00000000  0.40000000       0.025
   0.50000000  0.00000000  0.40000000       0.025
  -0.25000000  0.00000000  0.40000000       0.025
   0.00000000  0.25000000  0.40000000       0.025
   0.25000000  0.25000000  0.40000000       0.025
   0.50000000  0.25000000  0.40000000       0.025
  -0.25000000  0.25000000  0.40000000       0.025
   0.00000000  0.50000000  0.40000000       0.025
   0.25000000  0.50000000  0.40000000       0.025
   0.50000000  0.50000000  0.40000000       0.025
  -0.25000000  0.50000000  0.40000000       0.025
   0.00000000 -0.25000000  0.40000000       0.025
   0.25000000 -0.25000000  0.40000000       0.025
   0.50000000 -0.25000000  0.40000000       0.025
  -0.25000000 -0.25000000  0.40000000       0.025
 
 position of ions in fractional coordinates (direct lattice) 
   0.61998140  0.12117100  0.11953300
   0.12117100  0.61844300  0.61953300
   0.96295700  0.79032200  0.11881300
   0.79032200  0.96295700  0.61881300
   0.43973200  0.26728100  0.59904700
   0.26728100  0.43973200  0.09904700
   0.07949800  0.91167500  0.49736300
   0.57140300  0.41236400  0.98018400
   0.73711100  0.25006200  0.49504900
   0.41236400  0.57140300  0.48018400
   0.91167500  0.07949800  0.99736300
   0.25006200  0.73711100  0.99504900
 
 position of ions in cartesian coordinates  (Angst):
   2.13881340 -2.81520113  0.74962683
   1.08287936  2.80651863  3.78734676
   5.40422860 -0.97432259  0.77720730
   4.35325560  0.97432259  3.81497580
   1.02080825 -0.97328413  3.66185403
   2.07178125  0.97328413  0.62408553
   2.15090056  4.69666552  3.05304062
   1.11215405 -0.89758908  5.98620365
   2.14286528 -2.74882176  3.03885554
   2.16312705  0.89758908  2.94843515
   1.09992756 -4.69666552  6.09080912
   1.09189228  2.74882176  6.07662404
 


--------------------------------------------------------------------------------------------------------


 k-point  1 :   0.0000 0.0000 0.0000  plane waves:    4051
 k-point  2 :   0.2500 0.0000 0.0000  plane waves:    4032
 k-point  3 :   0.5000 0.0000 0.0000  plane waves:    4030
 k-point  4 :   0.0000 0.2500 0.0000  plane waves:    4032
 k-point  5 :   0.2500 0.2500 0.0000  plane waves:    4038
 k-point  6 :   0.5000 0.2500-0.0000  plane waves:    4037
 k-point  7 :  -0.2500 0.2500 0.0000  plane waves:    4042
 k-point  8 :   0.0000 0.5000 0.0000  plane waves:    4030
 k-point  9 :   0.2500 0.5000-0.0000  plane waves:    4037
 k-point 10 :   0.5000 0.5000 0.0000  plane waves:    4026
 k-point 11 :  -0.0000-0.0000 0.2000  plane waves:    4046
 k-point 12 :   0.2500 0.0000 0.2000  plane waves:    4034
 k-point 13 :   0.5000 0.0000 0.2000  plane waves:    4025
 k-point 14 :  -0.2500-0.0000 0.2000  plane waves:    4044
 k-point 15 :   0.0000 0.2500 0.2000  plane waves:    4034
 k-point 16 :   0.2500 0.2500 0.2000  plane waves:    4017
 k-point 17 :   0.5000 0.2500 0.2000  plane waves:    4039
 k-point 18 :  -0.2500 0.2500 0.2000  plane waves:    4042
 k-point 19 :   0.0000 0.5000 0.2000  plane waves:    4025
 k-point 20 :   0.2500 0.5000 0.2000  plane waves:    4039
 k-point 21 :   0.5000 0.5000 0.2000  plane waves:    4030
 k-point 22 :  -0.2500 0.5000 0.2000  plane waves:    4030
 k-point 23 :  -0.0000-0.2500 0.2000  plane waves:    4044
 k-point 24 :   0.2500-0.2500 0.2000  plane waves:    4042
 k-point 25 :   0.5000-0.2500 0.2000  plane waves:    4030
 k-point 26 :  -0.2500-0.2500 0.2000  plane waves:    4020
 k-point 27 :  -0.0000-0.0000 0.4000  plane waves:    4027
 k-point 28 :   0.2500 0.0000 0.4000  plane waves:    4034
 k-point 29 :   0.5000 0.0000 0.4000  plane waves:    4013
 k-point 30 :  -0.2500 0.0000 0.4000  plane waves:    4042
 k-point 31 :   0.0000 0.2500 0.4000  plane waves:    4034
 k-point 32 :   0.2500 0.2500 0.4000  plane waves:    4009
 k-point 33 :   0.5000 0.2500 0.4000  plane waves:    4026
 k-point 34 :  -0.2500 0.2500 0.4000  plane waves:    4027
 k-point 35 :   0.0000 0.5000 0.4000  plane waves:    4013
 k-point 36 :   0.2500 0.5000 0.4000  plane waves:    4026
 k-point 37 :   0.5000 0.5000 0.4000  plane waves:    4037
 k-point 38 :  -0.2500 0.5000 0.4000  plane waves:    4022
 k-point 39 :   0.0000-0.2500 0.4000  plane waves:    4042
 k-point 40 :   0.2500-0.2500 0.4000  plane waves:    4027
 k-point 41 :   0.5000-0.2500 0.4000  plane waves:    4022
 k-point 42 :  -0.2500-0.2500 0.4000  plane waves:    4015

 maximum and minimum number of plane-waves per node :      4051     4009

 maximum number of plane-waves:      4051
 maximum index in each direction: 
   IXMAX=   10   IYMAX=   10   IZMAX=   10
   IXMIN=  -11   IYMIN=  -11   IZMIN=  -10

 WARNING: aliasing errors must be expected set NGX to  44 to avoid them
 WARNING: aliasing errors must be expected set NGY to  44 to avoid them
 WARNING: aliasing errors must be expected set NGZ to  42 to avoid them
 aliasing errors are usually negligible using standard VASP settings
 and one can safely disregard these warnings

 serial   3D FFT for wavefunctions
 parallel 3D FFT for charge:
    minimum data exchange during FFTs selected (reduces bandwidth)


 FFT grid for exact exchange (Hartree Fock) 
  NGX = 24; NGY = 24; NGZ = 24

 
 Radii for the augmentation spheres in the non-local exchange
 for species   1 augmentation radius   1.120 (default was   0.830)
       energy cutoff for augmentation   1600.0
 for species   2 augmentation radius   1.570 (default was   1.163)
       energy cutoff for augmentation   1600.0
 for species   3 augmentation radius   1.034 (default was   0.970)
       energy cutoff for augmentation   1600.0

 total amount of memory used by VASP on root node   151697. kBytes
========================================================================

   base      :      30000. kBytes
   nonl-proj :      74517. kBytes
   fftplans  :        702. kBytes
   grid      :       2400. kBytes
   one-center:        186. kBytes
   HF        :        194. kBytes
   nonlr-proj:       1122. kBytes
   wavefun   :      42576. kBytes
 
 Broyden mixing: mesh for mixing (old mesh)
   NGX = 21   NGY = 21   NGZ = 21
  (NGX  = 64   NGY  = 64   NGZ  = 64)
  gives a total of   9261 points

 charge density for first step will be calculated from the start-wavefunctions


--------------------------------------------------------------------------------------------------------


 Maximum index for augmentation-charges          485 (set IRDMAX)


--------------------------------------------------------------------------------------------------------


 initial charge from wavefunction
 First call to EWALD:  gamma=   0.293
 Maximum number of real-space cells 3x 3x 3
 Maximum number of reciprocal cells 3x 3x 3

 FEWALD executed in parallel
    FEWALD:  cpu time    0.00: real time    0.00


----------------------------------------- Iteration    1(   1)  ---------------------------------------


    POTLOK:  cpu time    0.05: real time    0.05
    SETDIJ:  cpu time    2.06: real time    2.07
 
    SUBROT:  cpu time    0.72: real time    0.72
    SUBROT:  cpu time    0.33: real time    0.33
    SUBROT:  cpu time    0.33: real time    0.33
    --------------------------------------------
    SUBRT+:  cpu time    1.38: real time    1.41

 Broyden mixing:
  rms(total) = 0.29790E-01    rms(broyden)= 0.29774E-01
  rms(prec ) = 0.45172E-01
  weight for this iteration     100.00

 eigenvalues of (default mixing * dielectric matrix)
  average eigenvalue GAMMA=   1.7482
  1.0483  2.4481
 
    TRIAL :  cpu time  241.76: real time  241.65
    CORREC:  cpu time    0.00: real time    0.00
    CHARGE:  cpu time    0.05: real time    0.06
    --------------------------------------------
      LOOP:  cpu time  243.93: real time  243.83

 eigenvalue-minimisations  :     0
 total energy-change (2. order) : 0.7571991E+02  (-0.2136176E+03)
 number of electron     112.0001502 magnetization 
 augmentation part       38.9141140 magnetization 

 Free energy of the ion-electron system (eV)
  ---------------------------------------------------
  alpha Z        PSCENC =       339.31929130
  Ewald energy   TEWEN  =     -9063.86968040
  -1/2 Hartree   DENC   =     -8067.45644997
  -exchange  EXHF       =       327.43902235
  -V(xc)+E(xc)   XCENC  =       369.89302370
  PAW double counting   =     16957.88207770   -17450.62163322
  entropy T*S    EENTRO =        -0.00146280
  eigenvalues    EBANDS =     -1657.84942786
  atomic energy  EATOM  =     18320.98302006
  ---------------------------------------------------
  free energy    TOTEN  =        75.71990695 eV

  energy without entropy =       75.72136974  energy(sigma->0) =       75.72039454


--------------------------------------------------------------------------------------------------------




----------------------------------------- Iteration    1(   2)  ---------------------------------------


    POTLOK:  cpu time    0.05: real time    0.05
    SETDIJ:  cpu time    2.01: real time    2.01
 
    SUBROT:  cpu time    0.67: real time    0.67
    SUBROT:  cpu time    0.34: real time    0.34
    SUBROT:  cpu time    0.34: real time    0.35
    SUBROT:  cpu time    0.33: real time    0.33
    --------------------------------------------
    SUBRT+:  cpu time    1.69: real time    1.70

 Broyden mixing:
  rms(total) = 0.28240E-01    rms(broyden)= 0.28230E-01
  rms(prec ) = 0.51300E-01
  weight for this iteration     100.00

 eigenvalues of (default mixing * dielectric matrix)
  average eigenvalue GAMMA=   1.5368
  2.5357  1.2233  0.8514
 
    TRIAL :  cpu time  235.38: real time  235.18
    CORREC:  cpu time    0.00: real time    0.00
    CHARGE:  cpu time    0.06: real time    0.06
    --------------------------------------------
      LOOP:  cpu time  237.50: real time  237.36

 eigenvalue-minimisations  :     0
 total energy-change (2. order) :-0.8394542E+02  (-0.1472648E+03)
 number of electron     112.0001406 magnetization 
 augmentation part       35.4465448 magnetization 

 Free energy of the ion-electron system (eV)
  ---------------------------------------------------
  alpha Z        PSCENC =       339.31929130
  Ewald energy   TEWEN  =     -9063.86968040
  -1/2 Hartree   DENC   =     -8371.96489674
  -exchange  EXHF       =       338.96921814
  -V(xc)+E(xc)   XCENC  =       377.33879383
  PAW double counting   =     17433.66409788   -17972.93060957
  entropy T*S    EENTRO =        -0.00130894
  eigenvalues    EBANDS =     -1409.73328919
  atomic energy  EATOM  =     18320.98302006
  ---------------------------------------------------
  free energy    TOTEN  =        -8.22551749 eV

  energy without entropy =       -8.22420855  energy(sigma->0) =       -8.22508117


--------------------------------------------------------------------------------------------------------




----------------------------------------- Iteration    1(   3)  ---------------------------------------


    POTLOK:  cpu time    0.05: real time    0.05
    SETDIJ:  cpu time    1.98: real time    1.98
 
    SUBROT:  cpu time    0.71: real time    0.71
    SUBROT:  cpu time    0.34: real time    0.34
    SUBROT:  cpu time    0.35: real time    0.35
    SUBROT:  cpu time    0.33: real time    0.33
    --------------------------------------------
    SUBRT+:  cpu time    1.73: real time    1.74

 Broyden mixing:
  rms(total) = 0.28095E-01    rms(broyden)= 0.28084E-01
  rms(prec ) = 0.52388E-01
  weight for this iteration     100.00

 eigenvalues of (default mixing * dielectric matrix)
  average eigenvalue GAMMA=   1.7749
  1.0114  2.4990  1.8144
 
    TRIAL :  cpu time  238.00: real time  237.80
    CORREC:  cpu time    0.00: real time    0.00
    CHARGE:  cpu time    0.06: real time    0.06
    --------------------------------------------
      LOOP:  cpu time  240.10: real time  239.90

 eigenvalue-minimisations  :     0
 total energy-change (2. order) :-0.6739066E+01  (-0.2064628E+03)
 number of electron     112.0001533 magnetization 
 augmentation part       39.6913573 magnetization 

 Free energy of the ion-electron system (eV)
  ---------------------------------------------------
  alpha Z        PSCENC =       339.31929130
  Ewald energy   TEWEN  =     -9063.86968040
  -1/2 Hartree   DENC   =     -7476.30986983
  -exchange  EXHF       =       324.94527419
  -V(xc)+E(xc)   XCENC  =       357.35324498
  PAW double counting   =     15150.48552466   -15579.86171014
  entropy T*S    EENTRO =         0.00028149
  eigenvalues    EBANDS =     -2388.00836919
  atomic energy  EATOM  =     18320.98302006
  ---------------------------------------------------
  free energy    TOTEN  =       -14.96458330 eV

  energy without entropy =      -14.96486479  energy(sigma->0) =      -14.96467713


--------------------------------------------------------------------------------------------------------




----------------------------------------- Iteration    1(   4)  ---------------------------------------


    POTLOK:  cpu time    0.05: real time    0.05
    SETDIJ:  cpu time    2.07: real time    2.07
 
    SUBROT:  cpu time    0.71: real time    0.71
    SUBROT:  cpu time    0.33: real time    0.33
    SUBROT:  cpu time    0.35: real time    0.35
    SUBROT:  cpu time    0.32: real time    0.33
    SUBROT:  cpu time    0.37: real time    0.37
    --------------------------------------------
    SUBRT+:  cpu time    2.09: real time    2.10

 Broyden mixing:
  rms(total) = 0.12498E+00    rms(broyden)= 0.12478E+00
  rms(prec ) = 0.21989E+00
  weight for this iteration     100.00

 eigenvalues of (default mixing * dielectric matrix)
  average eigenvalue GAMMA=   1.2025
  2.5478  1.2534  0.6346  0.3742
 
    TRIAL :  cpu time  237.93: real time  237.73
    CORREC:  cpu time    0.00: real time    0.00
    CHARGE:  cpu time    0.06: real time    0.07
    --------------------------------------------
      LOOP:  cpu time  240.13: real time  239.93

 eigenvalue-minimisations  :     0
 total energy-change (2. order) :-0.7478954E+01  (-0.1078755E+03)
 number of electron     112.0001451 magnetization 
 augmentation part       37.2370596 magnetization 

 Free energy of the ion-electron system (eV)
  ---------------------------------------------------
  alpha Z        PSCENC =       339.31929130
  Ewald energy   TEWEN  =     -9063.86968040
  -1/2 Hartree   DENC   =     -8545.56775657
  -exchange  EXHF       =       343.01302680
  -V(xc)+E(xc)   XCENC  =       381.69100249
  PAW double counting   =     17640.04558939   -18221.09587171
  entropy T*S    EENTRO =         0.00035740
  eigenvalues    EBANDS =     -1216.96243978
  atomic energy  EATOM  =     18320.98302006
  ---------------------------------------------------
  free energy    TOTEN  =       -22.44353694 eV

  energy without entropy =      -22.44389434  energy(sigma->0) =      -22.44365607


--------------------------------------------------------------------------------------------------------




----------------------------------------- Iteration    1(   5)  ---------------------------------------


    POTLOK:  cpu time    0.05: real time    0.05
    SETDIJ:  cpu time    2.02: real time    2.01
 
    SUBROT:  cpu time    0.71: real time    0.71
    SUBROT:  cpu time    0.34: real time    0.34
    SUBROT:  cpu time    0.35: real time    0.35
    SUBROT:  cpu time    0.35: real time    0.35
    --------------------------------------------
    SUBRT+:  cpu time    1.75: real time    1.79

 Broyden mixing:
  rms(total) = 0.45918E-01    rms(broyden)= 0.45907E-01
  rms(prec ) = 0.93334E-01
  weight for this iteration     100.00

 eigenvalues of (default mixing * dielectric matrix)
  average eigenvalue GAMMA=   1.6803
  2.4611  0.9357  1.6441
 
    TRIAL :  cpu time  237.28: real time  237.10
    CORREC:  cpu time    0.00: real time    0.00
    CHARGE:  cpu time    0.05: real time    0.05
    --------------------------------------------
      LOOP:  cpu time  239.40: real time  239.23

 eigenvalue-minimisations  :     0
 total energy-change (2. order) :-0.3833361E+02  (-0.1510747E+02)
 number of electron     112.0001451 magnetization 
 augmentation part       37.2440099 magnetization 

 Free energy of the ion-electron system (eV)
  ---------------------------------------------------
  alpha Z        PSCENC =       339.31929130
  Ewald energy   TEWEN  =     -9063.86968040
  -1/2 Hartree   DENC   =     -8006.92839796
  -exchange  EXHF       =       336.34248295
  -V(xc)+E(xc)   XCENC  =       368.35522986
  PAW double counting   =     15867.96395382   -16337.29268867
  entropy T*S    EENTRO =         0.00062237
  eigenvalues    EBANDS =     -1885.65071507
  atomic energy  EATOM  =     18320.98302006
  ---------------------------------------------------
  free energy    TOTEN  =       -60.77714670 eV

  energy without entropy =      -60.77776907  energy(sigma->0) =      -60.77735416


--------------------------------------------------------------------------------------------------------




----------------------------------------- Iteration    1(   6)  ---------------------------------------


    POTLOK:  cpu time    0.06: real time    0.06
    SETDIJ:  cpu time    2.11: real time    2.11
 
    SUBROT:  cpu time    0.69: real time    0.69
    SUBROT:  cpu time    0.35: real time    0.36
    SUBROT:  cpu time    0.35: real time    0.35
    SUBROT:  cpu time    0.36: real time    0.36
    --------------------------------------------
    SUBRT+:  cpu time    1.76: real time    1.78

 Broyden mixing:
  rms(total) = 0.28203E-02    rms(broyden)= 0.28196E-02
  rms(prec ) = 0.46343E-02
  weight for this iteration     100.00

 eigenvalues of (default mixing * dielectric matrix)
  average eigenvalue GAMMA=   1.8204
  1.0000  1.9316  2.5296
 
    TRIAL :  cpu time  234.45: real time  234.27
    CORREC:  cpu time    0.00: real time    0.00
    CHARGE:  cpu time    0.05: real time    0.05
    --------------------------------------------
      LOOP:  cpu time  236.67: real time  236.50

 eigenvalue-minimisations  :     0
 total energy-change (2. order) :-0.5131909E+01  (-0.8225729E+01)
 number of electron     112.0001481 magnetization 
 augmentation part       38.2290208 magnetization 

 Free energy of the ion-electron system (eV)
  ---------------------------------------------------
  alpha Z        PSCENC =       339.31929130
  Ewald energy   TEWEN  =     -9063.86968040
  -1/2 Hartree   DENC   =     -8001.18544919
  -exchange  EXHF       =       337.12308856
  -V(xc)+E(xc)   XCENC  =       368.76856226
  PAW double counting   =     15771.46252123   -16240.58008307
  entropy T*S    EENTRO =         0.00064947
  eigenvalues    EBANDS =     -1897.93094833
  atomic energy  EATOM  =     18320.98302006
  ---------------------------------------------------
  free energy    TOTEN  =       -65.90905522 eV

  energy without entropy =      -65.90970469  energy(sigma->0) =      -65.90927171


--------------------------------------------------------------------------------------------------------




----------------------------------------- Iteration    1(   7)  ---------------------------------------


    POTLOK:  cpu time    0.06: real time    0.06
    SETDIJ:  cpu time    2.02: real time    2.02
 
    SUBROT:  cpu time    0.72: real time    0.72
    SUBROT:  cpu time    0.33: real time    0.33
    SUBROT:  cpu time    0.34: real time    0.34
    SUBROT:  cpu time    0.33: real time    0.33
    --------------------------------------------
    SUBRT+:  cpu time    1.71: real time    1.74

 Broyden mixing:
  rms(total) = 0.13268E-01    rms(broyden)= 0.13264E-01
  rms(prec ) = 0.23581E-01
  weight for this iteration     100.00

 eigenvalues of (default mixing * dielectric matrix)
  average eigenvalue GAMMA=   1.6307
  2.5044  0.8905  1.4971
 
    TRIAL :  cpu time  237.18: real time  237.00
    CORREC:  cpu time    0.00: real time    0.00
    CHARGE:  cpu time    0.05: real time    0.05
    --------------------------------------------
      LOOP:  cpu time  239.32: real time  239.15

 eigenvalue-minimisations  :     0
 total energy-change (2. order) :-0.1549082E+01  (-0.4164537E+01)
 number of electron     112.0001464 magnetization 
 augmentation part       37.7038030 magnetization 

 Free energy of the ion-electron system (eV)
  ---------------------------------------------------
  alpha Z        PSCENC =       339.31929130
  Ewald energy   TEWEN  =     -9063.86968040
  -1/2 Hartree   DENC   =     -8244.31828106
  -exchange  EXHF       =       341.61651877
  -V(xc)+E(xc)   XCENC  =       374.56465674
  PAW double counting   =     16209.29493285   -16712.79999822
  entropy T*S    EENTRO =         0.00043402
  eigenvalues    EBANDS =     -1632.24924648
  atomic energy  EATOM  =     18320.98302006
  ---------------------------------------------------
  free energy    TOTEN  =       -67.45813697 eV

  energy without entropy =      -67.45857100  energy(sigma->0) =      -67.45828165


--------------------------------------------------------------------------------------------------------




----------------------------------------- Iteration    1(   8)  ---------------------------------------


    POTLOK:  cpu time    0.06: real time    0.06
    SETDIJ:  cpu time    2.09: real time    2.09
 
    SUBROT:  cpu time    0.66: real time    0.66
    SUBROT:  cpu time    0.34: real time    0.34
    SUBROT:  cpu time    0.34: real time    0.34
    SUBROT:  cpu time    0.35: real time    0.35
    --------------------------------------------
    SUBRT+:  cpu time    1.69: real time    1.70

 Broyden mixing:
  rms(total) = 0.84467E-02    rms(broyden)= 0.84442E-02
  rms(prec ) = 0.14187E-01
  weight for this iteration     100.00

 eigenvalues of (default mixing * dielectric matrix)
  average eigenvalue GAMMA=   1.6758
  2.4561  0.9463  1.6251
 
    TRIAL :  cpu time  237.11: real time  236.91
    CORREC:  cpu time    0.00: real time    0.00
    CHARGE:  cpu time    0.08: real time    0.08
    --------------------------------------------
      LOOP:  cpu time  239.34: real time  239.15

 eigenvalue-minimisations  :     0
 total energy-change (2. order) :-0.1623132E+01  (-0.7764550E+00)
 number of electron     112.0001465 magnetization 
 augmentation part       37.7240761 magnetization 

 Free energy of the ion-electron system (eV)
  ---------------------------------------------------
  alpha Z        PSCENC =       339.31929130
  Ewald energy   TEWEN  =     -9063.86968040
  -1/2 Hartree   DENC   =     -8117.04503338
  -exchange  EXHF       =       339.50890279
  -V(xc)+E(xc)   XCENC  =       371.37033526
  PAW double counting   =     15916.29047780   -16397.62876235
  entropy T*S    EENTRO =         0.00073426
  eigenvalues    EBANDS =     -1778.01025413
  atomic energy  EATOM  =     18320.98302006
  ---------------------------------------------------
  free energy    TOTEN  =       -69.08126902 eV

  energy without entropy =      -69.08200328  energy(sigma->0) =      -69.08151378


--------------------------------------------------------------------------------------------------------




----------------------------------------- Iteration    1(   9)  ---------------------------------------


    POTLOK:  cpu time    0.06: real time    0.06
    SETDIJ:  cpu time    2.03: real time    2.03
 
    SUBROT:  cpu time    0.75: real time    0.75
    SUBROT:  cpu time    0.35: real time    0.35
    SUBROT:  cpu time    0.38: real time    0.38
    SUBROT:  cpu time    0.37: real time    0.37
    --------------------------------------------
    SUBRT+:  cpu time    1.85: real time    1.88

 Broyden mixing:
  rms(total) = 0.51817E-03    rms(broyden)= 0.51755E-03
  rms(prec ) = 0.82435E-03
  weight for this iteration     100.00

 eigenvalues of (default mixing * dielectric matrix)
  average eigenvalue GAMMA=   1.6673
  2.5161  0.9981  1.4878
 
    TRIAL :  cpu time  236.29: real time  236.11
    CORREC:  cpu time    0.00: real time    0.00
    CHARGE:  cpu time    0.06: real time    0.06
    --------------------------------------------
      LOOP:  cpu time  238.44: real time  238.27

 eigenvalue-minimisations  :     0
 total energy-change (2. order) :-0.3127874E+00  (-0.3885144E+00)
 number of electron     112.0001471 magnetization 
 augmentation part       37.9060001 magnetization 

 Free energy of the ion-electron system (eV)
  ---------------------------------------------------
  alpha Z        PSCENC =       339.31929130
  Ewald energy   TEWEN  =     -9063.86968040
  -1/2 Hartree   DENC   =     -8125.07894146
  -exchange  EXHF       =       339.59179873
  -V(xc)+E(xc)   XCENC  =       371.44232391
  PAW double counting   =     15913.14690508   -16394.40277601
  entropy T*S    EENTRO =         0.00086530
  eigenvalues    EBANDS =     -1770.52673185
  atomic energy  EATOM  =     18320.98302006
  ---------------------------------------------------
  free energy    TOTEN  =       -69.39405637 eV

  energy without entropy =      -69.39492167  energy(sigma->0) =      -69.39434481


--------------------------------------------------------------------------------------------------------




----------------------------------------- Iteration    1(  10)  ---------------------------------------


    POTLOK:  cpu time    0.06: real time    0.07
    SETDIJ:  cpu time    2.10: real time    2.10
 
    SUBROT:  cpu time    0.72: real time    0.72
    SUBROT:  cpu time    0.36: real time    0.36
    SUBROT:  cpu time    0.36: real time    0.36
    SUBROT:  cpu time    0.36: real time    0.36
    --------------------------------------------
    SUBRT+:  cpu time    1.80: real time    1.81

 Broyden mixing:
  rms(total) = 0.23175E-02    rms(broyden)= 0.23170E-02
  rms(prec ) = 0.38826E-02
  weight for this iteration     100.00

 eigenvalues of (default mixing * dielectric matrix)
  average eigenvalue GAMMA=   1.6779
  2.4765  0.9876  1.5694
 
    TRIAL :  cpu time  252.74: real time  252.52
    CORREC:  cpu time    0.00: real time    0.00
    CHARGE:  cpu time    0.07: real time    0.07
    --------------------------------------------
      LOOP:  cpu time  254.97: real time  254.76

 eigenvalue-minimisations  :     0
 total energy-change (2. order) :-0.1043398E+00  (-0.1533639E+00)
 number of electron     112.0001468 magnetization 
 augmentation part       37.8183354 magnetization 

 Free energy of the ion-electron system (eV)
  ---------------------------------------------------
  alpha Z        PSCENC =       339.31929130
  Ewald energy   TEWEN  =     -9063.86968040
  -1/2 Hartree   DENC   =     -8172.64906989
  -exchange  EXHF       =       340.40018033
  -V(xc)+E(xc)   XCENC  =       372.54408422
  PAW double counting   =     15995.13322861   -16483.13169836
  entropy T*S    EENTRO =         0.00071213
  eigenvalues    EBANDS =     -1718.22861732
  atomic energy  EATOM  =     18320.98302006
  ---------------------------------------------------
  free energy    TOTEN  =       -69.49839616 eV

  energy without entropy =      -69.49910829  energy(sigma->0) =      -69.49863354


--------------------------------------------------------------------------------------------------------




----------------------------------------- Iteration    1(  11)  ---------------------------------------


    POTLOK:  cpu time    0.05: real time    0.05
    SETDIJ:  cpu time    2.10: real time    2.10
 
    SUBROT:  cpu time    0.74: real time    0.74
    SUBROT:  cpu time    0.38: real time    0.38
    SUBROT:  cpu time    0.37: real time    0.37
    SUBROT:  cpu time    0.38: real time    0.38
    --------------------------------------------
    SUBRT+:  cpu time    1.87: real time    1.90

 Broyden mixing:
  rms(total) = 0.78813E-03    rms(broyden)= 0.78788E-03
  rms(prec ) = 0.15775E-02
  weight for this iteration     100.00

 eigenvalues of (default mixing * dielectric matrix)
  average eigenvalue GAMMA=   1.6741
  2.4940  0.9844  1.5440
 
    TRIAL :  cpu time  251.83: real time  251.64
    CORREC:  cpu time    0.00: real time    0.00
    CHARGE:  cpu time    0.09: real time    0.09
    --------------------------------------------
      LOOP:  cpu time  254.08: real time  253.89

 eigenvalue-minimisations  :     0
 total energy-change (2. order) :-0.7003099E-01  (-0.3700507E-01)
 number of electron     112.0001467 magnetization 
 augmentation part       37.7856090 magnetization 

 Free energy of the ion-electron system (eV)
  ---------------------------------------------------
  alpha Z        PSCENC =       339.31929130
  Ewald energy   TEWEN  =     -9063.86968040
  -1/2 Hartree   DENC   =     -8151.15701805
  -exchange  EXHF       =       340.07032598
  -V(xc)+E(xc)   XCENC  =       372.06797300
  PAW double counting   =     15942.70577626   -16427.64031697
  entropy T*S    EENTRO =         0.00060379
  eigenvalues    EBANDS =     -1742.04851045
  atomic energy  EATOM  =     18320.98302006
  ---------------------------------------------------
  free energy    TOTEN  =       -69.56842715 eV

  energy without entropy =      -69.56903094  energy(sigma->0) =      -69.56862841


--------------------------------------------------------------------------------------------------------




----------------------------------------- Iteration    1(  12)  ---------------------------------------


    POTLOK:  cpu time    0.06: real time    0.06
    SETDIJ:  cpu time    2.10: real time    2.10
 
    SUBROT:  cpu time    0.80: real time    0.80
    SUBROT:  cpu time    0.40: real time    0.40
    SUBROT:  cpu time    0.38: real time    0.38
    SUBROT:  cpu time    0.41: real time    0.40
    --------------------------------------------
    SUBRT+:  cpu time    1.98: real time    2.04

 Broyden mixing:
  rms(total) = 0.21102E-03    rms(broyden)= 0.21093E-03
  rms(prec ) = 0.45782E-03
  weight for this iteration     100.00

 eigenvalues of (default mixing * dielectric matrix)
  average eigenvalue GAMMA=   1.6240
  2.5082  0.9983  1.3655
 
    TRIAL :  cpu time  251.06: real time  250.89
    CORREC:  cpu time    0.00: real time    0.00
    CHARGE:  cpu time    0.08: real time    0.08
    --------------------------------------------
      LOOP:  cpu time  253.30: real time  253.15

 eigenvalue-minimisations  :     0
 total energy-change (2. order) :-0.1239680E-01  (-0.2298434E-01)
 number of electron     112.0001468 magnetization 
 augmentation part       37.8260691 magnetization 

 Free energy of the ion-electron system (eV)
  ---------------------------------------------------
  alpha Z        PSCENC =       339.31929130
  Ewald energy   TEWEN  =     -9063.86968040
  -1/2 Hartree   DENC   =     -8142.80180066
  -exchange  EXHF       =       339.95466677
  -V(xc)+E(xc)   XCENC  =       371.89343168
  PAW double counting   =     15920.78627766   -16404.63762953
  entropy T*S    EENTRO =         0.00055323
  eigenvalues    EBANDS =     -1751.20900460
  atomic energy  EATOM  =     18320.98302006
  ---------------------------------------------------
  free energy    TOTEN  =       -69.58082395 eV

  energy without entropy =      -69.58137718  energy(sigma->0) =      -69.58100836


--------------------------------------------------------------------------------------------------------




----------------------------------------- Iteration    1(  13)  ---------------------------------------


    POTLOK:  cpu time    0.06: real time    0.06
    SETDIJ:  cpu time    2.18: real time    2.18
 
    SUBROT:  cpu time    0.76: real time    0.76
    SUBROT:  cpu time    0.37: real time    0.37
    SUBROT:  cpu time    0.38: real time    0.38
    SUBROT:  cpu time    0.38: real time    0.38
    --------------------------------------------
    SUBRT+:  cpu time    1.90: real time    1.91

 Broyden mixing:
  rms(total) = 0.55836E-03    rms(broyden)= 0.55825E-03
  rms(prec ) = 0.94854E-03
  weight for this iteration     100.00

 eigenvalues of (default mixing * dielectric matrix)
  average eigenvalue GAMMA=   1.6907
  2.4811  0.9960  1.5951
 
    TRIAL :  cpu time  245.79: real time  245.58
    CORREC:  cpu time    0.00: real time    0.00
    CHARGE:  cpu time    0.09: real time    0.09
    --------------------------------------------
      LOOP:  cpu time  248.12: real time  247.92

 eigenvalue-minimisations  :     0
 total energy-change (2. order) :-0.9719013E-02  (-0.5152572E-02)
 number of electron     112.0001468 magnetization 
 augmentation part       37.8299507 magnetization 

 Free energy of the ion-electron system (eV)
  ---------------------------------------------------
  alpha Z        PSCENC =       339.31929130
  Ewald energy   TEWEN  =     -9063.86968040
  -1/2 Hartree   DENC   =     -8152.73016864
  -exchange  EXHF       =       340.12754495
  -V(xc)+E(xc)   XCENC  =       372.12813955
  PAW double counting   =     15936.95113214   -16422.30189249
  entropy T*S    EENTRO =         0.00054128
  eigenvalues    EBANDS =     -1740.19848266
  atomic energy  EATOM  =     18320.98302006
  ---------------------------------------------------
  free energy    TOTEN  =       -69.59054296 eV

  energy without entropy =      -69.59108424  energy(sigma->0) =      -69.59072339


--------------------------------------------------------------------------------------------------------




----------------------------------------- Iteration    1(  14)  ---------------------------------------


    POTLOK:  cpu time    0.06: real time    0.06
    SETDIJ:  cpu time    2.10: real time    2.09
 
    SUBROT:  cpu time    0.77: real time    0.77
    SUBROT:  cpu time    0.37: real time    0.37
    SUBROT:  cpu time    0.37: real time    0.37
    SUBROT:  cpu time    0.36: real time    0.36
    --------------------------------------------
    SUBRT+:  cpu time    1.88: real time    1.89

 Broyden mixing:
  rms(total) = 0.70020E-04    rms(broyden)= 0.70005E-04
  rms(prec ) = 0.14270E-03
  weight for this iteration     100.00

 eigenvalues of (default mixing * dielectric matrix)
  average eigenvalue GAMMA=   1.6400
  2.5192  0.9887  1.4122
 
    TRIAL :  cpu time  250.07: real time  249.86
    CORREC:  cpu time    0.00: real time    0.00
    CHARGE:  cpu time    0.09: real time    0.09
    --------------------------------------------
      LOOP:  cpu time  252.32: real time  252.11

 eigenvalue-minimisations  :     0
 total energy-change (2. order) :-0.2477789E-02  (-0.3806230E-02)
 number of electron     112.0001468 magnetization 
 augmentation part       37.8123432 magnetization 

 Free energy of the ion-electron system (eV)
  ---------------------------------------------------
  alpha Z        PSCENC =       339.31929130
  Ewald energy   TEWEN  =     -9063.86968040
  -1/2 Hartree   DENC   =     -8153.25289132
  -exchange  EXHF       =       340.12538270
  -V(xc)+E(xc)   XCENC  =       372.13735179
  PAW double counting   =     15934.83874442   -16420.35393219
  entropy T*S    EENTRO =         0.00055911
  eigenvalues    EBANDS =     -1739.52084839
  atomic energy  EATOM  =     18320.98302006
  ---------------------------------------------------
  free energy    TOTEN  =       -69.59302075 eV

  energy without entropy =      -69.59357986  energy(sigma->0) =      -69.59320712


--------------------------------------------------------------------------------------------------------




----------------------------------------- Iteration    1(  15)  ---------------------------------------


    POTLOK:  cpu time    0.06: real time    0.06
    SETDIJ:  cpu time    2.10: real time    2.10
 
    SUBROT:  cpu time    0.75: real time    0.75
    SUBROT:  cpu time    0.38: real time    0.38
    SUBROT:  cpu time    0.37: real time    0.38
    SUBROT:  cpu time    0.38: real time    0.38
    --------------------------------------------
    SUBRT+:  cpu time    1.89: real time    1.91

 Broyden mixing:
  rms(total) = 0.19416E-03    rms(broyden)= 0.19410E-03
  rms(prec ) = 0.33054E-03
  weight for this iteration     100.00

 eigenvalues of (default mixing * dielectric matrix)
  average eigenvalue GAMMA=   1.6749
  2.4736  0.9885  1.5626
 
    TRIAL :  cpu time  250.09: real time  249.88
    CORREC:  cpu time    0.00: real time    0.00
    CHARGE:  cpu time    0.08: real time    0.08
    --------------------------------------------
      LOOP:  cpu time  252.33: real time  252.13

 eigenvalue-minimisations  :     0
 total energy-change (2. order) :-0.1519095E-02  (-0.1045875E-02)
 number of electron     112.0001468 magnetization 
 augmentation part       37.8166656 magnetization 

 Free energy of the ion-electron system (eV)
  ---------------------------------------------------
  alpha Z        PSCENC =       339.31929130
  Ewald energy   TEWEN  =     -9063.86968040
  -1/2 Hartree   DENC   =     -8148.52162268
  -exchange  EXHF       =       340.03588836
  -V(xc)+E(xc)   XCENC  =       372.02571854
  PAW double counting   =     15922.73028975   -16407.63366410
  entropy T*S    EENTRO =         0.00057160
  eigenvalues    EBANDS =     -1744.66433979
  atomic energy  EATOM  =     18320.98302006
  ---------------------------------------------------
  free energy    TOTEN  =       -69.59453984 eV

  energy without entropy =      -69.59511144  energy(sigma->0) =      -69.59473038


--------------------------------------------------------------------------------------------------------




----------------------------------------- Iteration    1(  16)  ---------------------------------------


    POTLOK:  cpu time    0.05: real time    0.05
    SETDIJ:  cpu time    2.10: real time    2.10
 
    SUBROT:  cpu time    0.79: real time    0.79
    SUBROT:  cpu time    0.38: real time    0.38
    SUBROT:  cpu time    0.38: real time    0.38
    SUBROT:  cpu time    0.40: real time    0.40
    --------------------------------------------
    SUBRT+:  cpu time    1.94: real time    1.99

 Broyden mixing:
  rms(total) = 0.85292E-04    rms(broyden)= 0.85274E-04
  rms(prec ) = 0.14190E-03
  weight for this iteration     100.00

 eigenvalues of (default mixing * dielectric matrix)
  average eigenvalue GAMMA=   1.6893
  2.4857  0.9898  1.5925
 
    TRIAL :  cpu time  247.35: real time  247.18
    CORREC:  cpu time    0.00: real time    0.00
    CHARGE:  cpu time    0.09: real time    0.09
    --------------------------------------------
      LOOP:  cpu time  249.59: real time  249.42

 eigenvalue-minimisations  :     0
 total energy-change (2. order) :-0.5771266E-03  (-0.4136590E-03)
 number of electron     112.0001468 magnetization 
 augmentation part       37.8214970 magnetization 

 Free energy of the ion-electron system (eV)
  ---------------------------------------------------
  alpha Z        PSCENC =       339.31929130
  Ewald energy   TEWEN  =     -9063.86968040
  -1/2 Hartree   DENC   =     -8149.63816211
  -exchange  EXHF       =       340.05442913
  -V(xc)+E(xc)   XCENC  =       372.05290474
  PAW double counting   =     15923.55837628   -16408.65081993
  entropy T*S    EENTRO =         0.00057206
  eigenvalues    EBANDS =     -1743.40504764
  atomic energy  EATOM  =     18320.98302006
  ---------------------------------------------------
  free energy    TOTEN  =       -69.59511697 eV

[...]
     22      -2.2879      2.00000
     23      -1.9506      2.00000
     24      -1.6176      2.00000
     25      -1.2200      2.00000
     26      -1.0018      2.00000
     27      -0.9753      2.00000
     28      -0.7157      2.00000
     29      -0.5491      2.00000
     30      -0.3912      2.00000
     31      -0.2878      2.00000
     32      -0.2002      2.00000
     33      -0.1819      2.00000
     34      -0.1388      2.00000
     35      -0.0198      2.00000
     36       0.0187      2.00000
     37       1.2959      2.00000
     38       1.3078      2.00000
     39       1.3698      2.00000
     40       1.4114      2.00000
     41       1.4513      2.00000
     42       1.4670      2.00000
     43       1.5064      2.00000
     44       1.5495      2.00000
     45       1.7639      2.00000
     46       1.8938      2.00000
     47       1.9845      2.00000
     48       2.1531      2.00000
     49       2.3710      2.00000
     50       2.5755      2.00000
     51       2.7047      2.00000
     52       2.9099      2.00000
     53       3.0126      2.00000
     54       3.2197      2.00000
     55       3.4001      2.00000
     56       3.6561      2.00000
     57       6.3794     -0.00000
     58       6.5184     -0.00000
     59       7.7193      0.00000
     60       7.9018      0.00000
     61       8.2963      0.00000
     62       8.5737      0.00000
     63       9.3268      0.00000
     64       9.8443      0.00000
     65      10.0202      0.00000
     66      10.3536      0.00000
     67      10.5848      0.00000
     68      10.7863      0.00000
     69      10.9767      0.00000
     70      11.2568      0.00000
     71      11.3070      0.00000
     72      11.7046      0.00000
     73      12.2508      0.00000
     74      12.4646      0.00000
     75      13.0938      0.00000
     76      13.4607      0.00000
     77      13.7949      0.00000
     78      14.6679      0.00000
     79      14.9942      0.00000
     80      15.7266      0.00000

 k-point  40 :       0.2500   -0.2500    0.4000
  band No.  band energies     occupation 
      1     -68.6459      2.00000
      2     -68.6448      2.00000
      3     -68.6338      2.00000
      4     -68.6335      2.00000
      5     -68.6128      2.00000
      6     -68.6128      2.00000
      7     -68.5955      2.00000
      8     -68.5950      2.00000
      9     -68.5781      2.00000
     10     -68.5777      2.00000
     11     -68.5611      2.00000
     12     -68.5608      2.00000
     13     -12.2193      2.00000
     14     -11.8185      2.00000
     15     -10.8210      2.00000
     16     -10.6713      2.00000
     17     -10.3504      2.00000
     18     -10.2787      2.00000
     19      -5.4462      2.00000
     20      -5.1163      2.00000
     21      -2.4292      2.00000
     22      -2.1559      2.00000
     23      -2.0159      2.00000
     24      -1.5236      2.00000
     25      -1.3556      2.00000
     26      -1.1632      2.00000
     27      -0.9396      2.00000
     28      -0.8165      2.00000
     29      -0.5847      2.00000
     30      -0.5320      2.00000
     31      -0.2774      2.00000
     32      -0.2373      2.00000
     33      -0.1352      2.00000
     34      -0.0935      2.00000
     35      -0.0249      2.00000
     36       0.0323      2.00000
     37       1.3134      2.00000
     38       1.3459      2.00000
     39       1.3631      2.00000
     40       1.3984      2.00000
     41       1.4511      2.00000
     42       1.4823      2.00000
     43       1.4991      2.00000
     44       1.5647      2.00000
     45       1.8019      2.00000
     46       1.8468      2.00000
     47       1.9613      2.00000
     48       2.1083      2.00000
     49       2.2957      2.00000
     50       2.5302      2.00000
     51       2.6393      2.00000
     52       2.7689      2.00000
     53       2.9285      2.00000
     54       3.1613      2.00000
     55       3.3043      2.00000
     56       3.5742      2.00000
     57       6.5625     -0.00000
     58       6.7181     -0.00000
     59       7.9647      0.00000
     60       8.0022      0.00000
     61       8.7300      0.00000
     62       9.0921      0.00000
     63       9.4611      0.00000
     64       9.8270      0.00000
     65      10.2965      0.00000
     66      10.3676      0.00000
     67      10.7781      0.00000
     68      10.8497      0.00000
     69      11.1150      0.00000
     70      11.2702      0.00000
     71      11.3685      0.00000
     72      11.6179      0.00000
     73      12.0476      0.00000
     74      12.2934      0.00000
     75      12.6508      0.00000
     76      13.1261      0.00000
     77      13.2873      0.00000
     78      14.2454      0.00000
     79      15.6293      0.00000
     80      15.8277      0.00000

 k-point  41 :       0.5000   -0.2500    0.4000
  band No.  band energies     occupation 
      1     -68.6458      2.00000
      2     -68.6447      2.00000
      3     -68.6336      2.00000
      4     -68.6334      2.00000
      5     -68.6128      2.00000
      6     -68.6128      2.00000
      7     -68.5953      2.00000
      8     -68.5948      2.00000
      9     -68.5781      2.00000
     10     -68.5777      2.00000
     11     -68.5610      2.00000
     12     -68.5608      2.00000
     13     -12.0786      2.00000
     14     -11.7756      2.00000
     15     -10.8476      2.00000
     16     -10.7580      2.00000
     17     -10.5330      2.00000
     18     -10.3178      2.00000
     19      -5.4188      2.00000
     20      -4.9399      2.00000
     21      -2.4011      2.00000
     22      -2.1307      2.00000
     23      -1.8626      2.00000
     24      -1.7242      2.00000
     25      -1.4452      2.00000
     26      -1.1217      2.00000
     27      -0.8833      2.00000
     28      -0.6487      2.00000
     29      -0.6009      2.00000
     30      -0.4483      2.00000
     31      -0.2617      2.00000
     32      -0.1815      2.00000
     33      -0.1196      2.00000
     34      -0.0539      2.00000
     35      -0.0236      2.00000
     36       0.0195      2.00000
     37       1.2622      2.00000
     38       1.3156      2.00000
     39       1.4097      2.00000
     40       1.4375      2.00000
     41       1.4843      2.00000
     42       1.4927      2.00000
     43       1.5152      2.00000
     44       1.5747      2.00000
     45       1.7606      2.00000
     46       1.8421      2.00000
     47       2.1182      2.00000
     48       2.1857      2.00000
     49       2.3646      2.00000
     50       2.4602      2.00000
     51       2.4928      2.00000
     52       2.6960      2.00000
     53       2.8226      2.00000
     54       3.0888      2.00000
     55       3.2903      2.00000
     56       3.5244      2.00000
     57       6.4966     -0.00000
     58       6.5854     -0.00000
     59       7.4539      0.00000
     60       7.7195      0.00000
     61       8.5885      0.00000
     62       8.7457      0.00000
     63       9.3011      0.00000
     64       9.5328      0.00000
     65       9.9521      0.00000
     66      10.1858      0.00000
     67      10.6786      0.00000
     68      11.1136      0.00000
     69      11.2488      0.00000
     70      11.5680      0.00000
     71      11.7065      0.00000
     72      11.8962      0.00000
     73      12.2983      0.00000
     74      12.6586      0.00000
     75      13.0109      0.00000
     76      13.2329      0.00000
     77      13.6704      0.00000
     78      14.0757      0.00000
     79      14.4011      0.00000
     80      16.5501      0.00000

 k-point  42 :      -0.2500   -0.2500    0.4000
  band No.  band energies     occupation 
      1     -68.6460      2.00000
      2     -68.6449      2.00000
      3     -68.6336      2.00000
      4     -68.6333      2.00000
      5     -68.6127      2.00000
      6     -68.6128      2.00000
      7     -68.5952      2.00000
      8     -68.5950      2.00000
      9     -68.5781      2.00000
     10     -68.5777      2.00000
     11     -68.5611      2.00000
     12     -68.5610      2.00000
     13     -12.1780      2.00000
     14     -11.7051      2.00000
     15     -10.7178      2.00000
     16     -10.6916      2.00000
     17     -10.5892      2.00000
     18     -10.3924      2.00000
     19      -5.4455      2.00000
     20      -5.0718      2.00000
     21      -2.5091      2.00000
     22      -2.3808      2.00000
     23      -1.9616      2.00000
     24      -1.3680      2.00000
     25      -1.3300      2.00000
     26      -1.0548      2.00000
     27      -0.8293      2.00000
     28      -0.7674      2.00000
     29      -0.4242      2.00000
     30      -0.3386      2.00000
     31      -0.2720      2.00000
     32      -0.2094      2.00000
     33      -0.1441      2.00000
     34      -0.1385      2.00000
     35      -0.0134      2.00000
     36       0.0268      2.00000
     37       1.1730      2.00000
     38       1.3712      2.00000
     39       1.3971      2.00000
     40       1.4531      2.00000
     41       1.4543      2.00000
     42       1.4982      2.00000
     43       1.5174      2.00000
     44       1.5502      2.00000
     45       1.7431      2.00000
     46       1.8201      2.00000
     47       1.9766      2.00000
     48       2.2289      2.00000
     49       2.3970      2.00000
     50       2.6122      2.00000
     51       2.6558      2.00000
     52       2.9150      2.00000
     53       3.0690      2.00000
     54       3.1174      2.00000
     55       3.2855      2.00000
     56       3.5830      2.00000
     57       6.2908     -0.00000
     58       6.3799     -0.00000
     59       7.3574      0.00000
     60       7.5236      0.00000
     61       8.3096      0.00000
     62       8.3339      0.00000
     63       9.1057      0.00000
     64       9.3595      0.00000
     65       9.7168      0.00000
     66       9.9487      0.00000
     67      10.5259      0.00000
     68      10.9890      0.00000
     69      11.4240      0.00000
     70      11.5640      0.00000
     71      12.0174      0.00000
     72      12.2854      0.00000
     73      12.4295      0.00000
     74      12.4760      0.00000
     75      13.0346      0.00000
     76      13.1503      0.00000
     77      14.1378      0.00000
     78      14.4368      0.00000
     79      15.1654      0.00000
     80      15.8689      0.00000


--------------------------------------------------------------------------------------------------------


 soft charge-density along one line, spin component           1
         0         1         2         3         4         5         6         7         8         9
 total charge-density along one line
 
 pseudopotential strength for first ion, spin component:           1
-65.424   0.002   0.006   7.363   0.000  -0.003   0.001   0.007
  0.002 -65.393  -0.005   0.000   7.353   0.001  -0.001  -0.024
  0.006  -0.005 -65.383  -0.003   0.001   7.349  -0.037  -0.001
  7.363   0.000  -0.003   6.111   0.000   0.000   0.002  -0.003
  0.000   7.353   0.001   0.000   6.113  -0.000   0.000   0.007
 -0.003   0.001   7.349   0.000  -0.000   6.114   0.009   0.000
  0.001  -0.001  -0.037   0.002   0.000   0.009  -2.979  -0.003
  0.007  -0.024  -0.001  -0.003   0.007   0.000  -0.003  -2.985
  0.022   0.042   0.009  -0.005  -0.008  -0.002  -0.004   0.008
 -0.001  -0.017   0.007   0.000   0.004  -0.003   0.004   0.008
  0.026  -0.000  -0.034  -0.007   0.000   0.007  -0.000   0.008
  0.002  -0.001  -0.036   0.002   0.000   0.008  -3.626  -0.003
  0.007  -0.024  -0.001  -0.003   0.007   0.000  -0.003  -3.631
  0.022   0.042   0.009  -0.005  -0.008  -0.002  -0.004   0.008
 -0.001  -0.016   0.007   0.000   0.004  -0.003   0.004   0.008
  0.025  -0.000  -0.034  -0.007   0.000   0.006  -0.000   0.007
  0.007  -0.005   0.004  -0.001   0.001  -0.001  -0.002   0.001
  0.015  -0.010   0.009  -0.002   0.001  -0.002  -0.004   0.002
 total augmentation occupancy for first ion, spin component:           1
  2.000  -0.000   0.000  -0.003  -0.000   0.000   0.007  -0.005   0.000  -0.001  -0.005  -0.007   0.005  -0.001   0.001   0.005
 -0.000   2.000  -0.000  -0.000  -0.003   0.000  -0.001   0.005   0.004   0.001  -0.000   0.001  -0.005  -0.005  -0.001   0.000
  0.000  -0.000   2.000   0.000   0.000  -0.003  -0.000  -0.000  -0.001  -0.005  -0.004   0.000   0.000   0.001   0.005   0.005
 -0.003  -0.000   0.000   0.096   0.007  -0.006  -0.336   0.233  -0.077   0.008   0.014   0.283  -0.198   0.061  -0.004  -0.007
 -0.000  -0.003   0.000   0.007   0.102   0.001   0.016  -0.047  -0.444   0.015   0.010  -0.010   0.036   0.376  -0.010  -0.008
  0.000   0.000  -0.003  -0.006   0.001   0.099   0.100  -0.006  -0.011   0.234   0.353  -0.079   0.005   0.009  -0.201  -0.296
  0.007  -0.001  -0.000  -0.336   0.016   0.100   4.007  -0.797   0.105   0.220   0.148  -1.737   0.749  -0.101  -0.188  -0.143
 -0.005   0.005  -0.000   0.233  -0.047  -0.006  -0.797   3.517   0.296   0.147   0.293   0.749  -1.277  -0.220  -0.101  -0.199
  0.000   0.004  -0.001  -0.077  -0.444  -0.011   0.105   0.296   4.690  -0.046  -0.108  -0.101  -0.220  -2.399   0.039   0.077
 -0.001   0.001  -0.005   0.008   0.015   0.234   0.220   0.147  -0.046   3.633   0.794  -0.188  -0.101   0.039  -1.350  -0.755
 -0.005  -0.000  -0.004   0.014   0.010   0.353   0.148   0.293  -0.108   0.794   3.998  -0.143  -0.199   0.077  -0.755  -1.744
 -0.007   0.001   0.000   0.283  -0.010  -0.079  -1.737   0.749  -0.101  -0.188  -0.143   1.444  -0.702   0.097   0.162   0.138
  0.005  -0.005   0.000  -0.198   0.036   0.005   0.749  -1.277  -0.220  -0.101  -0.199  -0.702   1.014   0.158   0.064   0.123
 -0.001  -0.005   0.001   0.061   0.376   0.009  -0.101  -0.220  -2.399   0.039   0.077   0.097   0.158   2.083  -0.033  -0.053
  0.001  -0.001   0.005  -0.004  -0.010  -0.201  -0.188  -0.101   0.039  -1.350  -0.755   0.162   0.064  -0.033   1.054   0.716
  0.005   0.000   0.005  -0.007  -0.008  -0.296  -0.143  -0.199   0.077  -0.755  -1.744   0.138   0.123  -0.053   0.716   1.463
 -0.025   0.016  -0.013  -0.023   0.011  -0.004   0.109  -0.120  -0.020   0.005   0.038  -0.087   0.104   0.032  -0.003  -0.006
  0.012  -0.008   0.006   0.002  -0.000  -0.000  -0.011   0.005  -0.004   0.003  -0.021   0.007  -0.007  -0.002  -0.000   0.004


------------------------ aborting loop because EDIFF is reached ----------------------------------------


    FORLOC:  cpu time    0.01: real time    0.01
    FORHF :  cpu time  453.82: real time  453.41
    FORNL :  cpu time    0.40: real time    0.40
    FORCOR:  cpu time    2.18: real time    2.17

 VOLUME and BASIS-vectors are now :
 -----------------------------------------------------------------------------
  energy-cutoff  :      400.00
  volume of cell :      221.90
      direct lattice vectors                 reciprocal lattice vectors
     3.224796000 -5.643830000  0.031572000     0.154525165 -0.088592321  0.053460880
     3.224796000  5.643830000  0.031572000     0.154525165  0.088592321  0.053460880
    -2.101946000  0.000000000  6.075537000    -0.001606004  0.000000000  0.164038877

  length of vectors
     6.500240234  6.500240234  6.428866683     0.185969598  0.185969598  0.164046738


 FORCES acting on ions:
    Electron-Ion                     Ewald-Force                    Non-Local-Force
 -----------------------------------------------------------------------------------------------
   -.120E+02 -.101E+03 0.117E+02   0.108E+02 0.981E+02 -.101E+02   0.946E+00 0.221E+01 -.140E+01
   -.149E+02 0.966E+02 0.108E+02   0.137E+02 -.942E+02 -.916E+01   0.103E+01 -.210E+01 -.142E+01
   0.244E+02 -.154E+02 0.440E+01   -.212E+02 0.152E+02 -.313E+01   -.284E+01 0.172E+00 -.112E+01
   0.256E+02 0.174E+02 0.474E+01   -.223E+02 -.172E+02 -.348E+01   -.285E+01 -.162E+00 -.110E+01
   -.110E+02 -.314E+02 -.110E+02   0.103E+02 0.301E+02 0.991E+01   0.682E+00 0.134E+01 0.113E+01
   -.112E+02 0.319E+02 -.112E+02   0.105E+02 -.306E+02 0.100E+02   0.684E+00 -.134E+01 0.113E+01
   -.136E+03 -.965E+01 -.493E+02   0.132E+03 0.969E+01 0.484E+02   0.278E+01 -.261E-01 0.733E+00
   0.715E+02 -.125E+03 0.957E+02   -.698E+02 0.123E+03 -.936E+02   -.155E+01 0.230E+01 -.188E+01
   0.671E+02 -.134E+03 -.496E+02   -.656E+02 0.131E+03 0.487E+02   -.135E+01 0.218E+01 0.875E+00
   0.702E+02 0.126E+03 0.962E+02   -.685E+02 -.124E+03 -.942E+02   -.156E+01 -.229E+01 -.188E+01
   -.137E+03 0.120E+02 -.482E+02   0.133E+03 -.121E+02 0.473E+02   0.278E+01 0.322E-01 0.739E+00
   0.655E+02 0.132E+03 -.502E+02   -.640E+02 -.129E+03 0.493E+02   -.136E+01 -.218E+01 0.871E+00
 -----------------------------------------------------------------------------------------------
   0.284E+01 -.118E+00 0.374E+01   -.107E-12 0.568E-13 -.853E-13   -.260E+01 0.135E+00 -.330E+01
 
 
 POSITION                                       TOTAL-FORCE (eV/Angst)
 -----------------------------------------------------------------------------------
      2.13881     -2.81520      0.74963        -0.032802      0.042046      0.003159
      1.08288      2.80652      3.78735        -0.002485      0.000531      0.000794
      5.40423     -0.97432      0.77721         0.002110     -0.003307      0.001041
      4.35326      0.97432      3.81498         0.003317     -0.001135     -0.000114
      1.02081     -0.97328      3.66185         0.001475      0.006163      0.003141
      2.07178      0.97328      0.62409         0.008533     -0.007350      0.001445
      2.15090      4.69667      3.05304         0.002116      0.001074     -0.001766
      1.11215     -0.89759      5.98620        -0.004430     -0.012346      0.000842
      2.14287     -2.74882      3.03886        -0.000703      0.001023     -0.001109
      2.16313      0.89759      2.94844        -0.000415      0.006413      0.000564
      1.09993     -4.69667      6.09081         0.012514     -0.028681     -0.014092
      1.09189      2.74882      6.07662         0.010768     -0.004431      0.006097
 -----------------------------------------------------------------------------------
    total drift:                               -0.064387      0.009650     -0.055605


--------------------------------------------------------------------------------------------------------



  FREE ENERGIE OF THE ION-ELECTRON SYSTEM (eV)
  ---------------------------------------------------
  free  energy   TOTEN  =       -69.59546817 eV

  energy  without entropy=      -69.59603411  energy(sigma->0) =      -69.59565682
 


--------------------------------------------------------------------------------------------------------


    POTLOK:  cpu time    2.17: real time    2.17


--------------------------------------------------------------------------------------------------------


 writing wavefunctions
     LOOP+:  cpu time 5628.48: real time 5625.79
    4ORBIT:  cpu time    0.00: real time    0.00

 total amount of memory used by VASP on root node   155705. kBytes
========================================================================

   base      :      30000. kBytes
   nonl-proj :      74517. kBytes
   fftplans  :        702. kBytes
   grid      :       2400. kBytes
   one-center:        186. kBytes
   HF        :        194. kBytes
   nonlr-proj:       5130. kBytes
   wavefun   :      42576. kBytes
 
  
  
 General timing and accounting informations for this job:
 ========================================================
  
                  Total CPU time used (sec):     5666.152
                            User time (sec):     5662.825
                          System time (sec):        3.326
                         Elapsed time (sec):     5665.959
  
                   Maximum memory used (kb):      293928.
                   Average memory used (kb):           0.
  
                          Minor page faults:        77722
                          Major page faults:            0
                 Voluntary context switches:         6658
