   12   12    1    1
  0.1849176E+02  0.6500240E-09  0.6500240E-09  0.6428867E-09  0.5000000E-15
  1.000000000000000E-004
  CAR 
 CGS                                     
  112   42   80
 
  0.0000000E+00  0.0000000E+00  0.0000000E+00  0.1250000E-01
   1      -68.645936
   2      -68.641931
   3      -68.636893
   4      -68.633054
   5      -68.613206
   6      -68.609186
   7      -68.595467
   8      -68.592534
   9      -68.581358
  10      -68.577071
  11      -68.563980
  12      -68.559747
  13      -12.724575
  14      -11.129556
  15      -10.919886
  16      -10.605872
  17      -10.247233
  18      -10.228821
  19       -5.988308
  20       -4.985894
  21       -2.761676
  22       -2.210793
  23       -2.065810
  24       -1.922344
  25       -1.576890
  26       -0.981754
  27       -0.953430
  28       -0.685601
  29       -0.403653
  30       -0.276488
  31       -0.259051
  32       -0.235719
  33       -0.189070
  34       -0.156509
  35       -0.036652
  36        0.032507
  37        1.350620
  38        1.363120
  39        1.414649
  40        1.457081
  41        1.469930
  42        1.473836
  43        1.521083
  44        1.532141
  45        1.575548
  46        1.712145
  47        1.892700
  48        1.930407
  49        2.057009
  50        2.651866
  51        2.729519
  52        3.092551
  53        3.216836
  54        4.007343
  55        4.039169
  56        4.172717
  57        5.537264
  58        6.356672
  59        7.623638
  60        7.983970
  61        8.615063
  62        8.797202
  63        9.556859
  64        9.739323
  65        9.818817
  66       10.425926
  67       10.582637
  68       10.692157
  69       10.718816
  70       11.284599
  71       11.709926
  72       12.394618
  73       12.452692
  74       12.727950
  75       13.320412
  76       13.384329
  77       13.827576
  78       13.887360
  79       14.146924
  80       14.180734
 
  0.2500000E+00  0.7372575E-17  0.1387779E-16  0.2500000E-01
   1      -68.645890
   2      -68.641907
   3      -68.636868
   4      -68.633013
   5      -68.613099
   6      -68.609081
   7      -68.595491
   8      -68.592536
   9      -68.581288
  10      -68.577020
  11      -68.563946
  12      -68.559712
  13      -12.600312
  14      -11.121649
  15      -10.986633
  16      -10.687220
  17      -10.360449
  18      -10.269122
  19       -5.936562
  20       -4.775421
  21       -2.647808
  22       -2.253102
  23       -2.085275
  24       -1.688725
  25       -1.341263
  26       -0.998575
  27       -0.771314
  28       -0.624670
  29       -0.553062
  30       -0.440197
  31       -0.357476
  32       -0.241644
  33       -0.195146
  34       -0.167008
  35       -0.043787
  36        0.039893
  37        1.280090
  38        1.335832
  39        1.355013
  40        1.392168
  41        1.428332
  42        1.472185
  43        1.498427
  44        1.530300
  45        1.724557
  46        1.859598
  47        2.055208
  48        2.094257
  49        2.233037
  50        2.413669
  51        2.556383
  52        2.826497
  53        2.946194
  54        3.244703
  55        3.663421
  56        4.039669
  57        6.169675
  58        6.904739
  59        8.139518
  60        8.262810
  61        8.588308
  62        9.021852
  63        9.235379
  64        9.530147
  65        9.863910
  66       10.377598
  67       10.632451
  68       10.811858
  69       10.941537
  70       11.192497
  71       11.655740
  72       11.771409
  73       12.117602
  74       12.442122
  75       12.618849
  76       13.010311
  77       13.504988
  78       13.878109
  79       14.207604
  80       14.714391
 
  0.5000000E+00  0.1474515E-16  0.2775558E-16  0.1250000E-01
   1      -68.645774
   2      -68.641738
   3      -68.636793
   4      -68.632932
   5      -68.613049
   6      -68.609066
   7      -68.595402
   8      -68.592471
   9      -68.581233
  10      -68.577007
  11      -68.563832
  12      -68.559543
  13      -12.442338
  14      -11.238719
  15      -10.962802
  16      -10.778884
  17      -10.423338
  18      -10.345391
  19       -5.874288
  20       -4.550561
  21       -2.497481
  22       -2.243324
  23       -1.945205
  24       -1.465250
  25       -1.221184
  26       -1.104364
  27       -0.900216
  28       -0.863423
  29       -0.599753
  30       -0.538796
  31       -0.270088
  32       -0.207195
  33       -0.200522
  34       -0.145224
  35       -0.026922
  36        0.080842
  37        1.255368
  38        1.328163
  39        1.347423
  40        1.398457
  41        1.470285
  42        1.478576
  43        1.500585
  44        1.553340
  45        1.752301
  46        1.790807
  47        1.968068
  48        2.145716
  49        2.320111
  50        2.360728
  51        2.557012
  52        2.671586
  53        2.937094
  54        3.079861
  55        3.249880
  56        3.861195
  57        6.384540
  58        7.098080
  59        7.979596
  60        8.209199
  61        8.521080
  62        8.815780
  63        9.324333
  64        9.887887
  65       10.010670
  66       10.516451
  67       10.686990
  68       10.791429
  69       11.139189
  70       11.404260
  71       11.610528
  72       11.774581
  73       11.942659
  74       12.508582
  75       12.777467
  76       12.997873
  77       13.398202
  78       13.546680
  79       13.940935
  80       14.273114
 
  0.7372575E-17  0.2500000E+00  0.1387779E-16  0.2500000E-01
   1      -68.645913
   2      -68.641885
   3      -68.636854
   4      -68.633027
   5      -68.613103
   6      -68.609078
   7      -68.595463
   8      -68.592562
   9      -68.581304
  10      -68.577005
  11      -68.563944
  12      -68.559714
  13      -12.599781
  14      -11.124319
  15      -10.990347
  16      -10.680014
  17      -10.353194
  18      -10.277842
  19       -5.936336
  20       -4.774013
  21       -2.646936
  22       -2.252968
  23       -2.084163
  24       -1.691716
  25       -1.347806
  26       -1.001189
  27       -0.768043
  28       -0.618438
  29       -0.556262
  30       -0.440750
  31       -0.360315
  32       -0.241140
  33       -0.190571
  34       -0.166895
  35       -0.043977
  36        0.038279
  37        1.279164
  38        1.335443
  39        1.355073
  40        1.392897
  41        1.427678
  42        1.472388
  43        1.497846
  44        1.531115
  45        1.724495
  46        1.862070
  47        2.054789
  48        2.094252
  49        2.231800
  50        2.413183
  51        2.555620
  52        2.827890
  53        2.949263
  54        3.245342
  55        3.663546
  56        4.040679
  57        6.170209
  58        6.904583
  59        8.137191
  60        8.263422
  61        8.588224
  62        9.011601
  63        9.231104
  64        9.544334
  65        9.863855
  66       10.375286
  67       10.629125
  68       10.816721
  69       10.943485
  70       11.194968
  71       11.653921
  72       11.771572
  73       12.114887
  74       12.442074
  75       12.619015
  76       13.006474
  77       13.519034
  78       13.897918
  79       14.270109
  80       14.840707
 
  0.2500000E+00  0.2500000E+00  0.0000000E+00  0.2500000E-01
   1      -68.645913
   2      -68.641907
   3      -68.636759
   4      -68.632910
   5      -68.613237
   6      -68.609212
   7      -68.595366
   8      -68.592438
   9      -68.581420
  10      -68.577136
  11      -68.563964
  12      -68.559730
  13      -12.445293
  14      -11.185192
  15      -10.948757
  16      -10.883902
  17      -10.391672
  18      -10.337779
  19       -5.878965
  20       -4.522399
  21       -2.420446
  22       -2.245241
  23       -1.793080
  24       -1.681347
  25       -1.354009
  26       -1.301004
  27       -1.086182
  28       -0.683565
  29       -0.521946
  30       -0.297473
  31       -0.283064
  32       -0.222134
  33       -0.182803
  34       -0.125503
  35       -0.091241
  36        0.079072
  37        1.293701
  38        1.311813
  39        1.416190
  40        1.427463
  41        1.464329
  42        1.482377
  43        1.494922
  44        1.569573
  45        1.670826
  46        1.880250
  47        1.939129
  48        2.133906
  49        2.278884
  50        2.321535
  51        2.562054
  52        2.653701
  53        2.905501
  54        2.946154
  55        3.697851
  56        3.831391
  57        6.171578
  58        6.991162
  59        8.002075
  60        8.327650
  61        8.427952
  62        8.567667
  63        9.148149
  64        9.248861
  65       10.361653
  66       10.492359
  67       10.922564
  68       11.183984
  69       11.326868
  70       11.559060
  71       11.815298
  72       11.963046
  73       12.311588
  74       12.501973
  75       12.711427
  76       12.910504
  77       13.336387
  78       13.447863
  79       14.259753
  80       14.370193
 
  0.5000000E+00  0.2500000E+00 -0.2775558E-16  0.2500000E-01
   1      -68.645678
   2      -68.641654
   3      -68.636869
   4      -68.632997
   5      -68.613006
   6      -68.608983
   7      -68.595414
   8      -68.592493
   9      -68.581175
  10      -68.576981
  11      -68.563828
  12      -68.559576
  13      -12.446945
  14      -11.345434
  15      -10.944474
  16      -10.747118
  17      -10.378990
  18      -10.267550
  19       -5.951160
  20       -4.645240
  21       -2.394902
  22       -2.226774
  23       -2.055525
  24       -1.639765
  25       -1.355862
  26       -1.282061
  27       -1.025515
  28       -0.508628
  29       -0.482667
  30       -0.333671
  31       -0.284152
  32       -0.214527
  33       -0.152105
  34       -0.134344
  35       -0.007908
  36        0.114453
  37        1.246895
  38        1.316322
  39        1.382770
  40        1.437247
  41        1.462988
  42        1.492185
  43        1.496462
  44        1.548831
  45        1.749081
  46        1.828716
  47        1.922547
  48        2.132531
  49        2.221117
  50        2.384449
  51        2.560630
  52        2.791644
  53        2.977618
  54        3.311873
  55        3.607221
  56        3.748175
  57        6.086527
  58        6.938631
  59        7.610534
  60        8.069047
  61        8.408226
  62        8.615184
  63        8.980238
  64        9.148518
  65       10.088584
  66       10.337553
  67       10.732608
  68       11.105041
  69       11.461984
  70       11.597364
  71       11.797617
  72       12.082824
  73       12.479770
  74       12.913142
  75       13.042616
  76       13.830065
  77       14.194812
  78       14.654276
  79       15.426921
  80       15.641007
 
 -0.2500000E+00  0.2500000E+00  0.0000000E+00  0.2500000E-01
   1      -68.645903
   2      -68.641898
   3      -68.636835
   4      -68.632992
   5      -68.613035
   6      -68.609011
   7      -68.595460
   8      -68.592534
   9      -68.581246
  10      -68.576960
  11      -68.563946
  12      -68.559715
  13      -12.603513
  14      -11.245608
  15      -10.998522
  16      -10.577923
  17      -10.354055
  18      -10.178165
  19       -6.013584
  20       -4.897621
  21       -2.648290
  22       -2.312109
  23       -1.970364
  24       -1.645940
  25       -1.497293
  26       -1.180339
  27       -0.791231
  28       -0.584291
  29       -0.449032
  30       -0.331469
  31       -0.295120
  32       -0.231810
  33       -0.177171
  34       -0.132270
  35       -0.008079
  36        0.074990
  37        1.259801
  38        1.320375
  39        1.366057
  40        1.422412
  41        1.430726
  42        1.476021
  43        1.503727
  44        1.544948
  45        1.725713
  46        1.812401
  47        1.994524
  48        2.072124
  49        2.416483
  50        2.464459
  51        2.529978
  52        2.871218
  53        3.143224
  54        3.227497
  55        3.784848
  56        4.071851
  57        5.978117
  58        6.685381
  59        7.531719
  60        8.222827
  61        8.613431
  62        8.920146
  63        9.298886
  64        9.431063
  65        9.801705
  66       10.270373
  67       10.543505
  68       10.834580
  69       10.973216
  70       11.383259
  71       11.474148
  72       11.732784
  73       12.102575
  74       12.662633
  75       12.939695
  76       13.104351
  77       13.350993
  78       13.520624
  79       14.476790
  80       14.755562
 
  0.1474515E-16  0.5000000E+00  0.2775558E-16  0.1250000E-01
   1      -68.645741
   2      -68.641761
   3      -68.636784
   4      -68.632942
   5      -68.613088
   6      -68.609026
   7      -68.595396
   8      -68.592480
   9      -68.581294
  10      -68.576948
  11      -68.563776
  12      -68.559603
  13      -12.440736
  14      -11.248916
  15      -10.964252
  16      -10.765850
  17      -10.407471
  18      -10.364507
  19       -5.873668
  20       -4.546965
  21       -2.495716
  22       -2.243343
  23       -1.950385
  24       -1.466322
  25       -1.228724
  26       -1.105002
  27       -0.908875
  28       -0.864564
  29       -0.596052
  30       -0.527789
  31       -0.274083
  32       -0.206360
  33       -0.198479
  34       -0.142203
  35       -0.030130
  36        0.080038
  37        1.253773
  38        1.327635
  39        1.349293
  40        1.397467
  41        1.471792
  42        1.477893
  43        1.500031
  44        1.554035
  45        1.753055
  46        1.790525
  47        1.966092
  48        2.147680
  49        2.319396
  50        2.362937
  51        2.561321
  52        2.673425
  53        2.939723
  54        3.083412
  55        3.247742
  56        3.861986
  57        6.385540
  58        7.096133
  59        7.979234
  60        8.200594
  61        8.503599
  62        8.814152
  63        9.336648
  64        9.889434
  65       10.012336
  66       10.518201
  67       10.694191
  68       10.794096
  69       11.141604
  70       11.407866
  71       11.610539
  72       11.777527
  73       11.941137
  74       12.512964
  75       12.817114
  76       13.028034
  77       13.521549
  78       13.663044
  79       14.555102
  80       15.256988
 
  0.2500000E+00  0.5000000E+00 -0.2775558E-16  0.2500000E-01
   1      -68.645689
   2      -68.641661
   3      -68.636822
   4      -68.632996
   5      -68.613017
   6      -68.608989
   7      -68.595424
   8      -68.592506
   9      -68.581211
  10      -68.576943
  11      -68.563779
  12      -68.559621
  13      -12.446109
  14      -11.349284
  15      -10.945361
  16      -10.741800
  17      -10.376451
  18      -10.271621
  19       -5.950851
  20       -4.644036
  21       -2.392971
  22       -2.224582
  23       -2.056141
  24       -1.642605
  25       -1.363932
  26       -1.281930
  27       -1.025763
  28       -0.511133
  29       -0.481937
  30       -0.330711
  31       -0.282529
  32       -0.216267
  33       -0.149012
  34       -0.131022
  35       -0.012016
  36        0.114220
  37        1.246583
  38        1.315386
  39        1.382902
  40        1.437521
  41        1.462342
  42        1.492935
  43        1.496609
  44        1.549957
  45        1.750025
  46        1.827399
  47        1.921623
  48        2.133811
  49        2.220655
  50        2.386320
  51        2.562877
  52        2.790825
  53        2.980038
  54        3.313222
  55        3.605754
  56        3.747858
  57        6.086859
  58        6.938713
  59        7.610581
  60        8.066035
  61        8.406470
  62        8.609775
  63        8.989193
  64        9.146860
  65       10.088026
  66       10.336081
  67       10.735797
  68       11.107577
  69       11.456227
  70       11.578991
  71       11.790809
  72       12.029501
  73       12.526951
  74       12.679234
  75       12.912254
  76       13.209534
  77       14.233740
  78       14.773242
  79       15.245345
  80       15.903879
 
  0.5000000E+00  0.5000000E+00  0.0000000E+00  0.1250000E-01
   1      -68.645523
   2      -68.641485
   3      -68.636652
   4      -68.632809
   5      -68.612876
   6      -68.608917
   7      -68.595209
   8      -68.592315
   9      -68.581127
  10      -68.576839
  11      -68.563614
  12      -68.559385
  13      -12.439529
  14      -11.493802
  15      -10.920562
  16      -10.625207
  17      -10.383794
  18      -10.198278
  19       -6.029761
  20       -4.814166
  21       -2.316162
  22       -2.261190
  23       -2.089703
  24       -1.702191
  25       -1.241132
  26       -1.115793
  27       -0.845997
  28       -0.773998
  29       -0.730011
  30       -0.245093
  31       -0.196426
  32       -0.178900
  33       -0.154845
  34       -0.041202
  35       -0.002391
  36        0.187450
  37        1.265481
  38        1.318552
  39        1.376264
  40        1.414142
  41        1.432176
  42        1.493617
  43        1.508704
  44        1.550322
  45        1.786671
  46        1.847699
  47        1.997316
  48        2.151145
  49        2.252302
  50        2.337087
  51        2.558609
  52        2.763488
  53        2.772132
  54        3.369156
  55        3.761795
  56        4.011469
  57        5.853157
  58        6.760599
  59        7.085165
  60        8.413958
  61        8.559567
  62        8.774464
  63        9.134124
  64        9.234183
  65        9.963228
  66       10.284044
  67       10.729224
  68       10.824046
  69       10.877795
  70       11.274495
  71       11.759491
  72       11.912560
  73       11.972476
  74       12.366738
  75       12.540127
  76       13.456436
  77       14.287090
  78       14.678703
  79       16.749178
  80       16.755096
 
 -0.2168404E-18 -0.2168404E-18  0.2000000E+00  0.2500000E-01
   1      -68.645940
   2      -68.641932
   3      -68.636863
   4      -68.633021
   5      -68.613131
   6      -68.609106
   7      -68.595485
   8      -68.592557
   9      -68.581331
  10      -68.577046
  11      -68.563982
  12      -68.559750
  13      -12.621312
  14      -11.427204
  15      -10.779691
  16      -10.610748
  17      -10.246443
  18      -10.230400
  19       -5.834209
  20       -5.048817
  21       -2.601695
  22       -2.373720
  23       -1.962712
  24       -1.770930
  25       -1.443893
  26       -1.126747
  27       -1.065986
  28       -0.771984
  29       -0.471936
  30       -0.293415
  31       -0.236603
  32       -0.234769
  33       -0.191548
  34       -0.145164
  35       -0.015706
  36        0.023764
  37        1.333667
  38        1.382101
  39        1.417282
  40        1.440027
  41        1.463688
  42        1.466630
  43        1.514379
  44        1.545031
  45        1.632977
  46        1.759284
  47        1.788095
  48        1.951376
  49        2.087167
  50        2.660388
  51        2.720631
  52        3.196138
  53        3.252212
  54        3.521679
  55        3.895795
  56        3.976914
  57        6.045564
  58        6.415668
  59        7.821117
  60        7.906525
  61        8.360325
  62        8.821671
  63        9.773331
  64        9.798656
  65       10.055809
  66       10.587296
  67       10.648444
  68       10.814512
  69       10.852836
  70       11.495173
  71       11.556878
  72       12.029480
  73       12.579642
  74       12.775621
  75       12.913258
  76       13.205879
  77       13.531065
  78       13.821926
  79       14.197228
  80       14.704438
 
  0.2500000E+00  0.1517883E-17  0.2000000E+00  0.2500000E-01
   1      -68.645875
   2      -68.641871
   3      -68.636848
   4      -68.633008
   5      -68.613173
   6      -68.609148
   7      -68.595442
   8      -68.592514
   9      -68.581346
  10      -68.577051
  11      -68.563913
  12      -68.559693
  13      -12.462965
  14      -11.468533
  15      -10.860901
  16      -10.695795
  17      -10.370684
  18      -10.237665
  19       -5.770274
  20       -4.805461
  21       -2.447480
  22       -2.233747
  23       -1.849759
  24       -1.714671
  25       -1.426193
  26       -1.189215
  27       -0.895600
  28       -0.747674
  29       -0.604836
  30       -0.521329
  31       -0.311023
  32       -0.243427
  33       -0.175137
  34       -0.119526
  35       -0.051181
  36        0.060942
  37        1.302610
  38        1.336687
  39        1.369900
  40        1.431982
  41        1.447301
  42        1.479491
  43        1.521224
  44        1.546838
  45        1.641855
  46        1.870489
  47        1.977717
  48        2.047614
  49        2.195802
  50        2.476292
  51        2.595875
  52        2.841605
  53        2.964059
  54        3.132316
  55        3.567988
  56        3.725138
  57        6.441530
  58        6.956951
  59        8.172507
  60        8.241233
  61        8.833625
  62        9.126019
  63        9.470814
  64        9.794027
  65       10.084773
  66       10.295394
  67       10.739193
  68       11.080458
  69       11.287597
  70       11.421777
  71       11.631203
  72       11.724434
  73       12.085186
  74       12.264255
  75       12.544568
  76       12.661406
  77       12.952353
  78       13.060374
  79       13.640554
  80       14.688767
 
  0.5000000E+00  0.9107298E-17  0.2000000E+00  0.2500000E-01
   1      -68.645712
   2      -68.641614
   3      -68.636835
   4      -68.632935
   5      -68.613027
   6      -68.609012
   7      -68.595338
   8      -68.592438
   9      -68.581215
  10      -68.576986
  11      -68.563853
  12      -68.559613
  13      -12.361965
  14      -11.411702
  15      -10.953636
  16      -10.692488
  17      -10.473081
  18      -10.326115
  19       -5.755332
  20       -4.724410
  21       -2.522479
  22       -2.188910
  23       -1.952302
  24       -1.532035
  25       -1.300887
  26       -1.091396
  27       -0.869015
  28       -0.759629
  29       -0.550909
  30       -0.449958
  31       -0.289827
  32       -0.177247
  33       -0.147217
  34       -0.105774
  35       -0.041678
  36        0.024468
  37        1.273171
  38        1.298086
  39        1.351991
  40        1.429312
  41        1.452776
  42        1.480452
  43        1.502016
  44        1.587795
  45        1.719425
  46        1.931249
  47        2.075866
  48        2.145840
  49        2.266161
  50        2.403073
  51        2.569520
  52        2.596870
  53        2.897458
  54        3.012623
  55        3.360191
  56        3.899619
  57        6.364558
  58        6.897104
  59        7.572124
  60        8.090615
  61        8.551203
  62        8.787650
  63        9.278928
  64        9.629317
  65        9.932600
  66       10.270458
  67       10.654516
  68       10.927079
  69       10.974327
  70       11.281175
  71       11.517021
  72       11.789317
  73       12.244781
  74       12.548756
  75       13.098427
  76       13.517341
  77       14.291751
  78       14.573911
  79       15.128851
  80       16.271919
 
 -0.2500000E+00 -0.4098284E-16  0.2000000E+00  0.2500000E-01
   1      -68.645935
   2      -68.641925
   3      -68.636837
   4      -68.632996
   5      -68.613135
   6      -68.609116
   7      -68.595470
   8      -68.592542
   9      -68.581340
  10      -68.577070
  11      -68.563981
  12      -68.559738
  13      -12.545679
  14      -11.337173
  15      -10.875471
  16      -10.612662
  17      -10.390714
  18      -10.277225
  19       -5.827539
  20       -4.977413
  21       -2.666044
  22       -2.455463
  23       -2.037889
  24       -1.573761
  25       -1.168729
  26       -0.985102
  27       -0.795882
  28       -0.654242
  29       -0.514776
  30       -0.390652
  31       -0.269394
  32       -0.256241
  33       -0.192308
  34       -0.146036
  35       -0.042477
  36        0.016521
  37        1.290962
  38        1.310722
  39        1.389240
  40        1.408278
  41        1.435220
  42        1.455081
  43        1.492534
  44        1.565991
  45        1.688843
  46        1.916135
  47        1.986036
  48        2.144031
  49        2.336931
  50        2.563552
  51        2.616573
  52        2.830054
  53        2.972754
  54        3.246237
  55        3.686519
  56        3.945067
  57        6.177768
  58        6.635537
  59        7.768810
  60        7.968610
  61        8.215193
  62        8.560670
  63        9.369033
  64        9.580883
  65        9.916903
  66       10.247159
  67       10.543981
  68       10.786958
  69       10.840198
  70       11.068950
  71       11.566155
  72       12.025421
  73       12.527193
  74       12.749340
  75       12.958305
  76       13.308488
  77       13.413509
  78       13.739879
  79       13.846616
  80       14.724241
 
  0.1517883E-17  0.2500000E+00  0.2000000E+00  0.2500000E-01
   1      -68.645876
   2      -68.641868
   3      -68.636848
   4      -68.633008
   5      -68.613167
   6      -68.609154
   7      -68.595450
   8      -68.592507
   9      -68.581335
  10      -68.577061
  11      -68.563925
  12      -68.559681
  13      -12.462550
  14      -11.468009
  15      -10.869084
  16      -10.689209
  17      -10.368261
  18      -10.239612
  19       -5.768851
  20       -4.804851
  21       -2.445869
  22       -2.232905
  23       -1.852578
  24       -1.718451
  25       -1.433936
  26       -1.192273
  27       -0.892626
  28       -0.739423
  29       -0.605925
  30       -0.522745
  31       -0.308556
  32       -0.240665
  33       -0.172167
  34       -0.122902
  35       -0.051793
  36        0.059329
  37        1.302657
  38        1.336736
  39        1.370337
  40        1.430651
  41        1.447290
  42        1.479742
  43        1.521537
  44        1.546246
  45        1.643003
  46        1.873122
  47        1.976888
  48        2.047695
  49        2.195014
  50        2.475694
  51        2.594767
  52        2.841528
  53        2.968049
  54        3.134156
  55        3.566604
  56        3.725134
  57        6.441422
  58        6.956855
  59        8.166002
  60        8.250289
  61        8.827864
  62        9.128100
  63        9.468180
  64        9.795903
  65       10.083042
  66       10.293130
  67       10.740440
  68       11.076304
  69       11.290664
  70       11.425019
  71       11.632689
  72       11.722336
  73       12.084797
  74       12.265479
  75       12.543519
  76       12.657909
  77       12.952314
  78       13.057313
  79       13.658090
  80       14.696709
 
  0.2500000E+00  0.2500000E+00  0.2000000E+00  0.2500000E-01
   1      -68.645785
   2      -68.641779
   3      -68.636702
   4      -68.632852
   5      -68.613012
   6      -68.608989
   7      -68.595319
   8      -68.592393
   9      -68.581213
  10      -68.576923
  11      -68.563832
  12      -68.559595
  13      -12.332012
  14      -11.475512
  15      -10.870944
  16      -10.850387
  17      -10.410935
  18      -10.275525
  19       -5.750800
  20       -4.692533
  21       -2.242093
  22       -2.141003
  23       -1.933504
  24       -1.846667
  25       -1.450629
  26       -1.396278
  27       -1.041597
  28       -0.524584
  29       -0.461195
  30       -0.351189
  31       -0.246395
  32       -0.215224
  33       -0.159057
  34       -0.110276
  35       -0.088717
  36        0.079273
  37        1.262292
  38        1.348393
  39        1.396701
  40        1.435938
  41        1.453163
  42        1.510229
  43        1.536173
  44        1.545051
  45        1.752273
  46        1.818551
  47        2.039436
  48        2.133738
  49        2.286668
  50        2.308942
  51        2.523253
  52        2.768134
  53        2.902467
  54        3.266211
  55        3.495133
  56        3.801312
  57        6.182796
  58        6.841322
  59        7.827216
  60        8.042002
  61        8.187391
  62        8.720165
  63        9.157935
  64        9.304676
  65       10.218971
  66       10.439947
  67       10.592462
  68       11.006240
  69       11.242497
  70       11.484371
  71       11.810554
  72       12.173027
  73       12.207476
  74       12.578447
  75       12.692218
  76       13.110733
  77       13.414470
  78       13.879713
  79       14.005922
  80       14.524147
 
  0.5000000E+00  0.2500000E+00  0.2000000E+00  0.2500000E-01
   1      -68.645650
   2      -68.641591
   3      -68.636832
   4      -68.633010
   5      -68.612996
   6      -68.609039
   7      -68.595387
   8      -68.592458
   9      -68.581192
  10      -68.577003
  11      -68.563773
  12      -68.559593
  13      -12.379854
  14      -11.469247
  15      -10.939702
  16      -10.661705
  17      -10.408566
  18      -10.301342
  19       -5.803666
  20       -4.839730
  21       -2.527390
  22       -2.246291
  23       -1.871321
  24       -1.642068
  25       -1.502650
  26       -1.303767
  27       -0.901268
  28       -0.537054
  29       -0.378361
  30       -0.348566
  31       -0.225100
  32       -0.179134
  33       -0.160129
  34       -0.078616
  35       -0.022938
  36        0.082581
  37        1.190074
  38        1.364791
  39        1.398173
  40        1.442193
  41        1.462940
  42        1.506442
  43        1.519854
  44        1.585291
  45        1.740747
  46        1.818611
  47        2.038067
  48        2.234036
  49        2.267332
  50        2.362206
  51        2.487102
  52        2.672458
  53        3.050703
  54        3.409500
  55        3.730792
  56        3.869064
  57        5.929894
  58        6.610642
  59        7.353165
  60        7.946255
  61        8.063575
  62        8.718336
  63        8.903393
  64        9.139421
  65        9.843100
  66       10.327631
  67       10.558464
  68       10.927570
  69       11.221833
  70       11.415638
  71       11.753951
  72       12.003058
  73       12.499209
  74       12.833584
  75       13.204945
  76       14.182838
  77       14.715444
  78       15.093019
  79       15.912193
  80       16.568432
 
 -0.2500000E+00  0.2500000E+00  0.2000000E+00  0.2500000E-01
   1      -68.645840
   2      -68.641871
   3      -68.636897
   4      -68.633046
   5      -68.613106