 vasp.5.3.3 18Dez12 (build Nov 13 2015 09:58:40) complex                        
  
 executed on             LinuxIFC date 2017.10.18  13:04:36
 running on   48 total cores
 distrk:  each k-point on   16 cores,    3 groups
 distr:  one band on NCORES_PER_BAND=   1 cores,   16 groups


--------------------------------------------------------------------------------------------------------


 INCAR:
 POTCAR:    PAW_PBE Cu_pv 06Sep2000               
 POTCAR:    PAW_PBE Ge 05Jan2001                  
 POTCAR:    PAW_PBE S 17Jan2003                   

 ----------------------------------------------------------------------------- 
|                                                                             |
|           W    W    AA    RRRRR   N    N  II  N    N   GGGG   !!!           |
|           W    W   A  A   R    R  NN   N  II  NN   N  G    G  !!!           |
|           W    W  A    A  R    R  N N  N  II  N N  N  G       !!!           |
|           W WW W  AAAAAA  RRRRR   N  N N  II  N  N N  G  GGG   !            |
|           WW  WW  A    A  R   R   N   NN  II  N   NN  G    G                |
|           W    W  A    A  R    R  N    N  II  N    N   GGGG   !!!           |
|                                                                             |
|      For optimal performance we recommend that you set                      |
|        NPAR = 4 - approx SQRT( number of cores)                             |
|      (number of cores/NPAR must be integer)                                 |
|      This setting will greatly improve the performance of VASP for DFT.     |
|      The default NPAR=number of cores might be grossly inefficient          |
|      on modern multi-core architectures or massively parallel machines.     |
|      Do your own testing.                                                   |
|      Unfortunately you need to use the default for hybrid, GW and RPA       |
|      calculations.                                                          |
|                                                                             |
 ----------------------------------------------------------------------------- 


 ----------------------------------------------------------------------------- 
|                                                                             |
|           W    W    AA    RRRRR   N    N  II  N    N   GGGG   !!!           |
|           W    W   A  A   R    R  NN   N  II  NN   N  G    G  !!!           |
|           W    W  A    A  R    R  N N  N  II  N N  N  G       !!!           |
|           W WW W  AAAAAA  RRRRR   N  N N  II  N  N N  G  GGG   !            |
|           WW  WW  A    A  R   R   N   NN  II  N   NN  G    G                |
|           W    W  A    A  R    R  N    N  II  N    N   GGGG   !!!           |
|                                                                             |
|      You have enabled k-point parallelism (KPAR>1).                         |
|      This developmental code was originally  written by Paul Kent at ORNL,  |
|      and carefully double checked in Vienna.                                |
|      GW as well as linear response parallelism added by Martijn Marsman     |
|      and Georg Kresse.                                                      |
|      Carefully verify results versus KPAR=1.                                |
|      Report problems to Paul Kent and Vienna.                               |
|                                                                             |
 ----------------------------------------------------------------------------- 

 POTCAR:    PAW_PBE Cu_pv 06Sep2000               
   VRHFIN =Cu: d10 p1                                                           
   LEXCH  = PE                                                                  
   EATOM  =  4120.1201 eV,  302.8203 Ry                                         
                                                                                
   TITEL  = PAW_PBE Cu_pv 06Sep2000                                             
   LULTRA =        F    use ultrasoft PP ?                                      
   IUNSCR =        1    unscreen: 0-lin 1-nonlin 2-no                           
   RPACOR =    1.500    partial core radius                                     
   POMASS =   63.546; ZVAL   =   17.000    mass and valenz                      
   RCORE  =    2.000    outmost cutoff radius                                   
   RWIGS  =    2.000; RWIGS  =    1.058    wigner-seitz radius (au A)           
   ENMAX  =  368.648; ENMIN  =  276.486 eV                                      
   RCLOC  =    1.304    cutoff for local pot                                    
   LCOR   =        T    correct aug charges                                     
   LPAW   =        T    paw PP                                                  
   EAUG   =  758.233                                                            
   DEXC   =    0.000                                                            
   RMAX   =    2.046    core radius for proj-oper                               
   RAUG   =    1.300    factor for augmentation sphere                          
   RDEP   =    2.025    radius for radial grids                                 
   RDEPT  =    1.558    core radius for aug-charge                              
                                                                                
   Atomic configuration                                                         
    8 entries                                                                   
     n  l   j            E        occ.                                          
     1  0  0.50     -8850.2467   2.0000                                         
     2  0  0.50     -1062.3498   2.0000                                         
     2  1  1.50      -916.8226   6.0000                                         
     3  0  0.50      -114.6929   2.0000                                         
     3  1  1.50       -72.1325   6.0000                                         
     3  2  2.50        -5.0394  10.0000                                         
     4  0  0.50        -4.6097   1.0000                                         
     4  3  2.50        -1.3606   0.0000                                         
   Description                                                                  
     l       E           TYP  RCUT    TYP  RCUT                                 
     1    -72.1324777     23  1.700                                             
     1     -1.3605826     23  1.700                                             
     2     -5.0393776     23  2.000                                             
     2     -6.3999602     23  2.000                                             
     0     -4.6097062     23  1.800                                             
     0     14.1620818     23  1.800                                             
  local pseudopotential read in
  partial core-charges read in
  partial kinetic energy density read in
  atomic valenz-charges read in
  non local Contribution for L=           1  read in
    real space projection operators read in
  non local Contribution for L=           1  read in
    real space projection operators read in
  non local Contribution for L=           2  read in
    real space projection operators read in
  non local Contribution for L=           2  read in
    real space projection operators read in
  non local Contribution for L=           0  read in
    real space projection operators read in
  non local Contribution for L=           0  read in
    real space projection operators read in
    PAW grid and wavefunctions read in
 
   number of l-projection  operators is LMAX  =           6
   number of lm-projection operators is LMMAX =          18
 
 POTCAR:    PAW_PBE Ge 05Jan2001                  
   VRHFIN =Ge: s2p2                                                             
   LEXCH  = PE                                                                  
   EATOM  =   104.9960 eV,    7.7170 Ry                                         
                                                                                
   TITEL  = PAW_PBE Ge 05Jan2001                                                
   LULTRA =        F    use ultrasoft PP ?                                      
   IUNSCR =        1    unscreen: 0-lin 1-nonlin 2-no                           
   RPACOR =    2.170    partial core radius                                     
   POMASS =   72.610; ZVAL   =    4.000    mass and valenz                      
   RCORE  =    2.300    outmost cutoff radius                                   
   RWIGS  =    2.300; RWIGS  =    1.217    wigner-seitz radius (au A)           
   ENMAX  =  173.807; ENMIN  =  130.355 eV                                      
   ICORE  =        3    local potential                                         
   LCOR   =        T    correct aug charges                                     
   LPAW   =        T    paw PP                                                  
   EAUG   =  385.843                                                            
   DEXC   =    0.000                                                            
   RMAX   =    2.342    core radius for proj-oper                               
   RAUG   =    1.300    factor for augmentation sphere                          
   RDEP   =    2.318    radius for radial grids                                 
   RDEPT  =    2.103    core radius for aug-charge                              
                                                                                
   Atomic configuration                                                         
   10 entries                                                                   
     n  l   j            E        occ.                                          
     1  0  0.50    -10959.8463   2.0000                                         
     2  0  0.50     -1371.6056   2.0000                                         
     2  1  1.50     -1198.4791   6.0000                                         
     3  0  0.50      -168.4733   2.0000                                         
     3  1  1.50      -115.6019   6.0000                                         
     3  2  2.50       -29.3106  10.0000                                         
     4  0  0.50       -11.7309   2.0000                                         
     4  1  0.50        -3.8952   2.0000                                         
     4  2  1.50        -4.0817   0.0000                                         
     4  3  2.50        -4.0817   0.0000                                         
   Description                                                                  
     l       E           TYP  RCUT    TYP  RCUT                                 
     0    -11.7309493     23  2.300                                             
     0     -7.4578696     23  2.300                                             
     1     -3.8952261     23  2.300                                             
     1      6.1178114     23  2.300                                             
     2     -4.0817478     23  2.300                                             
     3     -1.3605826      7  2.300                                             
  local pseudopotential read in
  partial core-charges read in
  partial kinetic energy density read in
  atomic valenz-charges read in
  non local Contribution for L=           0  read in
    real space projection operators read in
  non local Contribution for L=           0  read in
    real space projection operators read in
  non local Contribution for L=           1  read in
    real space projection operators read in
  non local Contribution for L=           1  read in
    real space projection operators read in
  non local Contribution for L=           2  read in
    real space projection operators read in
    PAW grid and wavefunctions read in
 
   number of l-projection  operators is LMAX  =           5
   number of lm-projection operators is LMMAX =          13
 
 POTCAR:    PAW_PBE S 17Jan2003                   
   VRHFIN =S : s2p4                                                             
   LEXCH  = PE                                                                  
   EATOM  =   276.8230 eV,   20.3459 Ry                                         
                                                                                
   TITEL  = PAW_PBE S 17Jan2003                                                 
   LULTRA =        F    use ultrasoft PP ?                                      
   IUNSCR =        1    unscreen: 0-lin 1-nonlin 2-no                           
   RPACOR =    1.500    partial core radius                                     
   POMASS =   32.066; ZVAL   =    6.000    mass and valenz                      
   RCORE  =    1.900    outmost cutoff radius                                   
   RWIGS  =    2.200; RWIGS  =    1.164    wigner-seitz radius (au A)           
   ENMAX  =  280.000; ENMIN  =  194.016 eV                                      
   ICORE  =        2    local potential                                         
   LCOR   =        T    correct aug charges                                     
   LPAW   =        T    paw PP                                                  
   EAUG   =  335.092                                                            
   DEXC   =     .000                                                            
   RMAX   =    2.867    core radius for proj-oper                               
   RAUG   =    1.300    factor for augmentation sphere                          
   RDEP   =    1.954    radius for radial grids                                 
   QCUT   =   -4.360; QGAM   =    8.721    optimization parameters              
                                                                                
   Description                                                                  
     l     E      TYP  RCUT    TYP  RCUT                                        
     0   .000     23  1.900                                                     
     0   .000     23  1.900                                                     
     1   .000     23  1.900                                                     
     1   .000     23  1.900                                                     
     2   .000     23  1.900                                                     
  local pseudopotential read in
  partial core-charges read in
  atomic valenz-charges read in
  non local Contribution for L=           0  read in
    real space projection operators read in
  non local Contribution for L=           0  read in
    real space projection operators read in
  non local Contribution for L=           1  read in
    real space projection operators read in
  non local Contribution for L=           1  read in
    real space projection operators read in
    PAW grid and wavefunctions read in
 
   number of l-projection  operators is LMAX  =           4
   number of lm-projection operators is LMMAX =           8
 
  PAW_PBE Cu_pv 06Sep2000               :
 energy of atom  1       EATOM=-4120.1201
 kinetic energy error for atom=    0.0996 (will be added to EATOM!!)
  PAW_PBE Ge 05Jan2001                  :
 energy of atom  2       EATOM= -104.9960
 kinetic energy error for atom=    0.0003 (will be added to EATOM!!)
  PAW_PBE S 17Jan2003                   :
 energy of atom  3       EATOM= -276.8230
 kinetic energy error for atom=    0.0046 (will be added to EATOM!!)
 
 
 POSCAR: Cu Ge S                                 
  positions in direct lattice
  No initial velocities read in
 exchange correlation table for  LEXCH =        8
   RHO(1)=    0.500       N(1)  =     2000
   RHO(2)=  100.500       N(2)  =     4000
 


--------------------------------------------------------------------------------------------------------


 ion  position               nearest neighbor table
   1  0.618  0.121  0.120-   9 2.29  11 2.29  12 2.30   8 2.35
   2  0.121  0.618  0.620-  12 2.29   7 2.29   9 2.30  10 2.35
   3  0.963  0.790  0.119-  11 2.30  12 2.30   7 2.31   8 2.36
   4  0.790  0.963  0.619-   7 2.30   9 2.30  11 2.31  10 2.36
   5  0.438  0.267  0.599-   7 2.19   9 2.20  10 2.30   8 2.33
   6  0.267  0.440  0.099-  11 2.19  12 2.19   8 2.31  10 2.33
   7  0.079  0.912  0.497-   5 2.19   2 2.29   4 2.30   3 2.31
   8  0.571  0.412  0.980-   6 2.31   5 2.33   1 2.35   3 2.36
   9  0.737  0.250  0.495-   5 2.20   1 2.29   4 2.30   2 2.30
  10  0.412  0.571  0.480-   5 2.30   6 2.33   2 2.35   4 2.36
  11  0.912  0.079  0.997-   6 2.19   1 2.29   3 2.30   4 2.31
  12  0.250  0.737  0.995-   6 2.19   2 2.29   3 2.30   1 2.30
 
  Warning from LATTYP: Got some problem with cell dimensions!
  Tried to take original basis but could not verify dimensions!
  LATTYP: Found a base centered monoclinic cell.
 ALAT       =     6.4499010947
 B/A-ratio  =     1.7500516418
 C/A-ratio  =     1.9305142024
 COS(beta)  =    -0.4326083233
  
  Lattice vectors:
  
 A1 = (   3.2247960000,   5.6438300000,   0.0315720000)
 A2 = (   3.2247960000,  -5.6438300000,   0.0315720000)
 A3 = ( -10.7972380000,   0.0000000000,  -6.2018250000)


Analysis of symmetry for initial positions (statically):
=====================================================================
 Subroutine PRICEL returns:
 Original cell was already a primitive cell.
 

 Routine SETGRP: Setting up the symmetry group for a 
 base centered monoclinic supercell.


 Subroutine GETGRP returns: Found  1 space group operations
 (whereof  1 operations were pure point group operations)
 out of a pool of  4 trial point group operations.


The static configuration has the point symmetry C_1 .


Analysis of symmetry for dynamics (positions and initial velocities):
=====================================================================
 Subroutine PRICEL returns:
 Original cell was already a primitive cell.
 

 Routine SETGRP: Setting up the symmetry group for a 
 base centered monoclinic supercell.


 Subroutine GETGRP returns: Found  1 space group operations
 (whereof  1 operations were pure point group operations)
 out of a pool of  4 trial point group operations.


The dynamic configuration has the point symmetry C_1 .


 irot  :   1
 --------------------------------------------------------------------
 isymop:   1   0   0
           0   1   0
           0   0   1

 gtrans:     0.0000000     0.0000000     0.0000000

 ptrans:     0.0000000     0.0000000     0.0000000
 rotmap:
 (   1->   1)  (   2->   2)  (   3->   3)  (   4->   4)  (   5->   5) 
 (   6->   6)  (   7->   7)  (   8->   8)  (   9->   9)  (  10->  10) 
 (  11->  11)  (  12->  12) 
 
 
 KPOINTS: pymatgen 4.7.6+ generated KPOINTS with g

Automatic generation of k-mesh.
Space group operators:
 irot       det(A)        alpha          n_x          n_y          n_z        tau_x        tau_y        tau_z
    1     1.000000     0.000000     1.000000     0.000000     0.000000     0.000000     0.000000     0.000000
 
 Subroutine IBZKPT returns following result:
 ===========================================
 
 Found     42 irreducible k-points:
 
 Following reciprocal coordinates:
            Coordinates               Weight
  0.000000  0.000000  0.000000      1.000000
  0.250000  0.000000  0.000000      2.000000
  0.500000  0.000000  0.000000      1.000000
  0.000000  0.250000  0.000000      2.000000
  0.250000  0.250000  0.000000      2.000000
  0.500000  0.250000 -0.000000      2.000000
 -0.250000  0.250000  0.000000      2.000000
  0.000000  0.500000  0.000000      1.000000
  0.250000  0.500000 -0.000000      2.000000
  0.500000  0.500000  0.000000      1.000000
 -0.000000 -0.000000  0.200000      2.000000
  0.250000  0.000000  0.200000      2.000000
  0.500000  0.000000  0.200000      2.000000
 -0.250000 -0.000000  0.200000      2.000000
  0.000000  0.250000  0.200000      2.000000
  0.250000  0.250000  0.200000      2.000000
  0.500000  0.250000  0.200000      2.000000
 -0.250000  0.250000  0.200000      2.000000
  0.000000  0.500000  0.200000      2.000000
  0.250000  0.500000  0.200000      2.000000
  0.500000  0.500000  0.200000      2.000000
 -0.250000  0.500000  0.200000      2.000000
 -0.000000 -0.250000  0.200000      2.000000
  0.250000 -0.250000  0.200000      2.000000
  0.500000 -0.250000  0.200000      2.000000
 -0.250000 -0.250000  0.200000      2.000000
 -0.000000 -0.000000  0.400000      2.000000
  0.250000  0.000000  0.400000      2.000000
  0.500000  0.000000  0.400000      2.000000
 -0.250000  0.000000  0.400000      2.000000
  0.000000  0.250000  0.400000      2.000000
  0.250000  0.250000  0.400000      2.000000
  0.500000  0.250000  0.400000      2.000000
 -0.250000  0.250000  0.400000      2.000000
  0.000000  0.500000  0.400000      2.000000
  0.250000  0.500000  0.400000      2.000000
  0.500000  0.500000  0.400000      2.000000
 -0.250000  0.500000  0.400000      2.000000
  0.000000 -0.250000  0.400000      2.000000
  0.250000 -0.250000  0.400000      2.000000
  0.500000 -0.250000  0.400000      2.000000
 -0.250000 -0.250000  0.400000      2.000000
 
 Following cartesian coordinates:
            Coordinates               Weight
  0.000000  0.000000  0.000000      1.000000
  0.038631 -0.022148  0.013365      2.000000
  0.077263 -0.044296  0.026730      1.000000
  0.038631  0.022148  0.013365      2.000000
  0.077263  0.000000  0.026730      2.000000
  0.115894 -0.022148  0.040096      2.000000
  0.000000  0.044296  0.000000      2.000000
  0.077263  0.044296  0.026730      1.000000
  0.115894  0.022148  0.040096      2.000000
  0.154525  0.000000  0.053461      1.000000
 -0.000321  0.000000  0.032808      2.000000
  0.038310 -0.022148  0.046173      2.000000
  0.076941 -0.044296  0.059538      2.000000
 -0.038952  0.022148  0.019443      2.000000
  0.038310  0.022148  0.046173      2.000000
  0.076941  0.000000  0.059538      2.000000
  0.115573 -0.022148  0.072903      2.000000
 -0.000321  0.044296  0.032808      2.000000
  0.076941  0.044296  0.059538      2.000000
  0.115573  0.022148  0.072903      2.000000
  0.154204  0.000000  0.086269      2.000000
  0.038310  0.066444  0.046173      2.000000
 -0.038952 -0.022148  0.019443      2.000000
 -0.000321 -0.044296  0.032808      2.000000
  0.038310 -0.066444  0.046173      2.000000
 -0.077584  0.000000  0.006077      2.000000
 -0.000642  0.000000  0.065616      2.000000
  0.037989 -0.022148  0.078981      2.000000
  0.076620 -0.044296  0.092346      2.000000
 -0.039274  0.022148  0.052250      2.000000
  0.037989  0.022148  0.078981      2.000000
  0.076620  0.000000  0.092346      2.000000
  0.115251 -0.022148  0.105711      2.000000
 -0.000642  0.044296  0.065616      2.000000
  0.076620  0.044296  0.092346      2.000000
  0.115251  0.022148  0.105711      2.000000
  0.153883  0.000000  0.119076      2.000000
  0.037989  0.066444  0.078981      2.000000
 -0.039274 -0.022148  0.052250      2.000000
 -0.000642 -0.044296  0.065616      2.000000
  0.037989 -0.066444  0.078981      2.000000
 -0.077905  0.000000  0.038885      2.000000
 
 
 Subroutine IBZKPT_HF returns following result:
 ==============================================
 
 Found     80 k-points in 1st BZ
 the following     80 k-points will be used (e.g. in the exchange kernel)
 Following reciprocal coordinates:   # in IRBZ
  0.000000  0.000000  0.000000       1 t-inv F
  0.250000  0.000000  0.000000       2 t-inv F
  0.500000  0.000000  0.000000       3 t-inv F
  0.000000  0.250000  0.000000       4 t-inv F
  0.250000  0.250000  0.000000       5 t-inv F
  0.500000  0.250000 -0.000000       6 t-inv F
 -0.250000  0.250000  0.000000       7 t-inv F
  0.000000  0.500000  0.000000       8 t-inv F
  0.250000  0.500000 -0.000000       9 t-inv F
  0.500000  0.500000  0.000000      10 t-inv F
 -0.000000 -0.000000  0.200000      11 t-inv F
  0.250000  0.000000  0.200000      12 t-inv F
  0.500000  0.000000  0.200000      13 t-inv F
 -0.250000 -0.000000  0.200000      14 t-inv F
  0.000000  0.250000  0.200000      15 t-inv F
  0.250000  0.250000  0.200000      16 t-inv F
  0.500000  0.250000  0.200000      17 t-inv F
 -0.250000  0.250000  0.200000      18 t-inv F
  0.000000  0.500000  0.200000      19 t-inv F
  0.250000  0.500000  0.200000      20 t-inv F
  0.500000  0.500000  0.200000      21 t-inv F
 -0.250000  0.500000  0.200000      22 t-inv F
 -0.000000 -0.250000  0.200000      23 t-inv F
  0.250000 -0.250000  0.200000      24 t-inv F
  0.500000 -0.250000  0.200000      25 t-inv F
 -0.250000 -0.250000  0.200000      26 t-inv F
 -0.000000 -0.000000  0.400000      27 t-inv F
  0.250000  0.000000  0.400000      28 t-inv F
  0.500000  0.000000  0.400000      29 t-inv F
 -0.250000  0.000000  0.400000      30 t-inv F
  0.000000  0.250000  0.400000      31 t-inv F
  0.250000  0.250000  0.400000      32 t-inv F
  0.500000  0.250000  0.400000      33 t-inv F
 -0.250000  0.250000  0.400000      34 t-inv F
  0.000000  0.500000  0.400000      35 t-inv F
  0.250000  0.500000  0.400000      36 t-inv F
  0.500000  0.500000  0.400000      37 t-inv F
 -0.250000  0.500000  0.400000      38 t-inv F
  0.000000 -0.250000  0.400000      39 t-inv F
  0.250000 -0.250000  0.400000      40 t-inv F
  0.500000 -0.250000  0.400000      41 t-inv F
 -0.250000 -0.250000  0.400000      42 t-inv F
 -0.250000 -0.000000 -0.000000       2 t-inv T
 -0.000000 -0.250000 -0.000000       4 t-inv T
 -0.250000 -0.250000  0.000000       5 t-inv T
 -0.500000 -0.250000  0.000000       6 t-inv T
  0.250000 -0.250000  0.000000       7 t-inv T
 -0.250000 -0.500000  0.000000       9 t-inv T
  0.000000  0.000000 -0.200000      11 t-inv T
 -0.250000 -0.000000 -0.200000      12 t-inv T
 -0.500000 -0.000000 -0.200000      13 t-inv T
  0.250000  0.000000 -0.200000      14 t-inv T
 -0.000000 -0.250000 -0.200000      15 t-inv T
 -0.250000 -0.250000 -0.200000      16 t-inv T
 -0.500000 -0.250000 -0.200000      17 t-inv T
  0.250000 -0.250000 -0.200000      18 t-inv T
 -0.000000 -0.500000 -0.200000      19 t-inv T
 -0.250000 -0.500000 -0.200000      20 t-inv T
 -0.500000 -0.500000 -0.200000      21 t-inv T
  0.250000 -0.500000 -0.200000      22 t-inv T
  0.000000  0.250000 -0.200000      23 t-inv T
 -0.250000  0.250000 -0.200000      24 t-inv T
 -0.500000  0.250000 -0.200000      25 t-inv T
  0.250000  0.250000 -0.200000      26 t-inv T
  0.000000  0.000000 -0.400000      27 t-inv T
 -0.250000 -0.000000 -0.400000      28 t-inv T
 -0.500000 -0.000000 -0.400000      29 t-inv T
  0.250000 -0.000000 -0.400000      30 t-inv T
 -0.000000 -0.250000 -0.400000      31 t-inv T
 -0.250000 -0.250000 -0.400000      32 t-inv T
 -0.500000 -0.250000 -0.400000      33 t-inv T
  0.250000 -0.250000 -0.400000      34 t-inv T
 -0.000000 -0.500000 -0.400000      35 t-inv T
 -0.250000 -0.500000 -0.400000      36 t-inv T
 -0.500000 -0.500000 -0.400000      37 t-inv T
  0.250000 -0.500000 -0.400000      38 t-inv T
 -0.000000  0.250000 -0.400000      39 t-inv T
 -0.250000  0.250000 -0.400000      40 t-inv T
 -0.500000  0.250000 -0.400000      41 t-inv T
  0.250000  0.250000 -0.400000      42 t-inv T


--------------------------------------------------------------------------------------------------------




 Dimension of arrays:
   k-points           NKPTS =     42   k-points in BZ     NKDIM =     80   number of bands    NBANDS=     80
   number of dos      NEDOS =    301   number of ions     NIONS =     12
   non local maximal  LDIM  =      6   non local SUM 2l+1 LMDIM =     18
   total plane-waves  NPLWV =  32768
   max r-space proj   IRMAX =      1   max aug-charges    IRDMAX=   8224
   dimension x,y,z NGX =    32 NGY =   32 NGZ =   32
   dimension x,y,z NGXF=    64 NGYF=   64 NGZF=   64
   support grid    NGXF=    64 NGYF=   64 NGZF=   64
   ions per type =               4   2   6
 NGX,Y,Z   is equivalent  to a cutoff of   8.18,  8.18,  8.27 a.u.
 NGXF,Y,Z  is equivalent  to a cutoff of  16.37, 16.37, 16.55 a.u.


 I would recommend the setting:
   dimension x,y,z NGX =    32 NGY =   32 NGZ =   31
 SYSTEM =  CGS                                     
 POSCAR =  Cu Ge S                                 

 Startparameter for this run:
   NWRITE =      2    write-flag & timer
   PREC   = normal    normal or accurate (medium, high low for compatibility)
   ISTART =      1    job   : 0-new  1-cont  2-samecut
   ICHARG =      0    charge: 1-file 2-atom 10-const
   ISPIN  =      1    spin polarized calculation?
   LNONCOLLINEAR =      F non collinear calculations
   LSORBIT =      F    spin-orbit coupling
   INIWAV =      1    electr: 0-lowe 1-rand  2-diag
   LASPH  =      F    aspherical Exc in radial PAW
   METAGGA=      F    non-selfconsistent MetaGGA calc.

 Electronic Relaxation 1
   ENCUT  =  400.0 eV  29.40 Ry    5.42 a.u.  10.60 10.60 10.48*2*pi/ulx,y,z
   ENINI  =  400.0     initial cutoff
   ENAUG  =  758.2 eV  augmentation charge cutoff
   NELM   =     60;   NELMIN=  2; NELMDL=  0     # of ELM steps 
   EDIFF  = 0.1E-04   stopping-criterion for ELM
   LREAL  =      F    real-space projection
   NLSPLINE    = F    spline interpolate recip. space projectors
   LCOMPAT=      F    compatible to vasp.4.4
   GGA_COMPAT  = T    GGA compatible to vasp.4.4-vasp.4.6
   LMAXPAW     = -100 max onsite density
   LMAXMIX     =    2 max onsite mixed and CHGCAR
   VOSKOWN=      0    Vosko Wilk Nusair interpolation
   ROPT   =    0.00000   0.00000   0.00000
 Ionic relaxation
   EDIFFG = 0.1E-03   stopping-criterion for IOM
   NSW    =      0    number of steps for IOM
   NBLOCK =      1;   KBLOCK =      1    inner block; outer block 
   IBRION =     -1    ionic relax: 0-MD 1-quasi-New 2-CG
   NFREE  =      0    steps in history (QN), initial steepest desc. (CG)
   ISIF   =      0    stress and relaxation
   IWAVPR =     10    prediction:  0-non 1-charg 2-wave 3-comb
   ISYM   =      3    0-nonsym 1-usesym 2-fastsym
   LCORR  =      T    Harris-Foulkes like correction to forces

   POTIM  = 0.5000    time-step for ionic-motion
   TEIN   =    0.0    initial temperature
   TEBEG  =    0.0;   TEEND  =   0.0 temperature during run
   SMASS  =  -3.00    Nose mass-parameter (am)
   estimated Nose-frequenzy (Omega)   =  0.10E-29 period in steps =****** mass=  -0.966E-27a.u.
   SCALEE = 1.0000    scale energy and forces
   NPACO  =    256;   APACO  = 16.0  distance and # of slots for P.C.
   PSTRESS=    0.0 pullay stress

  Mass of Ions in am
   POMASS =  63.55 72.61 32.07
  Ionic Valenz
   ZVAL   =  17.00  4.00  6.00
  Atomic Wigner-Seitz radii
   RWIGS  =  -1.00 -1.00 -1.00
  virtual crystal weights 
   VCA    =   1.00  1.00  1.00
   NELECT =     112.0000    total number of electrons
   NUPDOWN=      -1.0000    fix difference up-down

 DOS related values:
   EMIN   =  10.00;   EMAX   =-10.00  energy-range for DOS
   EFERMI =   0.00
   ISMEAR =     1;   SIGMA  =   0.10  broadening in eV -4-tet -1-fermi 0-gaus

 Electronic relaxation 2 (details)
   IALGO  =     53    algorithm
   LDIAG  =      T    sub-space diagonalisation (order eigenvalues)
   LSUBROT=      T    optimize rotation matrix (better conditioning)
   TURBO    =      0    0=normal 1=particle mesh
   IRESTART =      0    0=no restart 2=restart with 2 vectors
   NREBOOT  =      0    no. of reboots
   NMIN     =      0    reboot dimension
   EREF     =   0.00    reference energy to select bands
   IMIX   =      4    mixing-type and parameters
     AMIX     =   0.40;   BMIX     =  1.00
     AMIX_MAG =   1.60;   BMIX_MAG =  1.00
     AMIN     =   0.10
     WC   =   100.;   INIMIX=   1;  MIXPRE=   1;  MAXMIX= -45

 Intra band minimization:
   WEIMIN = 0.0000     energy-eigenvalue tresh-hold
   EBREAK =  0.31E-07  absolut break condition
   DEPER  =   0.30     relativ break condition  

   TIME   =   0.40     timestep for ELM

  volume/ion in A,a.u.               =      18.49       124.79
  Fermi-wavevector in a.u.,A,eV,Ry     =   1.303450  2.463163 23.116052  1.698982
  Thomas-Fermi vector in A             =   2.434451
 
 Write flags
   LWAVE  =      T    write WAVECAR
   LCHARG =      T    write CHGCAR
   LVTOT  =      F    write LOCPOT, total local potential
   LVHAR  =      F    write LOCPOT, Hartree potential only
   LELF   =      F    write electronic localiz. function (ELF)
   LORBIT =      0    0 simple, 1 ext, 2 COOP (PROOUT)


 Dipole corrections
   LMONO  =      F    monopole corrections only (constant potential shift)
   LDIPOL =      F    correct potential (dipole corrections)
   IDIPOL =      0    1-x, 2-y, 3-z, 4-all directions 
   EPSILON=  1.0000000 bulk dielectric constant

 Exchange correlation treatment:
   GGA     =    PE    GGA type
   LEXCH   =     8    internal setting for exchange type
   VOSKOWN=      0    Vosko Wilk Nusair interpolation
   EXXOEP  =     0    0=HF, 1=EXX-LHF (local Hartree Fock) 2=EXX OEP
   LHFCALC =     T    Hartree Fock is set to
   LSYMGRAD=     F    symmetrize gradient (conserves proper symmetry)
   PRECFOCK=fast      Normal, Fast or Accurate (Low or Medium for compatibility)
   LRHFCALC=     F    long range Hartree Fock
   LRSCOR  =     F    long range correlation only (use DFT for short range part)
   LTHOMAS =     F    Thomas Fermi screening in HF
   LMODELHF=     F    short range full HF, long range fraction AEXX
   ENCUT4O =  -1.0   cutoff for four orbital integrals eV
   LMAXFOCK=     4    L truncation for augmentation on plane wave grid
   LMAXFOCKAE=  -1    L truncation for all-electron charge restoration on plane wave grid
   NMAXFOCKAE=   1    number of basis functions for all-electron charge restoration
   LFOCKAEDFT=     F  apply the AE augmentation even for DFT
   NKREDX  =     1    reduce k-point grid by
   NKREDY  =     1    reduce k-point grid by
   NKREDZ  =     1    reduce k-point grid by
   SHIFTRED=     F    shift reduced grid of Gamma
   HFKIDENT=     F    idential grid for each k-point
   ODDONLY =     F    use only odd q-grid points
   EVENONLY=     F    use only even q-grid points
   HFALPHA =   -1.0000 decay constant for conv. correction
   MCALPHA =    0.0000 extent of test-charge in conv. correction in multipole expansion
   AEXX    =    0.2500 exact exchange contribution
   HFSCREEN=    0.2000 screening length (either q_TF or 0.3 A-1)
   HFSCREENC=   0.2000 screening length for correlation (either q_TF or 0.3 A-1)
   HFRCUT  =    0.0000 spherical cutoff for potential kernel
   ALDAX   =    0.7500 LDA exchange part
   AGGAX   =    0.7500 GGA exchange part
   ALDAC   =    1.0000 LDA correlation
   AGGAC   =    1.0000 GGA correlation
   NBANDSGWLOW=     1    first orbital included in HF term
 Linear response parameters
   LEPSILON=     F    determine dielectric tensor
   LRPA    =     F    only Hartree local field effects (RPA)
   LNABLA  =     F    use nabla operator in PAW spheres
   LVEL    =     F    velocity operator in full k-point grid
   LINTERFAST=   F  fast interpolation
   KINTER  =     0    interpolate to denser k-point grid
   CSHIFT  =0.1000    complex shift for real part using Kramers Kronig
   OMEGAMAX=  -1.0    maximum frequency
   DEG_THRESHOLD= 0.2000000E-02 threshold for treating states as degnerate
   RTIME   =    0.100 relaxation time in fs

 Orbital magnetization related:
   ORBITALMAG=     F  switch on orbital magnetization
   LCHIMAG   =     F  perturbation theory with respect to B field
   DQ        =  0.001000  dq finite difference perturbation B field



--------------------------------------------------------------------------------------------------------


 Static calculation
 charge density and potential will be updated during run
 non-spin polarized calculation
 Conjugate gradient for all bands, subspace preconditioning
 perform sub-space diagonalisation
    before iterative eigenvector-optimisation
 modified Broyden-mixing scheme, WC =      100.0
 initial mixing is a Kerker type mixing with AMIX =  0.4000 and BMIX =      1.0000
 Hartree-type preconditioning will be used
 using additional bands           24
 reciprocal scheme for non local part
 use partial core corrections
 no Harris-corrections to forces 
 use gradient corrections 
 use of overlap-Matrix (Vanderbilt PP)
 Methfessel and Paxton  Order N= 1 SIGMA  =   0.10


--------------------------------------------------------------------------------------------------------


  energy-cutoff  :      400.00
  volume of cell :      221.90
      direct lattice vectors                 reciprocal lattice vectors
     3.224796000 -5.643830000  0.031572000     0.154525165 -0.088592321  0.053460880
     3.224796000  5.643830000  0.031572000     0.154525165  0.088592321  0.053460880
    -2.101946000  0.000000000  6.075537000    -0.001606004  0.000000000  0.164038877

  length of vectors
     6.500240234  6.500240234  6.428866683     0.185969598  0.185969598  0.164046738


 
 old parameters found on file WAVECAR:
  energy-cutoff  :      400.00
  volume of cell :      222.35
      direct lattice vectors                 reciprocal lattice vectors
     3.227235519 -5.642745207  0.030241751     0.154430495 -0.088609353  0.053450002
     3.227235519  5.642745207  0.030241751     0.154430495  0.088609353  0.053450002
    -2.106135241  0.000000000  6.085154262    -0.001534965  0.000000000  0.163803104

  length of vectors

 
 k-points in units of 2pi/SCALE and weight: pymatgen 4.7.6+ generated KPOINTS with g
   0.00000000  0.00000000  0.00000000       0.013
   0.03863129 -0.02214808  0.01336522       0.025
   0.07726258 -0.04429616  0.02673044       0.013
   0.03863129  0.02214808  0.01336522       0.025
   0.07726258  0.00000000  0.02673044       0.025
   0.11589387 -0.02214808  0.04009566       0.025
   0.00000000  0.04429616  0.00000000       0.025
   0.07726258  0.04429616  0.02673044       0.013
   0.11589387  0.02214808  0.04009566       0.025
   0.15452516  0.00000000  0.05346088       0.013
  -0.00032120  0.00000000  0.03280778       0.025
   0.03831009 -0.02214808  0.04617300       0.025
   0.07694138 -0.04429616  0.05953822       0.025
  -0.03895249  0.02214808  0.01944256       0.025
   0.03831009  0.02214808  0.04617300       0.025
   0.07694138  0.00000000  0.05953822       0.025
   0.11557267 -0.02214808  0.07290344       0.025
  -0.00032120  0.04429616  0.03280778       0.025
   0.07694138  0.04429616  0.05953822       0.025
   0.11557267  0.02214808  0.07290344       0.025
   0.15420396  0.00000000  0.08626865       0.025
   0.03831009  0.06644424  0.04617300       0.025
  -0.03895249 -0.02214808  0.01944256       0.025
  -0.00032120 -0.04429616  0.03280778       0.025
   0.03831009 -0.06644424  0.04617300       0.025
  -0.07758378  0.00000000  0.00607734       0.025
  -0.00064240  0.00000000  0.06561555       0.025
   0.03798889 -0.02214808  0.07898077       0.025
   0.07662018 -0.04429616  0.09234599       0.025
  -0.03927369  0.02214808  0.05225033       0.025
   0.03798889  0.02214808  0.07898077       0.025
   0.07662018  0.00000000  0.09234599       0.025
   0.11525147 -0.02214808  0.10571121       0.025
  -0.00064240  0.04429616  0.06561555       0.025
   0.07662018  0.04429616  0.09234599       0.025
   0.11525147  0.02214808  0.10571121       0.025
   0.15388276  0.00000000  0.11907643       0.025
   0.03798889  0.06644424  0.07898077       0.025
  -0.03927369 -0.02214808  0.05225033       0.025
  -0.00064240 -0.04429616  0.06561555       0.025
   0.03798889 -0.06644424  0.07898077       0.025
  -0.07790498  0.00000000  0.03888511       0.025
 
 k-points in reciprocal lattice and weights: pymatgen 4.7.6+ generated KPOINTS with g
   0.00000000  0.00000000  0.00000000       0.013
   0.25000000  0.00000000  0.00000000       0.025
   0.50000000  0.00000000  0.00000000       0.013
   0.00000000  0.25000000  0.00000000       0.025
   0.25000000  0.25000000  0.00000000       0.025
   0.50000000  0.25000000 -0.00000000       0.025
  -0.25000000  0.25000000  0.00000000       0.025
   0.00000000  0.50000000  0.00000000       0.013
   0.25000000  0.50000000 -0.00000000       0.025
   0.50000000  0.50000000  0.00000000       0.013
  -0.00000000 -0.00000000  0.20000000       0.025
   0.25000000  0.00000000  0.20000000       0.025
   0.50000000  0.00000000  0.20000000       0.025
  -0.25000000 -0.00000000  0.20000000       0.025
   0.00000000  0.25000000  0.20000000       0.025
   0.25000000  0.25000000  0.20000000       0.025
   0.50000000  0.25000000  0.20000000       0.025
  -0.25000000  0.25000000  0.20000000       0.025
   0.00000000  0.50000000  0.20000000       0.025
   0.25000000  0.50000000  0.20000000       0.025
   0.50000000  0.50000000  0.20000000       0.025
  -0.25000000  0.50000000  0.20000000       0.025
  -0.00000000 -0.25000000  0.20000000       0.025
   0.25000000 -0.25000000  0.20000000       0.025
   0.50000000 -0.25000000  0.20000000       0.025
  -0.25000000 -0.25000000  0.20000000       0.025
  -0.00000000 -0.00000000  0.40000000       0.025
   0.25000000  0.00000000  0.40000000       0.025
   0.50000000  0.00000000  0.40000000       0.025
  -0.25000000  0.00000000  0.40000000       0.025
   0.00000000  0.25000000  0.40000000       0.025
   0.25000000  0.25000000  0.40000000       0.025
   0.50000000  0.25000000  0.40000000       0.025
  -0.25000000  0.25000000  0.40000000       0.025
   0.00000000  0.50000000  0.40000000       0.025
   0.25000000  0.50000000  0.40000000       0.025
   0.50000000  0.50000000  0.40000000       0.025
  -0.25000000  0.50000000  0.40000000       0.025
   0.00000000 -0.25000000  0.40000000       0.025
   0.25000000 -0.25000000  0.40000000       0.025
   0.50000000 -0.25000000  0.40000000       0.025
  -0.25000000 -0.25000000  0.40000000       0.025
 
 position of ions in fractional coordinates (direct lattice) 
   0.61844300  0.12117100  0.11953300
   0.12117100  0.61844300  0.61953300
   0.96295700  0.79032200  0.11881300
   0.79032200  0.96295700  0.61881300
   0.43819360  0.26728100  0.59904700
   0.26728100  0.43973200  0.09904700
   0.07949800  0.91167500  0.49736300
   0.57140300  0.41236400  0.98018400
   0.73711100  0.25006200  0.49504900
   0.41236400  0.57140300  0.48018400
   0.91167500  0.07949800  0.99736300
   0.25006200  0.73711100  0.99504900
 
 position of ions in cartesian coordinates  (Angst):
   2.13385236 -2.80651863  0.74957826
   1.08287936  2.80651863  3.78734676
   5.40422860 -0.97432259  0.77720730
   4.35325560  0.97432259  3.81497580
   1.01584721 -0.96460163  3.66180546
   2.07178125  0.97328413  0.62408553
   2.15090056  4.69666552  3.05304062
   1.11215405 -0.89758908  5.98620365
   2.14286528 -2.74882176  3.03885554
   2.16312705  0.89758908  2.94843515
   1.09992756 -4.69666552  6.09080912
   1.09189228  2.74882176  6.07662404
 


--------------------------------------------------------------------------------------------------------


 k-point  1 :   0.0000 0.0000 0.0000  plane waves:    4051
 k-point  2 :   0.2500 0.0000 0.0000  plane waves:    4032
 k-point  3 :   0.5000 0.0000 0.0000  plane waves:    4030
 k-point  4 :   0.0000 0.2500 0.0000  plane waves:    4032
 k-point  5 :   0.2500 0.2500 0.0000  plane waves:    4038
 k-point  6 :   0.5000 0.2500-0.0000  plane waves:    4037
 k-point  7 :  -0.2500 0.2500 0.0000  plane waves:    4042
 k-point  8 :   0.0000 0.5000 0.0000  plane waves:    4030
 k-point  9 :   0.2500 0.5000-0.0000  plane waves:    4037
 k-point 10 :   0.5000 0.5000 0.0000  plane waves:    4026
 k-point 11 :  -0.0000-0.0000 0.2000  plane waves:    4046
 k-point 12 :   0.2500 0.0000 0.2000  plane waves:    4034
 k-point 13 :   0.5000 0.0000 0.2000  plane waves:    4025
 k-point 14 :  -0.2500-0.0000 0.2000  plane waves:    4044
 k-point 15 :   0.0000 0.2500 0.2000  plane waves:    4034
 k-point 16 :   0.2500 0.2500 0.2000  plane waves:    4017
 k-point 17 :   0.5000 0.2500 0.2000  plane waves:    4039
 k-point 18 :  -0.2500 0.2500 0.2000  plane waves:    4042
 k-point 19 :   0.0000 0.5000 0.2000  plane waves:    4025
 k-point 20 :   0.2500 0.5000 0.2000  plane waves:    4039
 k-point 21 :   0.5000 0.5000 0.2000  plane waves:    4030
 k-point 22 :  -0.2500 0.5000 0.2000  plane waves:    4030
 k-point 23 :  -0.0000-0.2500 0.2000  plane waves:    4044
 k-point 24 :   0.2500-0.2500 0.2000  plane waves:    4042
 k-point 25 :   0.5000-0.2500 0.2000  plane waves:    4030
 k-point 26 :  -0.2500-0.2500 0.2000  plane waves:    4020
 k-point 27 :  -0.0000-0.0000 0.4000  plane waves:    4027
 k-point 28 :   0.2500 0.0000 0.4000  plane waves:    4034
 k-point 29 :   0.5000 0.0000 0.4000  plane waves:    4013
 k-point 30 :  -0.2500 0.0000 0.4000  plane waves:    4042
 k-point 31 :   0.0000 0.2500 0.4000  plane waves:    4034
 k-point 32 :   0.2500 0.2500 0.4000  plane waves:    4009
 k-point 33 :   0.5000 0.2500 0.4000  plane waves:    4026
 k-point 34 :  -0.2500 0.2500 0.4000  plane waves:    4027
 k-point 35 :   0.0000 0.5000 0.4000  plane waves:    4013
 k-point 36 :   0.2500 0.5000 0.4000  plane waves:    4026
 k-point 37 :   0.5000 0.5000 0.4000  plane waves:    4037
 k-point 38 :  -0.2500 0.5000 0.4000  plane waves:    4022
 k-point 39 :   0.0000-0.2500 0.4000  plane waves:    4042
 k-point 40 :   0.2500-0.2500 0.4000  plane waves:    4027
 k-point 41 :   0.5000-0.2500 0.4000  plane waves:    4022
 k-point 42 :  -0.2500-0.2500 0.4000  plane waves:    4015

 maximum and minimum number of plane-waves per node :      4051     4009

 maximum number of plane-waves:      4051
 maximum index in each direction: 
   IXMAX=   10   IYMAX=   10   IZMAX=   10
   IXMIN=  -11   IYMIN=  -11   IZMIN=  -10

 WARNING: aliasing errors must be expected set NGX to  44 to avoid them
 WARNING: aliasing errors must be expected set NGY to  44 to avoid them
 WARNING: aliasing errors must be expected set NGZ to  42 to avoid them
 aliasing errors are usually negligible using standard VASP settings
 and one can safely disregard these warnings

 serial   3D FFT for wavefunctions
 parallel 3D FFT for charge:
    minimum data exchange during FFTs selected (reduces bandwidth)


 FFT grid for exact exchange (Hartree Fock) 
  NGX = 24; NGY = 24; NGZ = 24

 
 Radii for the augmentation spheres in the non-local exchange
 for species   1 augmentation radius   1.120 (default was   0.830)
       energy cutoff for augmentation   1600.0
 for species   2 augmentation radius   1.570 (default was   1.163)
       energy cutoff for augmentation   1600.0
 for species   3 augmentation radius   1.034 (default was   0.970)
       energy cutoff for augmentation   1600.0

 total amount of memory used by VASP on root node   151697. kBytes
========================================================================

   base      :      30000. kBytes
   nonl-proj :      74517. kBytes
   fftplans  :        702. kBytes
   grid      :       2400. kBytes
   one-center:        186. kBytes
   HF        :        194. kBytes
   nonlr-proj:       1122. kBytes
   wavefun   :      42576. kBytes
 
 Broyden mixing: mesh for mixing (old mesh)
   NGX = 21   NGY = 21   NGZ = 21
  (NGX  = 64   NGY  = 64   NGZ  = 64)
  gives a total of   9261 points

 charge density for first step will be calculated from the start-wavefunctions


--------------------------------------------------------------------------------------------------------


 Maximum index for augmentation-charges          489 (set IRDMAX)


--------------------------------------------------------------------------------------------------------


 initial charge from wavefunction
 First call to EWALD:  gamma=   0.293
 Maximum number of real-space cells 3x 3x 3
 Maximum number of reciprocal cells 3x 3x 3

 FEWALD executed in parallel
    FEWALD:  cpu time    0.00: real time    0.00


----------------------------------------- Iteration    1(   1)  ---------------------------------------


    POTLOK:  cpu time    0.05: real time    0.05
    SETDIJ:  cpu time    1.87: real time    1.87
 
    SUBROT:  cpu time    0.71: real time    0.71
    SUBROT:  cpu time    0.33: real time    0.33
    SUBROT:  cpu time    0.34: real time    0.34
    --------------------------------------------
    SUBRT+:  cpu time    1.38: real time    1.38

 Broyden mixing:
  rms(total) = 0.33125E-01    rms(broyden)= 0.33111E-01
  rms(prec ) = 0.48691E-01
  weight for this iteration     100.00

 eigenvalues of (default mixing * dielectric matrix)
  average eigenvalue GAMMA=   1.7307
  1.0115  2.4500
 
    TRIAL :  cpu time  235.39: real time  235.51
    CORREC:  cpu time    0.00: real time    0.00
    CHARGE:  cpu time    0.06: real time    0.06
    --------------------------------------------
      LOOP:  cpu time  237.38: real time  237.51

 eigenvalue-minimisations  :     0
 total energy-change (2. order) : 0.7551937E+02  (-0.2131585E+03)
 number of electron     112.0001480 magnetization 
 augmentation part       38.9111336 magnetization 

 Free energy of the ion-electron system (eV)
  ---------------------------------------------------
  alpha Z        PSCENC =       339.31929130
  Ewald energy   TEWEN  =     -9064.85145659
  -1/2 Hartree   DENC   =     -8067.43007746
  -exchange  EXHF       =       327.44986781
  -V(xc)+E(xc)   XCENC  =       369.90462869
  PAW double counting   =     16899.34513142   -17392.15973739
  entropy T*S    EENTRO =        -0.00145778
  eigenvalues    EBANDS =     -1657.04196039
  atomic energy  EATOM  =     18320.98302006
  ---------------------------------------------------
  free energy    TOTEN  =        75.51937075 eV

  energy without entropy =       75.52082853  energy(sigma->0) =       75.51985668


--------------------------------------------------------------------------------------------------------




----------------------------------------- Iteration    1(   2)  ---------------------------------------


    POTLOK:  cpu time    0.05: real time    0.05
    SETDIJ:  cpu time    1.88: real time    1.88
 
    SUBROT:  cpu time    0.68: real time    0.68
    SUBROT:  cpu time    0.35: real time    0.35
    SUBROT:  cpu time    0.35: real time    0.35
    SUBROT:  cpu time    0.35: real time    0.35
    --------------------------------------------
    SUBRT+:  cpu time    1.72: real time    1.73

 Broyden mixing:
  rms(total) = 0.27810E-01    rms(broyden)= 0.27800E-01
  rms(prec ) = 0.50882E-01
  weight for this iteration     100.00

 eigenvalues of (default mixing * dielectric matrix)
  average eigenvalue GAMMA=   1.5587
  2.5464  1.2702  0.8595
 
    TRIAL :  cpu time  242.64: real time  242.44
    CORREC:  cpu time    0.00: real time    0.00
    CHARGE:  cpu time    0.06: real time    0.06
    --------------------------------------------
      LOOP:  cpu time  244.63: real time  244.43

 eigenvalue-minimisations  :     0
 total energy-change (2. order) :-0.8390357E+02  (-0.1468733E+03)
 number of electron     112.0001385 magnetization 
 augmentation part       35.4544154 magnetization 

 Free energy of the ion-electron system (eV)
  ---------------------------------------------------
  alpha Z        PSCENC =       339.31929130
  Ewald energy   TEWEN  =     -9064.85145659
  -1/2 Hartree   DENC   =     -8370.17302802
  -exchange  EXHF       =       338.95555007
  -V(xc)+E(xc)   XCENC  =       377.31780245
  PAW double counting   =     17400.29237157   -17939.40673872
  entropy T*S    EENTRO =        -0.00073152
  eigenvalues    EBANDS =     -1410.81955367
  atomic energy  EATOM  =     18320.98302006
  ---------------------------------------------------
  free energy    TOTEN  =        -8.38419932 eV

  energy without entropy =       -8.38346780  energy(sigma->0) =       -8.38395548


--------------------------------------------------------------------------------------------------------




----------------------------------------- Iteration    1(   3)  ---------------------------------------


    POTLOK:  cpu time    0.05: real time    0.05
    SETDIJ:  cpu time    1.87: real time    1.87
 
    SUBROT:  cpu time    0.69: real time    0.70
    SUBROT:  cpu time    0.33: real time    0.33
    SUBROT:  cpu time    0.35: real time    0.35
    SUBROT:  cpu time    0.39: real time    0.39
    --------------------------------------------
    SUBRT+:  cpu time    1.76: real time    1.76

 Broyden mixing:
  rms(total) = 0.28086E-01    rms(broyden)= 0.28075E-01
  rms(prec ) = 0.52341E-01
  weight for this iteration     100.00

 eigenvalues of (default mixing * dielectric matrix)
  average eigenvalue GAMMA=   1.7744
  1.0116  2.4991  1.8126
 
    TRIAL :  cpu time  241.88: real time  241.67
    CORREC:  cpu time    0.00: real time    0.00
    CHARGE:  cpu time    0.05: real time    0.06
    --------------------------------------------
      LOOP:  cpu time  243.86: real time  243.65

 eigenvalue-minimisations  :     0
 total energy-change (2. order) :-0.6781956E+01  (-0.2038175E+03)
 number of electron     112.0001510 magnetization 
 augmentation part       39.6845934 magnetization 

 Free energy of the ion-electron system (eV)
  ---------------------------------------------------
  alpha Z        PSCENC =       339.31929130
  Ewald energy   TEWEN  =     -9064.85145659
  -1/2 Hartree   DENC   =     -7477.58755215
  -exchange  EXHF       =       324.98724404
  -V(xc)+E(xc)   XCENC  =       357.39416851
  PAW double counting   =     15149.52964071   -15579.00775646
  entropy T*S    EENTRO =         0.00014312
  eigenvalues    EBANDS =     -2385.93202323
  atomic energy  EATOM  =     18320.98302006
  ---------------------------------------------------
  free energy    TOTEN  =       -15.16615534 eV

  energy without entropy =      -15.16629846  energy(sigma->0) =      -15.16620304


--------------------------------------------------------------------------------------------------------




----------------------------------------- Iteration    1(   4)  ---------------------------------------


    POTLOK:  cpu time    0.05: real time    0.05
    SETDIJ:  cpu time    1.87: real time    1.87
 
    SUBROT:  cpu time    0.71: real time    0.71
    SUBROT:  cpu time    0.34: real time    0.34
    SUBROT:  cpu time    0.33: real time    0.33
    SUBROT:  cpu time    0.34: real time    0.34
    SUBROT:  cpu time    0.36: real time    0.36
    --------------------------------------------
    SUBRT+:  cpu time    2.09: real time    2.09

 Broyden mixing:
  rms(total) = 0.11610E+00    rms(broyden)= 0.11590E+00
  rms(prec ) = 0.20464E+00
  weight for this iteration     100.00

 eigenvalues of (default mixing * dielectric matrix)
  average eigenvalue GAMMA=   1.2185
  2.5528  1.2822  0.6512  0.3876
 
    TRIAL :  cpu time  243.77: real time  243.56
    CORREC:  cpu time    0.00: real time    0.00
    CHARGE:  cpu time    0.07: real time    0.07
    --------------------------------------------
      LOOP:  cpu time  245.77: real time  245.56

 eigenvalue-minimisations  :     0
 total energy-change (2. order) :-0.7474129E+01  (-0.1074194E+03)
 number of electron     112.0001430 magnetization 
 augmentation part       37.2420856 magnetization 

 Free energy of the ion-electron system (eV)
  ---------------------------------------------------
  alpha Z        PSCENC =       339.31929130
  Ewald energy   TEWEN  =     -9064.85145659
  -1/2 Hartree   DENC   =     -8543.10902065
  -exchange  EXHF       =       342.99453025
  -V(xc)+E(xc)   XCENC  =       381.65497551
  PAW double counting   =     17632.59120257   -18213.31925077
  entropy T*S    EENTRO =         0.00036558
  eigenvalues    EBANDS =     -1218.90371930
  atomic energy  EATOM  =     18320.98302006
  ---------------------------------------------------
  free energy    TOTEN  =       -22.64028451 eV

  energy without entropy =      -22.64065008  energy(sigma->0) =      -22.64040637


--------------------------------------------------------------------------------------------------------




----------------------------------------- Iteration    1(   5)  ---------------------------------------


    POTLOK:  cpu time    0.05: real time    0.05
    SETDIJ:  cpu time    1.87: real time    1.87
 
    SUBROT:  cpu time    0.71: real time    0.71
    SUBROT:  cpu time    0.34: real time    0.34
    SUBROT:  cpu time    0.34: real time    0.34
    SUBROT:  cpu time    0.34: real time    0.34
    --------------------------------------------
    SUBRT+:  cpu time    1.74: real time    1.75

 Broyden mixing:
  rms(total) = 0.46073E-01    rms(broyden)= 0.46062E-01
  rms(prec ) = 0.93458E-01
  weight for this iteration     100.00

 eigenvalues of (default mixing * dielectric matrix)
  average eigenvalue GAMMA=   1.6767
  2.4625  0.9363  1.6312
 
    TRIAL :  cpu time  241.83: real time  241.64
    CORREC:  cpu time    0.00: real time    0.00
    CHARGE:  cpu time    0.05: real time    0.05
    --------------------------------------------
      LOOP:  cpu time  243.81: real time  243.62

 eigenvalue-minimisations  :     0
 total energy-change (2. order) :-0.3816822E+02  (-0.1507907E+02)
 number of electron     112.0001430 magnetization 
 augmentation part       37.2450787 magnetization 

 Free energy of the ion-electron system (eV)
  ---------------------------------------------------
  alpha Z        PSCENC =       339.31929130
  Ewald energy   TEWEN  =     -9064.85145659
  -1/2 Hartree   DENC   =     -8007.69700343
  -exchange  EXHF       =       336.37500823
  -V(xc)+E(xc)   XCENC  =       368.38769305
  PAW double counting   =     15869.03873867   -16338.44104668
  entropy T*S    EENTRO =         0.00064304
  eigenvalues    EBANDS =     -1883.92311634
  atomic energy  EATOM  =     18320.98302006
  ---------------------------------------------------
  free energy    TOTEN  =       -60.80850614 eV

  energy without entropy =      -60.80914918  energy(sigma->0) =      -60.80872049


--------------------------------------------------------------------------------------------------------




----------------------------------------- Iteration    1(   6)  ---------------------------------------


    POTLOK:  cpu time    0.05: real time    0.05
    SETDIJ:  cpu time    1.87: real time    1.87
 
    SUBROT:  cpu time    0.70: real time    0.70
    SUBROT:  cpu time    0.35: real time    0.35
    SUBROT:  cpu time    0.35: real time    0.35
    SUBROT:  cpu time    0.35: real time    0.35
    --------------------------------------------
    SUBRT+:  cpu time    1.75: real time    1.75

 Broyden mixing:
  rms(total) = 0.27916E-02    rms(broyden)= 0.27909E-02
  rms(prec ) = 0.46041E-02
  weight for this iteration     100.00

 eigenvalues of (default mixing * dielectric matrix)
  average eigenvalue GAMMA=   1.8097
  1.0030  1.8977  2.5283
 
    TRIAL :  cpu time  242.38: real time  242.17
    CORREC:  cpu time    0.00: real time    0.00
    CHARGE:  cpu time    0.05: real time    0.05
    --------------------------------------------
      LOOP:  cpu time  244.35: real time  244.14

 eigenvalue-minimisations  :     0
 total energy-change (2. order) :-0.5118730E+01  (-0.8187220E+01)
 number of electron     112.0001460 magnetization 
 augmentation part       38.2281578 magnetization 

 Free energy of the ion-electron system (eV)
  ---------------------------------------------------
  alpha Z        PSCENC =       339.31929130
  Ewald energy   TEWEN  =     -9064.85145659
  -1/2 Hartree   DENC   =     -8000.91257769
  -exchange  EXHF       =       337.13702206
  -V(xc)+E(xc)   XCENC  =       368.77685427
  PAW double counting   =     15770.64518195   -16239.70025590
  entropy T*S    EENTRO =         0.00068181
  eigenvalues    EBANDS =     -1897.32495827
  atomic energy  EATOM  =     18320.98302006
  ---------------------------------------------------
  free energy    TOTEN  =       -65.92723577 eV

  energy without entropy =      -65.92791758  energy(sigma->0) =      -65.92746304


--------------------------------------------------------------------------------------------------------




----------------------------------------- Iteration    1(   7)  ---------------------------------------


    POTLOK:  cpu time    0.05: real time    0.06
    SETDIJ:  cpu time    1.87: real time    1.87
 
    SUBROT:  cpu time    0.71: real time    0.71
    SUBROT:  cpu time    0.34: real time    0.34
    SUBROT:  cpu time    0.34: real time    0.34
    SUBROT:  cpu time    0.34: real time    0.34
    --------------------------------------------
    SUBRT+:  cpu time    1.72: real time    1.73

 Broyden mixing:
  rms(total) = 0.13299E-01    rms(broyden)= 0.13295E-01
  rms(prec ) = 0.23581E-01
  weight for this iteration     100.00

 eigenvalues of (default mixing * dielectric matrix)
  average eigenvalue GAMMA=   1.6098
  2.5023  0.8899  1.4374
 
    TRIAL :  cpu time  247.18: real time  246.97
    CORREC:  cpu time    0.00: real time    0.00
    CHARGE:  cpu time    0.06: real time    0.06
    --------------------------------------------
      LOOP:  cpu time  249.17: real time  248.96

 eigenvalue-minimisations  :     0
 total energy-change (2. order) :-0.1541430E+01  (-0.4144792E+01)
 number of electron     112.0001443 magnetization 
 augmentation part       37.7047785 magnetization 

 Free energy of the ion-electron system (eV)
  ---------------------------------------------------
  alpha Z        PSCENC =       339.31929130
  Ewald energy   TEWEN  =     -9064.85145659
  -1/2 Hartree   DENC   =     -8243.32902599
  -exchange  EXHF       =       341.61736941
  -V(xc)+E(xc)   XCENC  =       374.56014741
  PAW double counting   =     16207.51603674   -16710.92881993
  entropy T*S    EENTRO =         0.00044820
  eigenvalues    EBANDS =     -1632.35591037
  atomic energy  EATOM  =     18320.98302006
  ---------------------------------------------------
  free energy    TOTEN  =       -67.46866614 eV

  energy without entropy =      -67.46911434  energy(sigma->0) =      -67.46881554


--------------------------------------------------------------------------------------------------------




----------------------------------------- Iteration    1(   8)  ---------------------------------------


    POTLOK:  cpu time    0.05: real time    0.05
    SETDIJ:  cpu time    1.96: real time    1.96
 
    SUBROT:  cpu time    0.70: real time    0.70
    SUBROT:  cpu time    0.34: real time    0.35
    SUBROT:  cpu time    0.37: real time    0.37
    SUBROT:  cpu time    0.36: real time    0.36
    --------------------------------------------
    SUBRT+:  cpu time    1.77: real time    1.80

 Broyden mixing:
  rms(total) = 0.84295E-02    rms(broyden)= 0.84270E-02
  rms(prec ) = 0.14118E-01
  weight for this iteration     100.00

 eigenvalues of (default mixing * dielectric matrix)
  average eigenvalue GAMMA=   1.6718
  2.4572  0.9466  1.6114
 
    TRIAL :  cpu time  242.49: real time  242.31
    CORREC:  cpu time    0.00: real time    0.00
    CHARGE:  cpu time    0.08: real time    0.08
    --------------------------------------------
      LOOP:  cpu time  244.58: real time  244.40

 eigenvalue-minimisations  :     0
 total energy-change (2. order) :-0.1614765E+01  (-0.7726571E+00)
 number of electron     112.0001443 magnetization 
 augmentation part       37.7243365 magnetization 

 Free energy of the ion-electron system (eV)
  ---------------------------------------------------
  alpha Z        PSCENC =       339.31929130
  Ewald energy   TEWEN  =     -9064.85145659
  -1/2 Hartree   DENC   =     -8116.39093762
  -exchange  EXHF       =       339.51420476
  -V(xc)+E(xc)   XCENC  =       371.37564835
  PAW double counting   =     15915.65762711   -16397.00537081
  entropy T*S    EENTRO =         0.00072781
  eigenvalues    EBANDS =     -1777.68590575
  atomic energy  EATOM  =     18320.98302006
  ---------------------------------------------------
  free energy    TOTEN  =       -69.08343099 eV

  energy without entropy =      -69.08415881  energy(sigma->0) =      -69.08367360


--------------------------------------------------------------------------------------------------------




----------------------------------------- Iteration    1(   9)  ---------------------------------------


    POTLOK:  cpu time    0.05: real time    0.05
    SETDIJ:  cpu time    1.97: real time    1.97
 
    SUBROT:  cpu time    0.75: real time    0.75
    SUBROT:  cpu time    0.35: real time    0.35
    SUBROT:  cpu time    0.35: real time    0.35
    SUBROT:  cpu time    0.36: real time    0.36
    --------------------------------------------
    SUBRT+:  cpu time    1.81: real time    1.82

 Broyden mixing:
  rms(total) = 0.51993E-03    rms(broyden)= 0.51932E-03
  rms(prec ) = 0.82374E-03
  weight for this iteration     100.00

 eigenvalues of (default mixing * dielectric matrix)
  average eigenvalue GAMMA=   1.6695
  2.5180  0.9984  1.4923
 
    TRIAL :  cpu time  242.10: real time  241.91
    CORREC:  cpu time    0.00: real time    0.00
    CHARGE:  cpu time    0.06: real time    0.06
    --------------------------------------------
      LOOP:  cpu time  244.18: real time  243.99

 eigenvalue-minimisations  :     0
 total energy-change (2. order) :-0.3110357E+00  (-0.3867964E+00)
 number of electron     112.0001449 magnetization 
 augmentation part       37.9056851 magnetization 

 Free energy of the ion-electron system (eV)
  ---------------------------------------------------
  alpha Z        PSCENC =       339.31929130
  Ewald energy   TEWEN  =     -9064.85145659
  -1/2 Hartree   DENC   =     -8124.19903329
  -exchange  EXHF       =       339.59162077
  -V(xc)+E(xc)   XCENC  =       371.44257593
  PAW double counting   =     15912.27328483   -16393.53176669
  entropy T*S    EENTRO =         0.00086390
  eigenvalues    EBANDS =     -1770.42273078
  atomic energy  EATOM  =     18320.98302006
  ---------------------------------------------------
  free energy    TOTEN  =       -69.39446665 eV

  energy without entropy =      -69.39533055  energy(sigma->0) =      -69.39475462


--------------------------------------------------------------------------------------------------------




----------------------------------------- Iteration    1(  10)  ---------------------------------------


    POTLOK:  cpu time    0.06: real time    0.06
    SETDIJ:  cpu time    1.96: real time    1.96
 
    SUBROT:  cpu time    0.73: real time    0.73
    SUBROT:  cpu time    0.37: real time    0.37
    SUBROT:  cpu time    0.37: real time    0.37
    SUBROT:  cpu time    0.38: real time    0.38
    --------------------------------------------
    SUBRT+:  cpu time    1.85: real time    1.87

 Broyden mixing:
  rms(total) = 0.23075E-02    rms(broyden)= 0.23070E-02
  rms(prec ) = 0.38718E-02
  weight for this iteration     100.00

 eigenvalues of (default mixing * dielectric matrix)
  average eigenvalue GAMMA=   1.6776
  2.4766  0.9877  1.5685
 
    TRIAL :  cpu time  242.83: real time  242.63
    CORREC:  cpu time    0.00: real time    0.00
    CHARGE:  cpu time    0.07: real time    0.07
    --------------------------------------------
      LOOP:  cpu time  244.92: real time  244.72

 eigenvalue-minimisations  :     0
 total energy-change (2. order) :-0.1038140E+00  (-0.1526935E+00)
 number of electron     112.0001447 magnetization 
 augmentation part       37.8183222 magnetization 

 Free energy of the ion-electron system (eV)
  ---------------------------------------------------
  alpha Z        PSCENC =       339.31929130
  Ewald energy   TEWEN  =     -9064.85145659
  -1/2 Hartree   DENC   =     -8171.60939275
  -exchange  EXHF       =       340.39618024
  -V(xc)+E(xc)   XCENC  =       372.54047221
  PAW double counting   =     15994.11269499   -16482.10176190
  entropy T*S    EENTRO =         0.00074741
  eigenvalues    EBANDS =     -1718.28819216
  atomic energy  EATOM  =     18320.98302006
  ---------------------------------------------------
  free energy    TOTEN  =       -69.49828070 eV

  energy without entropy =      -69.49902810  energy(sigma->0) =      -69.49852983


--------------------------------------------------------------------------------------------------------




----------------------------------------- Iteration    1(  11)  ---------------------------------------


    POTLOK:  cpu time    0.05: real time    0.05
    SETDIJ:  cpu time    1.96: real time    1.96
 
    SUBROT:  cpu time    0.75: real time    0.75
    SUBROT:  cpu time    0.37: real time    0.37
    SUBROT:  cpu time    0.37: real time    0.37
    SUBROT:  cpu time    0.37: real time    0.37
    --------------------------------------------
    SUBRT+:  cpu time    1.85: real time    1.86

 Broyden mixing:
  rms(total) = 0.78532E-03    rms(broyden)= 0.78507E-03
  rms(prec ) = 0.15701E-02
  weight for this iteration     100.00

 eigenvalues of (default mixing * dielectric matrix)
  average eigenvalue GAMMA=   1.6689
  2.4947  0.9840  1.5281
 
    TRIAL :  cpu time  242.16: real time  241.96
    CORREC:  cpu time    0.00: real time    0.00
    CHARGE:  cpu time    0.09: real time    0.09
    --------------------------------------------
      LOOP:  cpu time  244.26: real time  244.06

 eigenvalue-minimisations  :     0
 total energy-change (2. order) :-0.6976413E-01  (-0.3688757E-01)
 number of electron     112.0001446 magnetization 
 augmentation part       37.7856149 magnetization 

 Free energy of the ion-electron system (eV)
  ---------------------------------------------------
  alpha Z        PSCENC =       339.31929130
  Ewald energy   TEWEN  =     -9064.85145659
  -1/2 Hartree   DENC   =     -8150.18972571
  -exchange  EXHF       =       340.06720076
  -V(xc)+E(xc)   XCENC  =       372.06604194
  PAW double counting   =     15941.94499447   -16426.88449125
  entropy T*S    EENTRO =         0.00062279
  eigenvalues    EBANDS =     -1742.02366723
  atomic energy  EATOM  =     18320.98302006
  ---------------------------------------------------
  free energy    TOTEN  =       -69.56804483 eV

  energy without entropy =      -69.56866761  energy(sigma->0) =      -69.56825242


--------------------------------------------------------------------------------------------------------




----------------------------------------- Iteration    1(  12)  ---------------------------------------


    POTLOK:  cpu time    0.05: real time    0.05
    SETDIJ:  cpu time    1.96: real time    1.96
 
    SUBROT:  cpu time    0.77: real time    0.77
    SUBROT:  cpu time    0.37: real time    0.37
    SUBROT:  cpu time    0.37: real time    0.37
    SUBROT:  cpu time    0.37: real time    0.37
    --------------------------------------------
    SUBRT+:  cpu time    1.88: real time    1.89

 Broyden mixing:
  rms(total) = 0.20951E-03    rms(broyden)= 0.20941E-03
  rms(prec ) = 0.45562E-03
  weight for this iteration     100.00

 eigenvalues of (default mixing * dielectric matrix)
  average eigenvalue GAMMA=   1.6273
  2.5078  0.9982  1.3759
 
    TRIAL :  cpu time  242.37: real time  242.18
    CORREC:  cpu time    0.00: real time    0.00
    CHARGE:  cpu time    0.09: real time    0.09
    --------------------------------------------
      LOOP:  cpu time  244.47: real time  244.29

 eigenvalue-minimisations  :     0
 total energy-change (2. order) :-0.1234326E-01  (-0.2288820E-01)
 number of electron     112.0001447 magnetization 
 augmentation part       37.8259791 magnetization 

 Free energy of the ion-electron system (eV)
  ---------------------------------------------------
  alpha Z        PSCENC =       339.31929130
  Ewald energy   TEWEN  =     -9064.85145659
  -1/2 Hartree   DENC   =     -8141.83808143
  -exchange  EXHF       =       339.95167012
  -V(xc)+E(xc)   XCENC  =       371.89170015
  PAW double counting   =     15920.12898799   -16403.98600271
  entropy T*S    EENTRO =         0.00056841
  eigenvalues    EBANDS =     -1751.18013977
  atomic energy  EATOM  =     18320.98302006
  ---------------------------------------------------
  free energy    TOTEN  =       -69.58038808 eV

  energy without entropy =      -69.58095649  energy(sigma->0) =      -69.58057755


--------------------------------------------------------------------------------------------------------




----------------------------------------- Iteration    1(  13)  ---------------------------------------


    POTLOK:  cpu time    0.05: real time    0.05
    SETDIJ:  cpu time    1.96: real time    1.96
 
    SUBROT:  cpu time    0.74: real time    0.74
    SUBROT:  cpu time    0.37: real time    0.37
    SUBROT:  cpu time    0.37: real time    0.37
    SUBROT:  cpu time    0.37: real time    0.37
    --------------------------------------------
    SUBRT+:  cpu time    1.85: real time    1.86

 Broyden mixing:
  rms(total) = 0.55735E-03    rms(broyden)= 0.55723E-03
  rms(prec ) = 0.94617E-03
  weight for this iteration     100.00

 eigenvalues of (default mixing * dielectric matrix)
  average eigenvalue GAMMA=   1.6905
  2.4809  0.9958  1.5948
 
    TRIAL :  cpu time  241.41: real time  241.88
    CORREC:  cpu time    0.00: real time    0.00
    CHARGE:  cpu time    0.08: real time    0.09
    --------------------------------------------
      LOOP:  cpu time  243.51: real time  244.00

 eigenvalue-minimisations  :     0
 total energy-change (2. order) :-0.9673147E-02  (-0.5127016E-02)
 number of electron     112.0001447 magnetization 
 augmentation part       37.8298497 magnetization 

 Free energy of the ion-electron system (eV)
  ---------------------------------------------------
  alpha Z        PSCENC =       339.31929130
  Ewald energy   TEWEN  =     -9064.85145659
  -1/2 Hartree   DENC   =     -8151.74515404
  -exchange  EXHF       =       340.12432720
  -V(xc)+E(xc)   XCENC  =       372.12596357
  PAW double counting   =     15936.33054002   -16421.68234115
  entropy T*S    EENTRO =         0.00055799
  eigenvalues    EBANDS =     -1740.19482000
  atomic energy  EATOM  =     18320.98302006
  ---------------------------------------------------
  free energy    TOTEN  =       -69.59006123 eV

  energy without entropy =      -69.59061922  energy(sigma->0) =      -69.59024723


--------------------------------------------------------------------------------------------------------




----------------------------------------- Iteration    1(  14)  ---------------------------------------


    POTLOK:  cpu time    0.05: real time    0.05
    SETDIJ:  cpu time    1.95: real time    1.96
 
    SUBROT:  cpu time    0.77: real time    0.77
    SUBROT:  cpu time    0.38: real time    0.38
    SUBROT:  cpu time    0.38: real time    0.38
    SUBROT:  cpu time    0.39: real time    0.39
    --------------------------------------------
    SUBRT+:  cpu time    1.91: real time    1.93

 Broyden mixing:
  rms(total) = 0.68634E-04    rms(broyden)= 0.68620E-04
  rms(prec ) = 0.14049E-03
  weight for this iteration     100.00

 eigenvalues of (default mixing * dielectric matrix)
  average eigenvalue GAMMA=   1.6510
  2.5179  0.9893  1.4459
 
    TRIAL :  cpu time  249.76: real time  250.33
    CORREC:  cpu time    0.00: real time    0.00
    CHARGE:  cpu time    0.09: real time    0.09
    --------------------------------------------
      LOOP:  cpu time  251.85: real time  252.44

 eigenvalue-minimisations  :     0
 total energy-change (2. order) :-0.2461247E-02  (-0.3787142E-02)
 number of electron     112.0001447 magnetization 
 augmentation part       37.8122886 magnetization 

 Free energy of the ion-electron system (eV)
  ---------------------------------------------------
  alpha Z        PSCENC =       339.31929130
  Ewald energy   TEWEN  =     -9064.85145659
  -1/2 Hartree   DENC   =     -8152.27035542
  -exchange  EXHF       =       340.12228410
  -V(xc)+E(xc)   XCENC  =       372.13519148
  PAW double counting   =     15934.25799042   -16419.77239362
  entropy T*S    EENTRO =         0.00057881
  eigenvalues    EBANDS =     -1739.51665221
  atomic energy  EATOM  =     18320.98302006
  ---------------------------------------------------
  free energy    TOTEN  =       -69.59252248 eV

  energy without entropy =      -69.59310128  energy(sigma->0) =      -69.59271541


--------------------------------------------------------------------------------------------------------




----------------------------------------- Iteration    1(  15)  ---------------------------------------


    POTLOK:  cpu time    0.05: real time    0.05
    SETDIJ:  cpu time    1.96: real time    1.96
 
    SUBROT:  cpu time    0.78: real time    0.78
    SUBROT:  cpu time    0.38: real time    0.38
    SUBROT:  cpu time    0.39: real time    0.39
    SUBROT:  cpu time    0.37: real time    0.37
    --------------------------------------------
    SUBRT+:  cpu time    1.92: real time    1.93

 Broyden mixing:
  rms(total) = 0.19456E-03    rms(broyden)= 0.19450E-03
  rms(prec ) = 0.33135E-03
  weight for this iteration     100.00

 eigenvalues of (default mixing * dielectric matrix)
  average eigenvalue GAMMA=   1.6771
  2.4732  0.9884  1.5696
 
    TRIAL :  cpu time  251.58: real time  251.37
    CORREC:  cpu time    0.00: real time    0.00
    CHARGE:  cpu time    0.08: real time    0.08
    --------------------------------------------
      LOOP:  cpu time  253.68: real time  253.47

 eigenvalue-minimisations  :     0
 total energy-change (2. order) :-0.1508886E-02  (-0.1040026E-02)
 number of electron     112.0001447 magnetization 
 augmentation part       37.8166203 magnetization 

 Free energy of the ion-electron system (eV)
  ---------------------------------------------------
  alpha Z        PSCENC =       339.31929130
  Ewald energy   TEWEN  =     -9064.85145659
  -1/2 Hartree   DENC   =     -8147.55489698
  -exchange  EXHF       =       340.03307288
  -V(xc)+E(xc)   XCENC  =       372.02385506
  PAW double counting   =     15922.19801069   -16407.10120447
  entropy T*S    EENTRO =         0.00059253
  eigenvalues    EBANDS =     -1744.64430212
  atomic energy  EATOM  =     18320.98302006
  ---------------------------------------------------
  free energy    TOTEN  =       -69.59403136 eV

  energy without entropy =      -69.59462390  energy(sigma->0) =      -69.59422887


--------------------------------------------------------------------------------------------------------




----------------------------------------- Iteration    1(  16)  ---------------------------------------


    POTLOK:  cpu time    0.06: real time    0.06
    SETDIJ:  cpu time    1.96: real time    1.96
 
    SUBROT:  cpu time    0.79: real time    0.79
    SUBROT:  cpu time    0.37: real time    0.38
    SUBROT:  cpu time    0.38: real time    0.38
    SUBROT:  cpu time    0.37: real time    0.38
    --------------------------------------------
    SUBRT+:  cpu time    1.92: real time    1.94

 Broyden mixing:
  rms(total) = 0.84736E-04    rms(broyden)= 0.84718E-04
  rms(prec ) = 0.14121E-03
  weight for this iteration     100.00

 eigenvalues of (default mixing * dielectric matrix)
  average eigenvalue GAMMA=   1.6872
  2.4860  0.9895  1.5860
 
    TRIAL :  cpu time  251.49: real time  251.75
    CORREC:  cpu time    0.00: real time    0.00
    CHARGE:  cpu time    0.09: real time    0.09
    --------------------------------------------
      LOOP:  cpu time  253.60: real time  253.86

 eigenvalue-minimisations  :     0
 total energy-change (2. order) :-0.5727291E-03  (-0.4105747E-03)
 number of electron     112.0001447 magnetization 
 augmentation part       37.8214356 magnetization 

 Free energy of the ion-electron system (eV)
  ---------------------------------------------------
  alpha Z        PSCENC =       339.31929130
  Ewald energy   TEWEN  =     -9064.85145659
  -1/2 Hartree   DENC   =     -8148.67514980
  -exchange  EXHF       =       340.05167689
  -V(xc)+E(xc)   XCENC  =       372.05109111
  PAW double counting   =     15923.05511127   -16408.14724287
  entropy T*S    EENTRO =         0.00059254
  eigenvalues    EBANDS =     -1743.38153802
  atomic energy  EATOM  =     18320.98302006
  ---------------------------------------------------
  free energy    TOTEN  =       -69.59460409 eV

[...]
     22      -2.2923      2.00000
     23      -1.9482      2.00000
     24      -1.6200      2.00000
     25      -1.2190      2.00000
     26      -1.0035      2.00000
     27      -0.9762      2.00000
     28      -0.7075      2.00000
     29      -0.5512      2.00000
     30      -0.3941      2.00000
     31      -0.2868      2.00000
     32      -0.1963      2.00000
     33      -0.1820      2.00000
     34      -0.1371      2.00000
     35      -0.0192      2.00000
     36       0.0184      2.00000
     37       1.2963      2.00000
     38       1.3081      2.00000
     39       1.3690      2.00000
     40       1.4117      2.00000
     41       1.4523      2.00000
     42       1.4672      2.00000
     43       1.5055      2.00000
     44       1.5504      2.00000
     45       1.7649      2.00000
     46       1.8949      2.00000
     47       1.9832      2.00000
     48       2.1527      2.00000
     49       2.3695      2.00000
     50       2.5757      2.00000
     51       2.7057      2.00000
     52       2.9088      2.00000
     53       3.0132      2.00000
     54       3.2222      2.00000
     55       3.4021      2.00000
     56       3.6585      2.00000
     57       6.3743     -0.00000
     58       6.5234     -0.00000
     59       7.7197      0.00000
     60       7.9008      0.00000
     61       8.2832      0.00000
     62       8.5750      0.00000
     63       9.3283      0.00000
     64       9.8451      0.00000
     65      10.0269      0.00000
     66      10.3473      0.00000
     67      10.5827      0.00000
     68      10.7867      0.00000
     69      10.9800      0.00000
     70      11.2540      0.00000
     71      11.3076      0.00000
     72      11.7069      0.00000
     73      12.2501      0.00000
     74      12.4648      0.00000
     75      13.0980      0.00000
     76      13.4833      0.00000
     77      13.8215      0.00000
     78      14.6850      0.00000
     79      15.0027      0.00000
     80      15.7182      0.00000

 k-point  40 :       0.2500   -0.2500    0.4000
  band No.  band energies     occupation 
      1     -68.6457      2.00000
      2     -68.6417      2.00000
      3     -68.6368      2.00000
      4     -68.6330      2.00000
      5     -68.6130      2.00000
      6     -68.6090      2.00000
      7     -68.5954      2.00000
      8     -68.5925      2.00000
      9     -68.5812      2.00000
     10     -68.5769      2.00000
     11     -68.5638      2.00000
     12     -68.5596      2.00000
     13     -12.2236      2.00000
     14     -11.8229      2.00000
     15     -10.8188      2.00000
     16     -10.6738      2.00000
     17     -10.3448      2.00000
     18     -10.2733      2.00000
     19      -5.4502      2.00000
     20      -5.1166      2.00000
     21      -2.4321      2.00000
     22      -2.1567      2.00000
     23      -2.0205      2.00000
     24      -1.5203      2.00000
     25      -1.3501      2.00000
     26      -1.1655      2.00000
     27      -0.9363      2.00000
     28      -0.8138      2.00000
     29      -0.5850      2.00000
     30      -0.5387      2.00000
     31      -0.2779      2.00000
     32      -0.2387      2.00000
     33      -0.1349      2.00000
     34      -0.0899      2.00000
     35      -0.0237      2.00000
     36       0.0331      2.00000
     37       1.3135      2.00000
     38       1.3463      2.00000
     39       1.3651      2.00000
     40       1.3979      2.00000
     41       1.4516      2.00000
     42       1.4816      2.00000
     43       1.4984      2.00000
     44       1.5647      2.00000
     45       1.8014      2.00000
     46       1.8461      2.00000
     47       1.9600      2.00000
     48       2.1092      2.00000
     49       2.2964      2.00000
     50       2.5321      2.00000
     51       2.6394      2.00000
     52       2.7688      2.00000
     53       2.9331      2.00000
     54       3.1617      2.00000
     55       3.3024      2.00000
     56       3.5749      2.00000
     57       6.5615     -0.00000
     58       6.7181     -0.00000
     59       7.9639      0.00000
     60       8.0023      0.00000
     61       8.7265      0.00000
     62       9.0981      0.00000
     63       9.4565      0.00000
     64       9.8232      0.00000
     65      10.2987      0.00000
     66      10.3634      0.00000
     67      10.7797      0.00000
     68      10.8448      0.00000
     69      11.1184      0.00000
     70      11.2723      0.00000
     71      11.3684      0.00000
     72      11.6209      0.00000
     73      12.0461      0.00000
     74      12.2923      0.00000
     75      12.6514      0.00000
     76      13.1218      0.00000
     77      13.2818      0.00000
     78      14.2359      0.00000
     79      15.6324      0.00000
     80      15.8477      0.00000

 k-point  41 :       0.5000   -0.2500    0.4000
  band No.  band energies     occupation 
      1     -68.6456      2.00000
      2     -68.6416      2.00000
      3     -68.6367      2.00000
      4     -68.6328      2.00000
      5     -68.6130      2.00000
      6     -68.6090      2.00000
      7     -68.5952      2.00000
      8     -68.5923      2.00000
      9     -68.5812      2.00000
     10     -68.5769      2.00000
     11     -68.5638      2.00000
     12     -68.5595      2.00000
     13     -12.0845      2.00000
     14     -11.7802      2.00000
     15     -10.8483      2.00000
     16     -10.7527      2.00000
     17     -10.5292      2.00000
     18     -10.3138      2.00000
     19      -5.4226      2.00000
     20      -4.9414      2.00000
     21      -2.4012      2.00000
     22      -2.1337      2.00000
     23      -1.8656      2.00000
     24      -1.7225      2.00000
     25      -1.4455      2.00000
     26      -1.1126      2.00000
     27      -0.8806      2.00000
     28      -0.6493      2.00000
     29      -0.6038      2.00000
     30      -0.4528      2.00000
     31      -0.2646      2.00000
     32      -0.1830      2.00000
     33      -0.1217      2.00000
     34      -0.0513      2.00000
     35      -0.0208      2.00000
     36       0.0241      2.00000
     37       1.2621      2.00000
     38       1.3167      2.00000
     39       1.4109      2.00000
     40       1.4372      2.00000
     41       1.4835      2.00000
     42       1.4942      2.00000
     43       1.5148      2.00000
     44       1.5744      2.00000
     45       1.7601      2.00000
     46       1.8418      2.00000
     47       2.1173      2.00000
     48       2.1823      2.00000
     49       2.3684      2.00000
     50       2.4607      2.00000
     51       2.4939      2.00000
     52       2.6972      2.00000
     53       2.8219      2.00000
     54       3.0899      2.00000
     55       3.2898      2.00000
     56       3.5271      2.00000
     57       6.4983     -0.00000
     58       6.5808     -0.00000
     59       7.4527      0.00000
     60       7.7221      0.00000
     61       8.5953      0.00000
     62       8.7428      0.00000
     63       9.2886      0.00000
     64       9.5373      0.00000
     65       9.9531      0.00000
     66      10.1825      0.00000
     67      10.6776      0.00000
     68      11.1128      0.00000
     69      11.2463      0.00000
     70      11.5673      0.00000
     71      11.7060      0.00000
     72      11.8956      0.00000
     73      12.3054      0.00000
     74      12.6606      0.00000
     75      13.0126      0.00000
     76      13.2271      0.00000
     77      13.6617      0.00000
     78      14.0663      0.00000
     79      14.3911      0.00000
     80      16.5145      0.00000

 k-point  42 :      -0.2500   -0.2500    0.4000
  band No.  band energies     occupation 
      1     -68.6458      2.00000
      2     -68.6418      2.00000
      3     -68.6366      2.00000
      4     -68.6328      2.00000
      5     -68.6129      2.00000
      6     -68.6091      2.00000
      7     -68.5952      2.00000
      8     -68.5923      2.00000
      9     -68.5812      2.00000
     10     -68.5770      2.00000
     11     -68.5639      2.00000
     12     -68.5597      2.00000
     13     -12.1827      2.00000
     14     -11.7105      2.00000
     15     -10.7199      2.00000
     16     -10.6887      2.00000
     17     -10.5864      2.00000
     18     -10.3843      2.00000
     19      -5.4477      2.00000
     20      -5.0733      2.00000
     21      -2.5105      2.00000
     22      -2.3834      2.00000
     23      -1.9612      2.00000
     24      -1.3734      2.00000
     25      -1.3312      2.00000
     26      -1.0535      2.00000
     27      -0.8317      2.00000
     28      -0.7575      2.00000
     29      -0.4270      2.00000
     30      -0.3399      2.00000
     31      -0.2737      2.00000
     32      -0.2094      2.00000
     33      -0.1401      2.00000
     34      -0.1380      2.00000
     35      -0.0119      2.00000
     36       0.0288      2.00000
     37       1.1733      2.00000
     38       1.3712      2.00000
     39       1.3977      2.00000
     40       1.4533      2.00000
     41       1.4549      2.00000
     42       1.4985      2.00000
     43       1.5172      2.00000
     44       1.5507      2.00000
     45       1.7445      2.00000
     46       1.8213      2.00000
     47       1.9769      2.00000
     48       2.2289      2.00000
     49       2.3953      2.00000
     50       2.6092      2.00000
     51       2.6576      2.00000
     52       2.9151      2.00000
     53       3.0685      2.00000
     54       3.1153      2.00000
     55       3.2901      2.00000
     56       3.5860      2.00000
     57       6.2907     -0.00000
     58       6.3779     -0.00000
     59       7.3574      0.00000
     60       7.5245      0.00000
     61       8.3056      0.00000
     62       8.3315      0.00000
     63       9.1042      0.00000
     64       9.3597      0.00000
     65       9.7165      0.00000
     66       9.9469      0.00000
     67      10.5265      0.00000
     68      10.9890      0.00000
     69      11.4256      0.00000
     70      11.5639      0.00000
     71      12.0170      0.00000
     72      12.2831      0.00000
     73      12.4313      0.00000
     74      12.4774      0.00000
     75      13.0347      0.00000
     76      13.1495      0.00000
     77      14.1396      0.00000
     78      14.4387      0.00000
     79      15.1677      0.00000
     80      15.8658      0.00000


--------------------------------------------------------------------------------------------------------


 soft charge-density along one line, spin component           1
         0         1         2         3         4         5         6         7         8         9
 total charge-density along one line
 
 pseudopotential strength for first ion, spin component:           1
-65.421   0.002   0.006   7.362   0.000  -0.003   0.001   0.008
  0.002 -65.390  -0.005   0.000   7.352   0.001  -0.001  -0.024
  0.006  -0.005 -65.381  -0.003   0.001   7.348  -0.037  -0.001
  7.362   0.000  -0.003   6.111   0.000   0.001   0.002  -0.004
  0.000   7.352   0.001   0.000   6.113  -0.000   0.000   0.007
 -0.003   0.001   7.348   0.001  -0.000   6.114   0.009   0.000
  0.001  -0.001  -0.037   0.002   0.000   0.009  -2.977  -0.003
  0.008  -0.024  -0.001  -0.004   0.007   0.000  -0.003  -2.982
  0.022   0.044   0.009  -0.005  -0.009  -0.003  -0.003   0.008
 -0.001  -0.017   0.008   0.000   0.005  -0.004   0.004   0.007
  0.025   0.000  -0.034  -0.007  -0.000   0.007  -0.000   0.007
  0.001  -0.001  -0.036   0.002   0.000   0.008  -3.624  -0.003
  0.008  -0.023  -0.001  -0.004   0.007   0.000  -0.003  -3.628
  0.022   0.043   0.009  -0.005  -0.008  -0.003  -0.003   0.008
 -0.001  -0.017   0.008   0.000   0.004  -0.004   0.004   0.007
  0.025   0.000  -0.034  -0.007  -0.000   0.006  -0.000   0.007
  0.007  -0.005   0.004  -0.001   0.001  -0.001  -0.002   0.000
  0.015  -0.011   0.009  -0.002   0.001  -0.002  -0.003   0.001
 total augmentation occupancy for first ion, spin component:           1
  2.000  -0.000   0.000  -0.003  -0.000   0.000   0.007  -0.005   0.001  -0.001  -0.005  -0.007   0.005  -0.001   0.001   0.004
 -0.000   2.000  -0.000  -0.000  -0.003   0.000  -0.001   0.005   0.004   0.001   0.000   0.001  -0.005  -0.005  -0.001  -0.000
  0.000  -0.000   2.000   0.000   0.000  -0.003  -0.000  -0.000  -0.001  -0.005  -0.004   0.001   0.000   0.001   0.005   0.005
 -0.003  -0.000   0.000   0.095   0.006  -0.005  -0.333   0.232  -0.074   0.011   0.017   0.280  -0.197   0.058  -0.007  -0.011
 -0.000  -0.003   0.000   0.006   0.103   0.001   0.020  -0.047  -0.445   0.015   0.011  -0.013   0.037   0.378  -0.010  -0.009
  0.000   0.000  -0.003  -0.005   0.001   0.099   0.098  -0.003  -0.014   0.236   0.354  -0.077   0.001   0.011  -0.202  -0.297
  0.007  -0.001  -0.000  -0.333   0.020   0.098   4.006  -0.794   0.099   0.216   0.147  -1.735   0.744  -0.090  -0.182  -0.141
 -0.005   0.005  -0.000   0.232  -0.047  -0.003  -0.794   3.514   0.291   0.159   0.297   0.744  -1.272  -0.214  -0.115  -0.206
  0.001   0.004  -0.001  -0.074  -0.445  -0.014   0.099   0.291   4.691  -0.040  -0.116  -0.091  -0.215  -2.400   0.034   0.086
 -0.001   0.001  -0.005   0.011   0.015   0.236   0.216   0.159  -0.040   3.638   0.799  -0.182  -0.115   0.034  -1.355  -0.760
 -0.005   0.000  -0.004   0.017   0.011   0.354   0.147   0.297  -0.116   0.799   3.995  -0.142  -0.206   0.086  -0.760  -1.741
 -0.007   0.001   0.001   0.280  -0.013  -0.077  -1.735   0.744  -0.091  -0.182  -0.142   1.441  -0.696   0.083   0.154   0.136
  0.005  -0.005   0.000  -0.197   0.037   0.001   0.744  -1.272  -0.215  -0.115  -0.206  -0.696   1.007   0.153   0.079   0.132
 -0.001  -0.005   0.001   0.058   0.378   0.011  -0.090  -0.214  -2.400   0.034   0.086   0.083   0.153   2.083  -0.029  -0.063
  0.001  -0.001   0.005  -0.007  -0.010  -0.202  -0.182  -0.115   0.034  -1.355  -0.760   0.154   0.079  -0.029   1.060   0.722
  0.004  -0.000   0.005  -0.011  -0.009  -0.297  -0.141  -0.206   0.086  -0.760  -1.741   0.136   0.132  -0.063   0.722   1.461
 -0.024   0.017  -0.013  -0.020   0.011  -0.006   0.080  -0.101  -0.025  -0.006   0.025  -0.063   0.088   0.036   0.006   0.005
  0.012  -0.008   0.006   0.001  -0.000  -0.000  -0.008   0.003  -0.004   0.004  -0.019   0.004  -0.005  -0.002  -0.001   0.003


------------------------ aborting loop because EDIFF is reached ----------------------------------------


    FORLOC:  cpu time    0.00: real time    0.00
    FORHF :  cpu time  470.68: real time  470.31
    FORNL :  cpu time    0.39: real time    0.39
    FORCOR:  cpu time    1.93: real time    1.92

 VOLUME and BASIS-vectors are now :
 -----------------------------------------------------------------------------
  energy-cutoff  :      400.00
  volume of cell :      221.90
      direct lattice vectors                 reciprocal lattice vectors
     3.224796000 -5.643830000  0.031572000     0.154525165 -0.088592321  0.053460880
     3.224796000  5.643830000  0.031572000     0.154525165  0.088592321  0.053460880
    -2.101946000  0.000000000  6.075537000    -0.001606004  0.000000000  0.164038877

  length of vectors
     6.500240234  6.500240234  6.428866683     0.185969598  0.185969598  0.164046738


 FORCES acting on ions:
    Electron-Ion                     Ewald-Force                    Non-Local-Force
 -----------------------------------------------------------------------------------------------
   -.145E+02 -.974E+02 0.115E+02   0.132E+02 0.949E+02 -.976E+01   0.103E+01 0.210E+01 -.149E+01
   -.144E+02 0.969E+02 0.115E+02   0.130E+02 -.945E+02 -.988E+01   0.112E+01 -.208E+01 -.140E+01
   0.256E+02 -.168E+02 0.455E+01   -.223E+02 0.166E+02 -.332E+01   -.286E+01 0.158E+00 -.108E+01
   0.257E+02 0.166E+02 0.442E+01   -.224E+02 -.163E+02 -.316E+01   -.288E+01 -.235E+00 -.110E+01
   -.118E+02 -.305E+02 -.112E+02   0.111E+02 0.291E+02 0.101E+02   0.773E+00 0.124E+01 0.113E+01
   -.110E+02 0.315E+02 -.112E+02   0.103E+02 -.302E+02 0.100E+02   0.681E+00 -.134E+01 0.114E+01
   -.135E+03 -.968E+01 -.490E+02   0.132E+03 0.970E+01 0.482E+02   0.273E+01 -.584E-02 0.719E+00
   0.701E+02 -.126E+03 0.962E+02   -.684E+02 0.123E+03 -.941E+02   -.156E+01 0.231E+01 -.186E+01
   0.669E+02 -.133E+03 -.500E+02   -.654E+02 0.131E+03 0.490E+02   -.140E+01 0.226E+01 0.897E+00
   0.700E+02 0.126E+03 0.963E+02   -.682E+02 -.123E+03 -.942E+02   -.158E+01 -.227E+01 -.187E+01
   -.135E+03 0.984E+01 -.491E+02   0.132E+03 -.987E+01 0.483E+02   0.279E+01 0.220E-01 0.734E+00
   0.666E+02 0.133E+03 -.498E+02   -.651E+02 -.130E+03 0.488E+02   -.136E+01 -.218E+01 0.878E+00
 -----------------------------------------------------------------------------------------------
   0.276E+01 0.306E-01 0.376E+01   -.284E-13 -.284E-13 -.711E-13   -.252E+01 -.195E-01 -.332E+01
 
 
 POSITION                                       TOTAL-FORCE (eV/Angst)
 -----------------------------------------------------------------------------------
      2.13385     -2.80652      0.74958        -0.002261     -0.000899      0.006892
      1.08288      2.80652      3.78735        -0.010274      0.001175     -0.000248
      5.40423     -0.97432      0.77721         0.003844      0.000208     -0.002741
      4.35326      0.97432      3.81498         0.004928      0.007288     -0.000119
      1.01585     -0.96460      3.66181         0.111471     -0.132303     -0.002279
      2.07178      0.97328      0.62409        -0.000545     -0.007967     -0.004302
      2.15090      4.69667      3.05304        -0.054153      0.008373     -0.016462
      1.11215     -0.89759      5.98620        -0.008659      0.003202     -0.002410
      2.14287     -2.74882      3.03886        -0.056160      0.089395      0.024357
      2.16313      0.89759      2.94844         0.011022      0.037611     -0.002161
      1.09993     -4.69667      6.09081         0.002864     -0.003089     -0.001687
      1.09189      2.74882      6.07662        -0.002076     -0.002994      0.001160
 -----------------------------------------------------------------------------------
    total drift:                               -0.059025     -0.001036     -0.053972


--------------------------------------------------------------------------------------------------------



  FREE ENERGIE OF THE ION-ELECTRON SYSTEM (eV)
  ---------------------------------------------------
  free  energy   TOTEN  =       -69.59495177 eV

  energy  without entropy=      -69.59553747  energy(sigma->0) =      -69.59514701
 


--------------------------------------------------------------------------------------------------------


    POTLOK:  cpu time    2.15: real time    2.15


--------------------------------------------------------------------------------------------------------


 writing wavefunctions
     LOOP+:  cpu time 5676.18: real time 5677.94
    4ORBIT:  cpu time    0.00: real time    0.00

 total amount of memory used by VASP on root node   155705. kBytes
========================================================================

   base      :      30000. kBytes
   nonl-proj :      74517. kBytes
   fftplans  :        702. kBytes
   grid      :       2400. kBytes
   one-center:        186. kBytes
   HF        :        194. kBytes
   nonlr-proj:       5130. kBytes
   wavefun   :      42576. kBytes
 
  
  
 General timing and accounting informations for this job:
 ========================================================
  
                  Total CPU time used (sec):     5714.634
                            User time (sec):     5711.964
                          System time (sec):        2.671
                         Elapsed time (sec):     5718.240
  
                   Maximum memory used (kb):      300248.
                   Average memory used (kb):           0.
  
                          Minor page faults:        79296
                          Major page faults:            2
                 Voluntary context switches:         3636
