<?xml version="1.0" encoding="ISO-8859-1"?>
<modeling>
 <generator>
  <i name="program" type="string">vasp </i>
  <i name="version" type="string">5.3.3  </i>
  <i name="subversion" type="string">18Dez12 (build Nov 13 2015 09:58:40) complex                          parallel </i>
  <i name="platform" type="string">LinuxIFC </i>
  <i name="date" type="string">2017 10 18 </i>
  <i name="time" type="string">13:04:36 </i>
 </generator>
 <incar>
  <i type="string" name="SYSTEM"> CGS</i>
  <i type="string" name="PREC">normal</i>
  <i type="string" name="ALGO"> D</i>
  <i type="logical" name="LDIAG"> T  </i>
  <i name="EDIFF">      0.00001000</i>
  <i name="ENCUT">    400.00000000</i>
  <i name="TIME">      0.40000000</i>
  <i type="int" name="ISMEAR">     1</i>
  <i name="SIGMA">      0.10000000</i>
  <i type="logical" name="LHFCALC"> T  </i>
  <i type="string" name="GGA"> PE</i>
  <i name="HFSCREEN">      0.20000000</i>
  <i name="AEXX">      0.25000000</i>
  <i type="string" name="PRECFOCK">fast</i>
 </incar>
 <kpoints>
  <generation param="Gamma">
   <v type="int" name="divisions">       4        4        5 </v>
   <v name="usershift">      0.00000000       0.00000000       0.00000000 </v>
   <v name="genvec1">      0.25000000       0.00000000       0.00000000 </v>
   <v name="genvec2">      0.00000000       0.25000000       0.00000000 </v>
   <v name="genvec3">      0.00000000       0.00000000       0.20000000 </v>
   <v name="shift">      0.00000000       0.00000000       0.00000000 </v>
  </generation>
  <varray name="kpointlist" >
   <v>       0.00000000       0.00000000       0.00000000 </v>
   <v>       0.25000000       0.00000000       0.00000000 </v>
   <v>       0.50000000       0.00000000       0.00000000 </v>
   <v>       0.00000000       0.25000000       0.00000000 </v>
   <v>       0.25000000       0.25000000       0.00000000 </v>
   <v>       0.50000000       0.25000000      -0.00000000 </v>
   <v>      -0.25000000       0.25000000       0.00000000 </v>
   <v>       0.00000000       0.50000000       0.00000000 </v>
   <v>       0.25000000       0.50000000      -0.00000000 </v>
   <v>       0.50000000       0.50000000       0.00000000 </v>
   <v>      -0.00000000      -0.00000000       0.20000000 </v>
   <v>       0.25000000       0.00000000       0.20000000 </v>
   <v>       0.50000000       0.00000000       0.20000000 </v>
   <v>      -0.25000000      -0.00000000       0.20000000 </v>
   <v>       0.00000000       0.25000000       0.20000000 </v>
   <v>       0.25000000       0.25000000       0.20000000 </v>
   <v>       0.50000000       0.25000000       0.20000000 </v>
   <v>      -0.25000000       0.25000000       0.20000000 </v>
   <v>       0.00000000       0.50000000       0.20000000 </v>
   <v>       0.25000000       0.50000000       0.20000000 </v>
   <v>       0.50000000       0.50000000       0.20000000 </v>
   <v>      -0.25000000       0.50000000       0.20000000 </v>
   <v>      -0.00000000      -0.25000000       0.20000000 </v>
   <v>       0.25000000      -0.25000000       0.20000000 </v>
   <v>       0.50000000      -0.25000000       0.20000000 </v>
   <v>      -0.25000000      -0.25000000       0.20000000 </v>
   <v>      -0.00000000      -0.00000000       0.40000000 </v>
   <v>       0.25000000       0.00000000       0.40000000 </v>
   <v>       0.50000000       0.00000000       0.40000000 </v>
   <v>      -0.25000000       0.00000000       0.40000000 </v>
   <v>       0.00000000       0.25000000       0.40000000 </v>
   <v>       0.25000000       0.25000000       0.40000000 </v>
   <v>       0.50000000       0.25000000       0.40000000 </v>
   <v>      -0.25000000       0.25000000       0.40000000 </v>
   <v>       0.00000000       0.50000000       0.40000000 </v>
   <v>       0.25000000       0.50000000       0.40000000 </v>
   <v>       0.50000000       0.50000000       0.40000000 </v>
   <v>      -0.25000000       0.50000000       0.40000000 </v>
   <v>       0.00000000      -0.25000000       0.40000000 </v>
   <v>       0.25000000      -0.25000000       0.40000000 </v>
   <v>       0.50000000      -0.25000000       0.40000000 </v>
   <v>      -0.25000000      -0.25000000       0.40000000 </v>
  </varray>
  <varray name="weights" >
   <v>       0.01250000 </v>
   <v>       0.02500000 </v>
   <v>       0.01250000 </v>
   <v>       0.02500000 </v>
   <v>       0.02500000 </v>
   <v>       0.02500000 </v>
   <v>       0.02500000 </v>
   <v>       0.01250000 </v>
   <v>       0.02500000 </v>
   <v>       0.01250000 </v>
   <v>       0.02500000 </v>
   <v>       0.02500000 </v>
   <v>       0.02500000 </v>
   <v>       0.02500000 </v>
   <v>       0.02500000 </v>
   <v>       0.02500000 </v>
   <v>       0.02500000 </v>
   <v>       0.02500000 </v>
   <v>       0.02500000 </v>
   <v>       0.02500000 </v>
   <v>       0.02500000 </v>
   <v>       0.02500000 </v>
   <v>       0.02500000 </v>
   <v>       0.02500000 </v>
   <v>       0.02500000 </v>
   <v>       0.02500000 </v>
   <v>       0.02500000 </v>
   <v>       0.02500000 </v>
   <v>       0.02500000 </v>
   <v>       0.02500000 </v>
   <v>       0.02500000 </v>
   <v>       0.02500000 </v>
   <v>       0.02500000 </v>
   <v>       0.02500000 </v>
   <v>       0.02500000 </v>
   <v>       0.02500000 </v>
   <v>       0.02500000 </v>
   <v>       0.02500000 </v>
   <v>       0.02500000 </v>
   <v>       0.02500000 </v>
   <v>       0.02500000 </v>
   <v>       0.02500000 </v>
  </varray>
 </kpoints>
 <parameters>
  <separator name="general" >
   <i type="string" name="SYSTEM">CGS</i>
   <i type="logical" name="LCOMPAT"> F  </i>
  </separator>
  <separator name="electronic" >
   <i type="string" name="PREC">normal</i>
   <i name="ENMAX">    400.00000000</i>
   <i name="ENAUG">    758.23300000</i>
   <i name="EDIFF">      0.00001000</i>
   <i type="int" name="IALGO">    53</i>
   <i type="int" name="IWAVPR">    10</i>
   <i type="int" name="NBANDS">    80</i>
   <i name="NELECT">    112.00000000</i>
   <i type="int" name="TURBO">     0</i>
   <i type="int" name="IRESTART">     0</i>
   <i type="int" name="NREBOOT">     0</i>
   <i type="int" name="NMIN">     0</i>
   <i name="EREF">      0.00000000</i>
   <separator name="electronic smearing" >
    <i type="int" name="ISMEAR">     1</i>
    <i name="SIGMA">      0.10000000</i>
    <i name="KSPACING">      0.50000000</i>
    <i type="logical" name="KGAMMA"> T  </i>
   </separator>
   <separator name="electronic projectors" >
    <i type="logical" name="LREAL"> F  </i>
    <v name="ROPT">      0.00000000      0.00000000      0.00000000</v>
    <i type="int" name="LMAXPAW">  -100</i>
    <i type="int" name="LMAXMIX">     2</i>
    <i type="logical" name="NLSPLINE"> F  </i>
   </separator>
   <separator name="electronic startup" >
    <i type="int" name="ISTART">     1</i>
    <i type="int" name="ICHARG">     0</i>
    <i type="int" name="INIWAV">     1</i>
   </separator>
   <separator name="electronic spin" >
    <i type="int" name="ISPIN">     1</i>
    <i type="logical" name="LNONCOLLINEAR"> F  </i>
    <v name="MAGMOM">      1.00000000      1.00000000      1.00000000      1.00000000      1.00000000      1.00000000      1.00000000      1.00000000      1.00000000      1.00000000      1.00000000      1.00000000</v>
    <i name="NUPDOWN">     -1.00000000</i>
    <i type="logical" name="LSORBIT"> F  </i>
    <v name="SAXIS">      0.00000000      0.00000000      1.00000000</v>
    <i type="logical" name="LSPIRAL"> F  </i>
    <v name="QSPIRAL">      0.00000000      0.00000000      0.00000000</v>
    <i type="logical" name="LZEROZ"> F  </i>
   </separator>
   <separator name="electronic exchange-correlation" >
    <i type="logical" name="LASPH"> F  </i>
    <i type="logical" name="LMETAGGA"> F  </i>
   </separator>
   <separator name="electronic convergence" >
    <i type="int" name="NELM">    60</i>
    <i type="int" name="NELMDL">     0</i>
    <i type="int" name="NELMIN">     2</i>
    <i name="ENINI">    400.00000000</i>
    <separator name="electronic convergence detail" >
     <i type="logical" name="LDIAG"> T  </i>
     <i type="logical" name="LSUBROT"> T  </i>
     <i name="WEIMIN">      0.00000000</i>
     <i name="EBREAK">      0.00000003</i>
     <i name="DEPER">      0.30000000</i>
     <i type="int" name="NRMM">     4</i>
     <i name="TIME">      0.40000000</i>
    </separator>
   </separator>
   <separator name="electronic mixer" >
    <i name="AMIX">      0.40000000</i>
    <i name="BMIX">      1.00000000</i>
    <i name="AMIN">      0.10000000</i>
    <i name="AMIX_MAG">      1.60000000</i>
    <i name="BMIX_MAG">      1.00000000</i>
    <separator name="electronic mixer details" >
     <i type="int" name="IMIX">     4</i>
     <i type="int" name="MAXMIX">   -45</i>
     <i name="WC">    100.00000000</i>
     <i type="int" name="INIMIX">     1</i>
     <i type="int" name="MIXPRE">     1</i>
     <i type="int" name="MREMOVE">     5</i>
    </separator>
   </separator>
   <separator name="electronic dipolcorrection" >
    <i type="logical" name="LDIPOL"> F  </i>
    <i type="logical" name="LMONO"> F  </i>
    <i type="int" name="IDIPOL">     0</i>
    <i name="EPSILON">      1.00000000</i>
    <v name="DIPOL">   -100.00000000   -100.00000000   -100.00000000</v>
    <i name="EFIELD">      0.00000000</i>
   </separator>
  </separator>
  <separator name="grids" >
   <i type="int" name="NGX">    32</i>
   <i type="int" name="NGY">    32</i>
   <i type="int" name="NGZ">    32</i>
   <i type="int" name="NGXF">    64</i>
   <i type="int" name="NGYF">    64</i>
   <i type="int" name="NGZF">    64</i>
   <i type="logical" name="ADDGRID"> F  </i>
  </separator>
  <separator name="ionic" >
   <i type="int" name="NSW">     0</i>
   <i type="int" name="IBRION">    -1</i>
   <i type="int" name="ISIF">     0</i>
   <i name="PSTRESS">      0.00000000</i>
   <i name="EDIFFG">      0.00010000</i>
   <i type="int" name="NFREE">     0</i>
   <i name="POTIM">      0.50000000</i>
   <i name="SMASS">     -3.00000000</i>
   <i name="SCALEE">      1.00000000</i>
  </separator>
  <separator name="ionic md" >
   <i name="TEBEG">      0.00010000</i>
   <i name="TEEND">      0.00010000</i>
   <i type="int" name="NBLOCK">     1</i>
   <i type="int" name="KBLOCK">     1</i>
   <i type="int" name="NPACO">   256</i>
   <i name="APACO">     16.00000000</i>
  </separator>
  <separator name="symmetry" >
   <i type="int" name="ISYM">     3</i>
   <i name="SYMPREC">      0.00001000</i>
  </separator>
  <separator name="dos" >
   <i type="logical" name="LORBIT"> F  </i>
   <v name="RWIGS">     -1.00000000     -1.00000000     -1.00000000</v>
   <i type="int" name="NEDOS">   301</i>
   <i name="EMIN">     10.00000000</i>
   <i name="EMAX">    -10.00000000</i>
   <i name="EFERMI">      0.00000000</i>
  </separator>
  <separator name="writing" >
   <i type="int" name="NWRITE">     2</i>
   <i type="logical" name="LWAVE"> T  </i>
   <i type="logical" name="LCHARG"> T  </i>
   <i type="logical" name="LPARD"> F  </i>
   <i type="logical" name="LVTOT"> F  </i>
   <i type="logical" name="LVHAR"> F  </i>
   <i type="logical" name="LELF"> F  </i>
   <i type="logical" name="LOPTICS"> F  </i>
   <v name="STM">      0.00000000      0.00000000      0.00000000      0.00000000      0.00000000      0.00000000      0.00000000</v>
  </separator>
  <separator name="performance" >
   <i type="int" name="NPAR">    16</i>
   <i type="int" name="NSIM">     4</i>
   <i type="int" name="NBLK">    -1</i>
   <i type="logical" name="LPLANE"> T  </i>
   <i type="logical" name="LSCALAPACK"> T  </i>
   <i type="logical" name="LSCAAWARE"> F  </i>
   <i type="logical" name="LSCALU"> F  </i>
   <i type="logical" name="LASYNC"> F  </i>
   <i type="logical" name="LORBITALREAL"> F  </i>
  </separator>
  <separator name="miscellaneous" >
   <i type="int" name="IDIOT">     3</i>
   <i type="logical" name="LMUSIC"> F  </i>
   <v name="POMASS">     63.54600000     72.61000000     32.06600000</v>
   <v name="DARWINR">      0.00000000      0.00000000      0.00000000</v>
   <v name="DARWINV">      1.00000000      1.00000000      1.00000000</v>
   <i type="logical" name="LCORR"> T  </i>
  </separator>
  <i type="logical" name="GGA_COMPAT"> T  </i>
  <i type="logical" name="LBERRY"> F  </i>
  <i type="int" name="ICORELEVEL">     0</i>
  <i type="logical" name="LDAU"> F  </i>
  <i type="int" name="I_CONSTRAINED_M">     0</i>
  <separator name="electronic exchange-correlation" >
   <i type="string" name="GGA">PE</i>
   <i type="int" name="VOSKOWN">     0</i>
   <i type="logical" name="LHFCALC"> T  </i>
   <i type="string" name="PRECFOCK">fast</i>
   <i type="logical" name="LSYMGRAD"> F  </i>
   <i type="logical" name="LHFONE"> F  </i>
   <i type="logical" name="LRHFCALC"> F  </i>
   <i type="logical" name="LTHOMAS"> F  </i>
   <i type="logical" name="LMODELHF"> F  </i>
   <i name="ENCUT4O">     -1.00000000</i>
   <i type="int" name="EXXOEP">     0</i>
   <i type="int" name="FOURORBIT">     0</i>
   <i name="AEXX">      0.25000000</i>
   <i name="HFALPHA">     -1.00000000</i>
   <i name="MCALPHA">      0.00000000</i>
   <i name="ALDAX">      0.75000000</i>
   <i name="AGGAX">      0.75000000</i>
   <i name="ALDAC">      1.00000000</i>
   <i name="AGGAC">      1.00000000</i>
   <i type="int" name="NKREDX">     1</i>
   <i type="int" name="NKREDY">     1</i>
   <i type="int" name="NKREDZ">     1</i>
   <i type="logical" name="SHIFTRED"> F  </i>
   <i type="logical" name="ODDONLY"> F  </i>
   <i type="logical" name="EVENONLY"> F  </i>
   <i type="int" name="LMAXFOCK">     4</i>
   <i type="int" name="NMAXFOCKAE">     1</i>
   <i type="logical" name="LFOCKAEDFT"> F  </i>
   <i name="HFSCREEN">      0.20000000</i>
   <i name="HFSCREENC">      0.20000000</i>
   <i type="int" name="NBANDSGWLOW">     1</i>
  </separator>
  <separator name="vdW DFT" >
   <i type="logical" name="LUSE_VDW"> F  </i>
   <i name="Zab_VDW">     -0.84910000</i>
   <i name="PARAM1">      0.12340000</i>
   <i name="PARAM2">      1.00000000</i>
   <i name="PARAM3">      0.00000000</i>
  </separator>
  <separator name="model GW" >
   <i type="int" name="MODEL_GW">     0</i>
   <i name="MODEL_EPS0">     11.09505304</i>
   <i name="MODEL_ALPHA">      1.00000000</i>
  </separator>
  <separator name="linear response parameters" >
   <i type="logical" name="LEPSILON"> F  </i>
   <i type="logical" name="LRPA"> F  </i>
   <i type="logical" name="LNABLA"> F  </i>
   <i type="logical" name="LVEL"> F  </i>
   <i type="int" name="KINTER">     0</i>
   <i name="CSHIFT">      0.10000000</i>
   <i name="OMEGAMAX">     -1.00000000</i>
   <i name="DEG_THRESHOLD">      0.00200000</i>
  </separator>
  <separator name="orbital magnetization" >
   <i type="logical" name="NUCIND"> F  </i>
   <v name="MAGPOS">      0.00000000      0.00000000      0.00000000</v>
   <i type="logical" name="LNICSALL"> T  </i>
   <i type="logical" name="ORBITALMAG"> F  </i>
   <i type="logical" name="LMAGBLOCH"> F  </i>
   <i type="logical" name="LCHIMAG"> F  </i>
   <i type="logical" name="LGAUGE"> T  </i>
   <i type="int" name="MAGATOM">     0</i>
   <v name="MAGDIPOL">      0.00000000      0.00000000      0.00000000</v>
   <v name="AVECCONST">      0.00000000      0.00000000      0.00000000</v>
  </separator>
  <separator name="response functions" >
   <i type="logical" name="LADDER"> F  </i>
   <i type="logical" name="LFXC"> F  </i>
   <i type="logical" name="LHARTREE"> T  </i>
   <i type="int" name="IBSE">     0</i>
   <i type="logical" name="LTCTE"> F  </i>
   <i type="logical" name="LTETE"> F  </i>
   <i type="logical" name="LTRIPLET"> F  </i>
   <i type="logical" name="LFXCEPS"> F  </i>
   <i type="logical" name="L2ORDER"> F  </i>
   <i type="logical" name="LUSEW"> F  </i>
   <i name="ENCUTGW">     -2.00000000</i>
   <i name="ENCUTGWSOFT">     -2.00000000</i>
   <i name="ENCUTLF">     -1.00000000</i>
   <i type="int" name="LMAXMP2">    -1</i>
   <i name="SCISSOR">      0.00000000</i>
   <i type="int" name="NOMEGA">     0</i>
   <i type="int" name="NOMEGAR">     0</i>
   <i type="int" name="NBANDSGW">    -1</i>
   <i type="int" name="NBANDSO">    -1</i>
   <i type="int" name="NBANDSV">    -1</i>
   <i type="int" name="NELM">     1</i>
   <i type="int" name="DIM">     3</i>
   <i type="int" name="ANTIRES">     0</i>
   <i name="OMEGAMAX">    -30.00000000</i>
   <i name="OMEGATL">   -200.00000000</i>
   <i type="int" name="OMEGAGRID">     0</i>
   <i name="CSHIFT">     -0.10000000</i>
   <i type="logical" name="SELFENERGY"> F  </i>
   <i type="logical" name="LSPECTRAL"> F  </i>
   <i type="logical" name="ODDONLYGW"> F  </i>
   <i type="logical" name="EVENONLYGW"> F  </i>
   <i type="int" name="NKREDLFX">     1</i>
   <i type="int" name="NKREDLFY">     1</i>
   <i type="int" name="NKREDLFZ">     1</i>
   <i type="int" name="MAXMEM">  1800</i>
   <i type="int" name="TELESCOPE">     0</i>
  </separator>
 </parameters>
 <atominfo>
  <atoms>      12 </atoms>
  <types>       3 </types>
  <array name="atoms" >
   <dimension dim="1">ion</dimension>
   <field type="string">element</field>
   <field type="int">atomtype</field>
   <set>
    <rc><c>Cu</c><c>   1</c></rc>
    <rc><c>Cu</c><c>   1</c></rc>
    <rc><c>Cu</c><c>   1</c></rc>
    <rc><c>Cu</c><c>   1</c></rc>
    <rc><c>Ge</c><c>   2</c></rc>
    <rc><c>Ge</c><c>   2</c></rc>
    <rc><c>S </c><c>   3</c></rc>
    <rc><c>S </c><c>   3</c></rc>
    <rc><c>S </c><c>   3</c></rc>
    <rc><c>S </c><c>   3</c></rc>
    <rc><c>S </c><c>   3</c></rc>
    <rc><c>S </c><c>   3</c></rc>
   </set>
  </array>
  <array name="atomtypes" >
   <dimension dim="1">type</dimension>
   <field type="int">atomspertype</field>
   <field type="string">element</field>
   <field>mass</field>
   <field>valence</field>
   <field type="string">pseudopotential</field>
   <set>
    <rc><c>   4</c><c>Cu</c><c>     63.54600000</c><c>     17.00000000</c><c>  PAW_PBE Cu_pv 06Sep2000               </c></rc>
    <rc><c>   2</c><c>Ge</c><c>     72.61000000</c><c>      4.00000000</c><c>  PAW_PBE Ge 05Jan2001                  </c></rc>
    <rc><c>   6</c><c>S </c><c>     32.06600000</c><c>      6.00000000</c><c>  PAW_PBE S 17Jan2003                   </c></rc>
   </set>
  </array>
 </atominfo>
 <structure name="initialpos" >
  <crystal>
   <varray name="basis" >
    <v>       3.22479600      -5.64383000       0.03157200 </v>
    <v>       3.22479600       5.64383000       0.03157200 </v>
    <v>      -2.10194600       0.00000000       6.07553700 </v>
   </varray>
   <i name="volume">    221.90106089 </i>
   <varray name="rec_basis" >
    <v>       0.15452516      -0.08859232       0.05346088 </v>
    <v>       0.15452516       0.08859232       0.05346088 </v>
    <v>      -0.00160600       0.00000000       0.16403888 </v>
   </varray>
  </crystal>
  <varray name="positions" >
   <v>       0.61844300       0.12117100       0.11953300 </v>
   <v>       0.12117100       0.61844300       0.61953300 </v>
   <v>       0.96295700       0.79032200       0.11881300 </v>
   <v>       0.79032200       0.96295700       0.61881300 </v>
   <v>       0.43819360       0.26728100       0.59904700 </v>
   <v>       0.26728100       0.43973200       0.09904700 </v>
   <v>       0.07949800       0.91167500       0.49736300 </v>
   <v>       0.57140300       0.41236400       0.98018400 </v>
   <v>       0.73711100       0.25006200       0.49504900 </v>
   <v>       0.41236400       0.57140300       0.48018400 </v>
   <v>       0.91167500       0.07949800       0.99736300 </v>
   <v>       0.25006200       0.73711100       0.99504900 </v>
  </varray>
 </structure>
 <calculation>
  <scstep>
   <time name="total">  237.38  237.51</time>
   <energy>
    <i name="alphaZ">    339.31929130 </i>
    <i name="ewald">  -9064.85145659 </i>
    <i name="hartreedc">  -8067.43007746 </i>
    <i name="XCdc">    369.90462869 </i>
    <i name="pawpsdc">  16899.34513142 </i>
    <i name="pawaedc"> -17392.15973739 </i>
    <i name="eentropy">     -0.00145778 </i>
    <i name="bandstr">  -1657.04196039 </i>
    <i name="atom">  18320.98302006 </i>
    <i name="e_fr_energy">     75.51937075 </i>
    <i name="e_wo_entrp">     75.52082853 </i>
    <i name="e_0_energy">     75.51985668 </i>
   </energy>
  </scstep>
  <scstep>
   <time name="total">  244.63  244.43</time>
   <energy>
    <i name="e_fr_energy">     -8.38419932 </i>
    <i name="e_wo_entrp">     -8.38346780 </i>
    <i name="e_0_energy">     -8.38395548 </i>
   </energy>
  </scstep>
  <scstep>
   <time name="total">  243.86  243.65</time>
   <energy>
    <i name="e_fr_energy">    -15.16615534 </i>
    <i name="e_wo_entrp">    -15.16629846 </i>
    <i name="e_0_energy">    -15.16620304 </i>
   </energy>
  </scstep>
  <scstep>
   <time name="total">  245.77  245.56</time>
   <energy>
    <i name="e_fr_energy">    -22.64028451 </i>
    <i name="e_wo_entrp">    -22.64065008 </i>
    <i name="e_0_energy">    -22.64040637 </i>
   </energy>
  </scstep>
  <scstep>
   <time name="total">  243.81  243.62</time>
   <energy>
    <i name="e_fr_energy">    -60.80850614 </i>
    <i name="e_wo_entrp">    -60.80914918 </i>
    <i name="e_0_energy">    -60.80872049 </i>
   </energy>
  </scstep>
  <scstep>
   <time name="total">  244.35  244.14</time>
   <energy>
    <i name="e_fr_energy">    -65.92723577 </i>
    <i name="e_wo_entrp">    -65.92791758 </i>
    <i name="e_0_energy">    -65.92746304 </i>
   </energy>
  </scstep>
  <scstep>
   <time name="total">  249.17  248.96</time>
   <energy>
    <i name="e_fr_energy">    -67.46866614 </i>
    <i name="e_wo_entrp">    -67.46911434 </i>
    <i name="e_0_energy">    -67.46881554 </i>
   </energy>
  </scstep>
  <scstep>
   <time name="total">  244.58  244.40</time>
   <energy>
    <i name="e_fr_energy">    -69.08343099 </i>
    <i name="e_wo_entrp">    -69.08415881 </i>
    <i name="e_0_energy">    -69.08367360 </i>
   </energy>
  </scstep>
  <scstep>
   <time name="total">  244.18  243.99</time>
   <energy>
    <i name="e_fr_energy">    -69.39446665 </i>
    <i name="e_wo_entrp">    -69.39533055 </i>
    <i name="e_0_energy">    -69.39475462 </i>
   </energy>
  </scstep>
  <scstep>
   <time name="total">  244.92  244.72</time>
   <energy>
    <i name="e_fr_energy">    -69.49828070 </i>
    <i name="e_wo_entrp">    -69.49902810 </i>
    <i name="e_0_energy">    -69.49852983 </i>
   </energy>
  </scstep>
  <scstep>
   <time name="total">  244.26  244.06</time>
   <energy>
    <i name="e_fr_energy">    -69.56804483 </i>
    <i name="e_wo_entrp">    -69.56866761 </i>
    <i name="e_0_energy">    -69.56825242 </i>
   </energy>
  </scstep>
  <scstep>
   <time name="total">  244.47  244.29</time>
   <energy>
    <i name="e_fr_energy">    -69.58038808 </i>
    <i name="e_wo_entrp">    -69.58095649 </i>
    <i name="e_0_energy">    -69.58057755 </i>
   </energy>
  </scstep>
  <scstep>
   <time name="total">  243.51  244.00</time>
   <energy>
    <i name="e_fr_energy">    -69.59006123 </i>
    <i name="e_wo_entrp">    -69.59061922 </i>
    <i name="e_0_energy">    -69.59024723 </i>
   </energy>
  </scstep>
  <scstep>
   <time name="total">  251.85  252.44</time>
   <energy>
    <i name="e_fr_energy">    -69.59252248 </i>
    <i name="e_wo_entrp">    -69.59310128 </i>
    <i name="e_0_energy">    -69.59271541 </i>
   </energy>
  </scstep>
  <scstep>
   <time name="total">  253.68  253.47</time>
   <energy>
    <i name="e_fr_energy">    -69.59403136 </i>
    <i name="e_wo_entrp">    -69.59462390 </i>
    <i name="e_0_energy">    -69.59422887 </i>
   </energy>
  </scstep>
  <scstep>
   <time name="total">  253.60  253.86</time>
   <energy>
    <i name="e_fr_energy">    -69.59460409 </i>
    <i name="e_wo_entrp">    -69.59519664 </i>
    <i name="e_0_energy">    -69.59480161 </i>
   </energy>
  </scstep>
  <scstep>
   <time name="total">  252.71  252.97</time>
   <energy>
    <i name="e_fr_energy">    -69.59477790 </i>
    <i name="e_wo_entrp">    -69.59536681 </i>
    <i name="e_0_energy">    -69.59497420 </i>
   </energy>
  </scstep>
  <scstep>
   <time name="total">  253.15  253.34</time>
   <energy>
    <i name="e_fr_energy">    -69.59489537 </i>
    <i name="e_wo_entrp">    -69.59548116 </i>
    <i name="e_0_energy">    -69.59509063 </i>
   </energy>
  </scstep>
  <scstep>
   <time name="total">  253.35  253.35</time>
   <energy>
    <i name="e_fr_energy">    -69.59492444 </i>
    <i name="e_wo_entrp">    -69.59550894 </i>
    <i name="e_0_energy">    -69.59511927 </i>
   </energy>
  </scstep>
  <scstep>
   <time name="total">  253.66  253.46</time>
   <energy>
    <i name="e_fr_energy">    -69.59494432 </i>
    <i name="e_wo_entrp">    -69.59552937 </i>
    <i name="e_0_energy">    -69.59513934 </i>
   </energy>
  </scstep>
  <scstep>
   <time name="total">  253.22  253.03</time>
   <energy>
    <i name="alphaZ">    339.31929130 </i>
    <i name="ewald">  -9064.85145659 </i>
    <i name="hartreedc">  -8149.26790991 </i>
    <i name="XCdc">    372.06666580 </i>
    <i name="pawpsdc">  15921.61802049 </i>
    <i name="pawaedc"> -16406.81079726 </i>
    <i name="eentropy">      0.00058570 </i>
    <i name="bandstr">  -1742.71565685 </i>
    <i name="atom">  18320.98302006 </i>
    <i name="e_fr_energy">    -69.59495177 </i>
    <i name="e_wo_entrp">    -69.59553747 </i>
    <i name="e_0_energy">    -69.59514701 </i>
   </energy>
  </scstep>
  <structure>
   <crystal>
    <varray name="basis" >
     <v>       3.22479600      -5.64383000       0.03157200 </v>
     <v>       3.22479600       5.64383000       0.03157200 </v>
     <v>      -2.10194600       0.00000000       6.07553700 </v>
    </varray>
    <i name="volume">    221.90106089 </i>
    <varray name="rec_basis" >
     <v>       0.15452516      -0.08859232       0.05346088 </v>
     <v>       0.15452516       0.08859232       0.05346088 </v>
     <v>      -0.00160600       0.00000000       0.16403888 </v>
    </varray>
   </crystal>
   <varray name="positions" >
    <v>       0.61844300       0.12117100       0.11953300 </v>
    <v>       0.12117100       0.61844300       0.61953300 </v>
    <v>       0.96295700       0.79032200       0.11881300 </v>
    <v>       0.79032200       0.96295700       0.61881300 </v>
    <v>       0.43819360       0.26728100       0.59904700 </v>
    <v>       0.26728100       0.43973200       0.09904700 </v>
    <v>       0.07949800       0.91167500       0.49736300 </v>
    <v>       0.57140300       0.41236400       0.98018400 </v>
    <v>       0.73711100       0.25006200       0.49504900 </v>
    <v>       0.41236400       0.57140300       0.48018400 </v>
    <v>       0.91167500       0.07949800       0.99736300 </v>
    <v>       0.25006200       0.73711100       0.99504900 </v>
   </varray>
  </structure>
  <varray name="forces" >
   <v>      -0.00226074      -0.00089879       0.00689217 </v>
   <v>      -0.01027421       0.00117455      -0.00024775 </v>
   <v>       0.00384387       0.00020778      -0.00274059 </v>
   <v>       0.00492816       0.00728818      -0.00011927 </v>
   <v>       0.11147099      -0.13230311      -0.00227860 </v>
   <v>      -0.00054514      -0.00796676      -0.00430171 </v>
   <v>      -0.05415326       0.00837260      -0.01646217 </v>
   <v>      -0.00865892       0.00320216      -0.00241026 </v>
   <v>      -0.05616009       0.08939503       0.02435715 </v>
   <v>       0.01102156       0.03761124      -0.00216111 </v>
   <v>       0.00286378      -0.00308883      -0.00168739 </v>
   <v>      -0.00207599      -0.00299406       0.00115953 </v>
  </varray>
  <energy>
   <i name="e_fr_energy">    -69.59495177 </i>
   <i name="e_wo_entrp">    -69.59514701 </i>
   <i name="e_0_energy">      0.00058570 </i>
  </energy>
  <time name="totalsc"> 5676.18 5677.94</time>
  <eigenvalues>
   <array>
    <dimension dim="1">band</dimension>
    <dimension dim="2">kpoint</dimension>
    <dimension dim="3">spin</dimension>
    <field>eigene</field>
    <field>occ</field>
    <set>
     <set comment="spin 1">
      <set comment="kpoint 1">
       <r>  -68.6459    1.0000 </r>
       <r>  -68.6419    1.0000 </r>
       <r>  -68.6369    1.0000 </r>
       <r>  -68.6331    1.0000 </r>
       <r>  -68.6132    1.0000 </r>
       <r>  -68.6092    1.0000 </r>
       <r>  -68.5955    1.0000 </r>
       <r>  -68.5925    1.0000 </r>
       <r>  -68.5814    1.0000 </r>
       <r>  -68.5771    1.0000 </r>
       <r>  -68.5640    1.0000 </r>
       <r>  -68.5597    1.0000 </r>
       <r>  -12.7246    1.0000 </r>
       <r>  -11.1296    1.0000 </r>
       <r>  -10.9199    1.0000 </r>
       <r>  -10.6059    1.0000 </r>
       <r>  -10.2472    1.0000 </r>
       <r>  -10.2288    1.0000 </r>
       <r>   -5.9883    1.0000 </r>
       <r>   -4.9859    1.0000 </r>
       <r>   -2.7617    1.0000 </r>
       <r>   -2.2108    1.0000 </r>
       <r>   -2.0658    1.0000 </r>
       <r>   -1.9223    1.0000 </r>
       <r>   -1.5769    1.0000 </r>
       <r>   -0.9818    1.0000 </r>
       <r>   -0.9534    1.0000 </r>
       <r>   -0.6856    1.0000 </r>
       <r>   -0.4037    1.0000 </r>
       <r>   -0.2765    1.0000 </r>
       <r>   -0.2591    1.0000 </r>
       <r>   -0.2357    1.0000 </r>
       <r>   -0.1891    1.0000 </r>
       <r>   -0.1565    1.0000 </r>
       <r>   -0.0367    1.0000 </r>
       <r>    0.0325    1.0000 </r>
       <r>    1.3506    1.0000 </r>
       <r>    1.3631    1.0000 </r>
       <r>    1.4146    1.0000 </r>
       <r>    1.4571    1.0000 </r>
       <r>    1.4699    1.0000 </r>
       <r>    1.4738    1.0000 </r>
       <r>    1.5211    1.0000 </r>
       <r>    1.5321    1.0000 </r>
       <r>    1.5755    1.0000 </r>
       <r>    1.7121    1.0000 </r>
       <r>    1.8927    1.0000 </r>
       <r>    1.9304    1.0000 </r>
       <r>    2.0570    1.0000 </r>
       <r>    2.6519    1.0000 </r>
       <r>    2.7295    1.0000 </r>
       <r>    3.0926    1.0000 </r>
       <r>    3.2168    1.0000 </r>
       <r>    4.0073    1.0052 </r>
       <r>    4.0392    1.0140 </r>
       <r>    4.1727    0.8555 </r>
       <r>    5.5373   -0.0000 </r>
       <r>    6.3567   -0.0000 </r>
       <r>    7.6236    0.0000 </r>
       <r>    7.9840    0.0000 </r>
       <r>    8.6151    0.0000 </r>
       <r>    8.7972    0.0000 </r>
       <r>    9.5569    0.0000 </r>
       <r>    9.7393    0.0000 </r>
       <r>    9.8188    0.0000 </r>
       <r>   10.4259    0.0000 </r>
       <r>   10.5826    0.0000 </r>
       <r>   10.6922    0.0000 </r>
       <r>   10.7188    0.0000 </r>
       <r>   11.2846    0.0000 </r>
       <r>   11.7099    0.0000 </r>
       <r>   12.3946    0.0000 </r>
       <r>   12.4527    0.0000 </r>
       <r>   12.7280    0.0000 </r>
       <r>   13.3204    0.0000 </r>
       <r>   13.3843    0.0000 </r>
       <r>   13.8276    0.0000 </r>
       <r>   13.8874    0.0000 </r>
       <r>   14.1469    0.0000 </r>
       <r>   14.1807    0.0000 </r>
      </set>
      <set comment="kpoint 2">
       <r>  -68.6459    1.0000 </r>
       <r>  -68.6419    1.0000 </r>
       <r>  -68.6369    1.0000 </r>
       <r>  -68.6330    1.0000 </r>
       <r>  -68.6131    1.0000 </r>
       <r>  -68.6091    1.0000 </r>
       <r>  -68.5955    1.0000 </r>
       <r>  -68.5925    1.0000 </r>
       <r>  -68.5813    1.0000 </r>
       <r>  -68.5770    1.0000 </r>
       <r>  -68.5639    1.0000 </r>
       <r>  -68.5597    1.0000 </r>
       <r>  -12.6003    1.0000 </r>
       <r>  -11.1216    1.0000 </r>
       <r>  -10.9866    1.0000 </r>
       <r>  -10.6872    1.0000 </r>
       <r>  -10.3604    1.0000 </r>
       <r>  -10.2691    1.0000 </r>
       <r>   -5.9366    1.0000 </r>
       <r>   -4.7754    1.0000 </r>
       <r>   -2.6478    1.0000 </r>
       <r>   -2.2531    1.0000 </r>
       <r>   -2.0853    1.0000 </r>
       <r>   -1.6887    1.0000 </r>
       <r>   -1.3413    1.0000 </r>
       <r>   -0.9986    1.0000 </r>
       <r>   -0.7713    1.0000 </r>
       <r>   -0.6247    1.0000 </r>
       <r>   -0.5531    1.0000 </r>
       <r>   -0.4402    1.0000 </r>
       <r>   -0.3575    1.0000 </r>
       <r>   -0.2416    1.0000 </r>
       <r>   -0.1951    1.0000 </r>
       <r>   -0.1670    1.0000 </r>
       <r>   -0.0438    1.0000 </r>
       <r>    0.0399    1.0000 </r>
       <r>    1.2801    1.0000 </r>
       <r>    1.3358    1.0000 </r>
       <r>    1.3550    1.0000 </r>
       <r>    1.3922    1.0000 </r>
       <r>    1.4283    1.0000 </r>
       <r>    1.4722    1.0000 </r>
       <r>    1.4984    1.0000 </r>
       <r>    1.5303    1.0000 </r>
       <r>    1.7246    1.0000 </r>
       <r>    1.8596    1.0000 </r>
       <r>    2.0552    1.0000 </r>
       <r>    2.0943    1.0000 </r>
       <r>    2.2330    1.0000 </r>
       <r>    2.4137    1.0000 </r>
       <r>    2.5564    1.0000 </r>
       <r>    2.8265    1.0000 </r>
       <r>    2.9462    1.0000 </r>
       <r>    3.2447    1.0000 </r>
       <r>    3.6634    1.0000 </r>
       <r>    4.0397    1.0143 </r>
       <r>    6.1697   -0.0000 </r>
       <r>    6.9047   -0.0000 </r>
       <r>    8.1395    0.0000 </r>
       <r>    8.2628    0.0000 </r>
       <r>    8.5883    0.0000 </r>
       <r>    9.0219    0.0000 </r>
       <r>    9.2354    0.0000 </r>
       <r>    9.5301    0.0000 </r>
       <r>    9.8639    0.0000 </r>
       <r>   10.3776    0.0000 </r>
       <r>   10.6325    0.0000 </r>
       <r>   10.8119    0.0000 </r>
       <r>   10.9415    0.0000 </r>
       <r>   11.1925    0.0000 </r>
       <r>   11.6557    0.0000 </r>
       <r>   11.7714    0.0000 </r>
       <r>   12.1176    0.0000 </r>
       <r>   12.4421    0.0000 </r>
       <r>   12.6188    0.0000 </r>
       <r>   13.0103    0.0000 </r>
       <r>   13.5050    0.0000 </r>
       <r>   13.8781    0.0000 </r>
       <r>   14.2076    0.0000 </r>
       <r>   14.7144    0.0000 </r>
      </set>
      <set comment="kpoint 3">
       <r>  -68.6458    1.0000 </r>
       <r>  -68.6417    1.0000 </r>
       <r>  -68.6368    1.0000 </r>
       <r>  -68.6329    1.0000 </r>
       <r>  -68.6130    1.0000 </r>
       <r>  -68.6091    1.0000 </r>
       <r>  -68.5954    1.0000 </r>
       <r>  -68.5925    1.0000 </r>
       <r>  -68.5812    1.0000 </r>
       <r>  -68.5770    1.0000 </r>
       <r>  -68.5638    1.0000 </r>
       <r>  -68.5595    1.0000 </r>
       <r>  -12.4423    1.0000 </r>
       <r>  -11.2387    1.0000 </r>
       <r>  -10.9628    1.0000 </r>
       <r>  -10.7789    1.0000 </r>
       <r>  -10.4233    1.0000 </r>
       <r>  -10.3454    1.0000 </r>
       <r>   -5.8743    1.0000 </r>
       <r>   -4.5506    1.0000 </r>
       <r>   -2.4975    1.0000 </r>
       <r>   -2.2433    1.0000 </r>
       <r>   -1.9452    1.0000 </r>
       <r>   -1.4653    1.0000 </r>
       <r>   -1.2212    1.0000 </r>
       <r>   -1.1044    1.0000 </r>
       <r>   -0.9002    1.0000 </r>
       <r>   -0.8634    1.0000 </r>
       <r>   -0.5998    1.0000 </r>
       <r>   -0.5388    1.0000 </r>
       <r>   -0.2701    1.0000 </r>
       <r>   -0.2072    1.0000 </r>
       <r>   -0.2005    1.0000 </r>
       <r>   -0.1452    1.0000 </r>
       <r>   -0.0269    1.0000 </r>
       <r>    0.0808    1.0000 </r>
       <r>    1.2554    1.0000 </r>
       <r>    1.3282    1.0000 </r>
       <r>    1.3474    1.0000 </r>
       <r>    1.3985    1.0000 </r>
       <r>    1.4703    1.0000 </r>
       <r>    1.4786    1.0000 </r>
       <r>    1.5006    1.0000 </r>
       <r>    1.5533    1.0000 </r>
       <r>    1.7523    1.0000 </r>
       <r>    1.7908    1.0000 </r>
       <r>    1.9681    1.0000 </r>
       <r>    2.1457    1.0000 </r>
       <r>    2.3201    1.0000 </r>
       <r>    2.3607    1.0000 </r>
       <r>    2.5570    1.0000 </r>
       <r>    2.6716    1.0000 </r>
       <r>    2.9371    1.0000 </r>
       <r>    3.0799    1.0000 </r>
       <r>    3.2499    1.0000 </r>
       <r>    3.8612    1.0000 </r>
       <r>    6.3845   -0.0000 </r>
       <r>    7.0981    0.0000 </r>
       <r>    7.9796    0.0000 </r>
       <r>    8.2092    0.0000 </r>
       <r>    8.5211    0.0000 </r>
       <r>    8.8158    0.0000 </r>
       <r>    9.3243    0.0000 </r>
       <r>    9.8879    0.0000 </r>
       <r>   10.0107    0.0000 </r>
       <r>   10.5165    0.0000 </r>
       <r>   10.6870    0.0000 </r>
       <r>   10.7914    0.0000 </r>
       <r>   11.1392    0.0000 </r>
       <r>   11.4043    0.0000 </r>
       <r>   11.6105    0.0000 </r>
       <r>   11.7746    0.0000 </r>
       <r>   11.9427    0.0000 </r>
       <r>   12.5086    0.0000 </r>
       <r>   12.7775    0.0000 </r>
       <r>   12.9979    0.0000 </r>
       <r>   13.3982    0.0000 </r>
       <r>   13.5467    0.0000 </r>
       <r>   13.9409    0.0000 </r>
       <r>   14.2731    0.0000 </r>
      </set>
      <set comment="kpoint 4">
       <r>  -68.6459    1.0000 </r>
       <r>  -68.6419    1.0000 </r>
       <r>  -68.6369    1.0000 </r>
       <r>  -68.6330    1.0000 </r>
       <r>  -68.6131    1.0000 </r>
       <r>  -68.6091    1.0000 </r>
       <r>  -68.5955    1.0000 </r>
       <r>  -68.5926    1.0000 </r>
       <r>  -68.5813    1.0000 </r>
       <r>  -68.5770    1.0000 </r>
       <r>  -68.5639    1.0000 </r>
       <r>  -68.5597    1.0000 </r>
       <r>  -12.5998    1.0000 </r>
       <r>  -11.1243    1.0000 </r>
       <r>  -10.9903    1.0000 </r>
       <r>  -10.6800    1.0000 </r>
       <r>  -10.3532    1.0000 </r>
       <r>  -10.2778    1.0000 </r>
       <r>   -5.9363    1.0000 </r>
       <r>   -4.7740    1.0000 </r>
       <r>   -2.6469    1.0000 </r>
       <r>   -2.2530    1.0000 </r>
       <r>   -2.0842    1.0000 </r>
       <r>   -1.6917    1.0000 </r>
       <r>   -1.3478    1.0000 </r>
       <r>   -1.0012    1.0000 </r>
       <r>   -0.7680    1.0000 </r>
       <r>   -0.6184    1.0000 </r>
       <r>   -0.5563    1.0000 </r>
       <r>   -0.4408    1.0000 </r>
       <r>   -0.3603    1.0000 </r>
       <r>   -0.2411    1.0000 </r>
       <r>   -0.1906    1.0000 </r>
       <r>   -0.1669    1.0000 </r>
       <r>   -0.0440    1.0000 </r>
       <r>    0.0383    1.0000 </r>
       <r>    1.2792    1.0000 </r>
       <r>    1.3354    1.0000 </r>
       <r>    1.3551    1.0000 </r>
       <r>    1.3929    1.0000 </r>
       <r>    1.4277    1.0000 </r>
       <r>    1.4724    1.0000 </r>
       <r>    1.4978    1.0000 </r>
       <r>    1.5311    1.0000 </r>
       <r>    1.7245    1.0000 </r>
       <r>    1.8621    1.0000 </r>
       <r>    2.0548    1.0000 </r>
       <r>    2.0943    1.0000 </r>
       <r>    2.2318    1.0000 </r>
       <r>    2.4132    1.0000 </r>
       <r>    2.5556    1.0000 </r>
       <r>    2.8279    1.0000 </r>
       <r>    2.9493    1.0000 </r>
       <r>    3.2453    1.0000 </r>
       <r>    3.6635    1.0000 </r>
       <r>    4.0407    1.0146 </r>
       <r>    6.1702   -0.0000 </r>
       <r>    6.9046   -0.0000 </r>
       <r>    8.1372    0.0000 </r>
       <r>    8.2634    0.0000 </r>
       <r>    8.5882    0.0000 </r>
       <r>    9.0116    0.0000 </r>
       <r>    9.2311    0.0000 </r>
       <r>    9.5443    0.0000 </r>
       <r>    9.8639    0.0000 </r>
       <r>   10.3753    0.0000 </r>
       <r>   10.6291    0.0000 </r>
       <r>   10.8167    0.0000 </r>
       <r>   10.9435    0.0000 </r>
       <r>   11.1950    0.0000 </r>
       <r>   11.6539    0.0000 </r>
       <r>   11.7716    0.0000 </r>
       <r>   12.1149    0.0000 </r>
       <r>   12.4421    0.0000 </r>
       <r>   12.6190    0.0000 </r>
       <r>   13.0065    0.0000 </r>
       <r>   13.5190    0.0000 </r>
       <r>   13.8979    0.0000 </r>
       <r>   14.2701    0.0000 </r>
       <r>   14.8407    0.0000 </r>
      </set>
      <set comment="kpoint 5">
       <r>  -68.6459    1.0000 </r>
       <r>  -68.6419    1.0000 </r>
       <r>  -68.6368    1.0000 </r>
       <r>  -68.6329    1.0000 </r>
       <r>  -68.6132    1.0000 </r>
       <r>  -68.6092    1.0000 </r>
       <r>  -68.5954    1.0000 </r>
       <r>  -68.5924    1.0000 </r>
       <r>  -68.5814    1.0000 </r>
       <r>  -68.5771    1.0000 </r>
       <r>  -68.5640    1.0000 </r>
       <r>  -68.5597    1.0000 </r>
       <r>  -12.4453    1.0000 </r>
       <r>  -11.1852    1.0000 </r>
       <r>  -10.9488    1.0000 </r>
       <r>  -10.8839    1.0000 </r>
       <r>  -10.3917    1.0000 </r>
       <r>  -10.3378    1.0000 </r>
       <r>   -5.8790    1.0000 </r>
       <r>   -4.5224    1.0000 </r>
       <r>   -2.4204    1.0000 </r>
       <r>   -2.2452    1.0000 </r>
       <r>   -1.7931    1.0000 </r>
       <r>   -1.6813    1.0000 </r>
       <r>   -1.3540    1.0000 </r>
       <r>   -1.3010    1.0000 </r>
       <r>   -1.0862    1.0000 </r>
       <r>   -0.6836    1.0000 </r>
       <r>   -0.5219    1.0000 </r>
       <r>   -0.2975    1.0000 </r>
       <r>   -0.2831    1.0000 </r>
       <r>   -0.2221    1.0000 </r>
       <r>   -0.1828    1.0000 </r>
       <r>   -0.1255    1.0000 </r>
       <r>   -0.0912    1.0000 </r>
       <r>    0.0791    1.0000 </r>
       <r>    1.2937    1.0000 </r>
       <r>    1.3118    1.0000 </r>
       <r>    1.4162    1.0000 </r>
       <r>    1.4275    1.0000 </r>
       <r>    1.4643    1.0000 </r>
       <r>    1.4824    1.0000 </r>
       <r>    1.4949    1.0000 </r>
       <r>    1.5696    1.0000 </r>
       <r>    1.6708    1.0000 </r>
       <r>    1.8803    1.0000 </r>
       <r>    1.9391    1.0000 </r>
       <r>    2.1339    1.0000 </r>
       <r>    2.2789    1.0000 </r>
       <r>    2.3215    1.0000 </r>
       <r>    2.5621    1.0000 </r>
       <r>    2.6537    1.0000 </r>
       <r>    2.9055    1.0000 </r>
       <r>    2.9462    1.0000 </r>
       <r>    3.6979    1.0000 </r>
       <r>    3.8314    1.0000 </r>
       <r>    6.1716   -0.0000 </r>
       <r>    6.9912    0.0000 </r>
       <r>    8.0021    0.0000 </r>
       <r>    8.3276    0.0000 </r>
       <r>    8.4280    0.0000 </r>
       <r>    8.5677    0.0000 </r>
       <r>    9.1481    0.0000 </r>
       <r>    9.2489    0.0000 </r>
       <r>   10.3617    0.0000 </r>
       <r>   10.4924    0.0000 </r>
       <r>   10.9226    0.0000 </r>
       <r>   11.1840    0.0000 </r>
       <r>   11.3269    0.0000 </r>
       <r>   11.5591    0.0000 </r>
       <r>   11.8153    0.0000 </r>
       <r>   11.9630    0.0000 </r>
       <r>   12.3116    0.0000 </r>
       <r>   12.5020    0.0000 </r>
       <r>   12.7114    0.0000 </r>
       <r>   12.9105    0.0000 </r>
       <r>   13.3364    0.0000 </r>
       <r>   13.4479    0.0000 </r>
       <r>   14.2598    0.0000 </r>
       <r>   14.3702    0.0000 </r>
      </set>
      <set comment="kpoint 6">
       <r>  -68.6457    1.0000 </r>
       <r>  -68.6417    1.0000 </r>
       <r>  -68.6369    1.0000 </r>
       <r>  -68.6330    1.0000 </r>
       <r>  -68.6130    1.0000 </r>
       <r>  -68.6090    1.0000 </r>
       <r>  -68.5954    1.0000 </r>
       <r>  -68.5925    1.0000 </r>
       <r>  -68.5812    1.0000 </r>
       <r>  -68.5770    1.0000 </r>
       <r>  -68.5638    1.0000 </r>
       <r>  -68.5596    1.0000 </r>
       <r>  -12.4469    1.0000 </r>
       <r>  -11.3454    1.0000 </r>
       <r>  -10.9445    1.0000 </r>
       <r>  -10.7471    1.0000 </r>
       <r>  -10.3790    1.0000 </r>
       <r>  -10.2676    1.0000 </r>
       <r>   -5.9512    1.0000 </r>
       <r>   -4.6452    1.0000 </r>
       <r>   -2.3949    1.0000 </r>
       <r>   -2.2268    1.0000 </r>
       <r>   -2.0555    1.0000 </r>
       <r>   -1.6398    1.0000 </r>
       <r>   -1.3559    1.0000 </r>
       <r>   -1.2821    1.0000 </r>
       <r>   -1.0255    1.0000 </r>
       <r>   -0.5086    1.0000 </r>
       <r>   -0.4827    1.0000 </r>
       <r>   -0.3337    1.0000 </r>
       <r>   -0.2842    1.0000 </r>
       <r>   -0.2145    1.0000 </r>
       <r>   -0.1521    1.0000 </r>
       <r>   -0.1343    1.0000 </r>
       <r>   -0.0079    1.0000 </r>
       <r>    0.1145    1.0000 </r>
       <r>    1.2469    1.0000 </r>
       <r>    1.3163    1.0000 </r>
       <r>    1.3828    1.0000 </r>
       <r>    1.4372    1.0000 </r>
       <r>    1.4630    1.0000 </r>
       <r>    1.4922    1.0000 </r>
       <r>    1.4965    1.0000 </r>
       <r>    1.5488    1.0000 </r>
       <r>    1.7491    1.0000 </r>
       <r>    1.8287    1.0000 </r>
       <r>    1.9225    1.0000 </r>
       <r>    2.1325    1.0000 </r>
       <r>    2.2211    1.0000 </r>
       <r>    2.3844    1.0000 </r>
       <r>    2.5606    1.0000 </r>
       <r>    2.7916    1.0000 </r>
       <r>    2.9776    1.0000 </r>
       <r>    3.3119    1.0000 </r>
       <r>    3.6072    1.0000 </r>
       <r>    3.7482    1.0000 </r>
       <r>    6.0865   -0.0000 </r>
       <r>    6.9386   -0.0000 </r>
       <r>    7.6105    0.0000 </r>
       <r>    8.0690    0.0000 </r>
       <r>    8.4082    0.0000 </r>
       <r>    8.6152    0.0000 </r>
       <r>    8.9802    0.0000 </r>
       <r>    9.1485    0.0000 </r>
       <r>   10.0886    0.0000 </r>
       <r>   10.3376    0.0000 </r>
       <r>   10.7326    0.0000 </r>
       <r>   11.1050    0.0000 </r>
       <r>   11.4620    0.0000 </r>
       <r>   11.5974    0.0000 </r>
       <r>   11.7976    0.0000 </r>
       <r>   12.0828    0.0000 </r>
       <r>   12.4798    0.0000 </r>
       <r>   12.9131    0.0000 </r>
       <r>   13.0426    0.0000 </r>
       <r>   13.8301    0.0000 </r>
       <r>   14.1948    0.0000 </r>
       <r>   14.6543    0.0000 </r>
       <r>   15.4269    0.0000 </r>
       <r>   15.6410    0.0000 </r>
      </set>
      <set comment="kpoint 7">
       <r>  -68.6459    1.0000 </r>
       <r>  -68.6419    1.0000 </r>
       <r>  -68.6368    1.0000 </r>
       <r>  -68.6330    1.0000 </r>
       <r>  -68.6130    1.0000 </r>
       <r>  -68.6090    1.0000 </r>
       <r>  -68.5955    1.0000 </r>
       <r>  -68.5925    1.0000 </r>
       <r>  -68.5812    1.0000 </r>
       <r>  -68.5770    1.0000 </r>
       <r>  -68.5639    1.0000 </r>
       <r>  -68.5597    1.0000 </r>
       <r>  -12.6035    1.0000 </r>
       <r>  -11.2456    1.0000 </r>
       <r>  -10.9985    1.0000 </r>
       <r>  -10.5779    1.0000 </r>
       <r>  -10.3541    1.0000 </r>
       <r>  -10.1782    1.0000 </r>
       <r>   -6.0136    1.0000 </r>
       <r>   -4.8976    1.0000 </r>
       <r>   -2.6483    1.0000 </r>
       <r>   -2.3121    1.0000 </r>
       <r>   -1.9704    1.0000 </r>
       <r>   -1.6459    1.0000 </r>
       <r>   -1.4973    1.0000 </r>
       <r>   -1.1803    1.0000 </r>
       <r>   -0.7912    1.0000 </r>
       <r>   -0.5843    1.0000 </r>
       <r>   -0.4490    1.0000 </r>
       <r>   -0.3315    1.0000 </r>
       <r>   -0.2951    1.0000 </r>
       <r>   -0.2318    1.0000 </r>
       <r>   -0.1772    1.0000 </r>
       <r>   -0.1323    1.0000 </r>
       <r>   -0.0081    1.0000 </r>
       <r>    0.0750    1.0000 </r>
       <r>    1.2598    1.0000 </r>
       <r>    1.3204    1.0000 </r>
       <r>    1.3661    1.0000 </r>
       <r>    1.4224    1.0000 </r>
       <r>    1.4307    1.0000 </r>
       <r>    1.4760    1.0000 </r>
       <r>    1.5037    1.0000 </r>
       <r>    1.5449    1.0000 </r>
       <r>    1.7257    1.0000 </r>
       <r>    1.8124    1.0000 </r>
       <r>    1.9945    1.0000 </r>
       <r>    2.0721    1.0000 </r>
       <r>    2.4165    1.0000 </r>
       <r>    2.4645    1.0000 </r>
       <r>    2.5300    1.0000 </r>
       <r>    2.8712    1.0000 </r>
       <r>    3.1432    1.0000 </r>
       <r>    3.2275    1.0000 </r>
       <r>    3.7848    1.0000 </r>
       <r>    4.0719    1.0284 </r>
       <r>    5.9781   -0.0000 </r>
       <r>    6.6854   -0.0000 </r>
       <r>    7.5317    0.0000 </r>
       <r>    8.2228    0.0000 </r>
       <r>    8.6134    0.0000 </r>
       <r>    8.9201    0.0000 </r>
       <r>    9.2989    0.0000 </r>
       <r>    9.4311    0.0000 </r>
       <r>    9.8017    0.0000 </r>
       <r>   10.2704    0.0000 </r>
       <r>   10.5435    0.0000 </r>
       <r>   10.8346    0.0000 </r>
       <r>   10.9732    0.0000 </r>
       <r>   11.3833    0.0000 </r>
       <r>   11.4741    0.0000 </r>
       <r>   11.7328    0.0000 </r>
       <r>   12.1026    0.0000 </r>
       <r>   12.6626    0.0000 </r>
       <r>   12.9397    0.0000 </r>
       <r>   13.1044    0.0000 </r>
       <r>   13.3510    0.0000 </r>
       <r>   13.5206    0.0000 </r>
       <r>   14.4768    0.0000 </r>
       <r>   14.7556    0.0000 </r>
      </set>
      <set comment="kpoint 8">
       <r>  -68.6457    1.0000 </r>
       <r>  -68.6418    1.0000 </r>
       <r>  -68.6368    1.0000 </r>
       <r>  -68.6329    1.0000 </r>
       <r>  -68.6131    1.0000 </r>
       <r>  -68.6090    1.0000 </r>
       <r>  -68.5954    1.0000 </r>
       <r>  -68.5925    1.0000 </r>
       <r>  -68.5813    1.0000 </r>
       <r>  -68.5769    1.0000 </r>
       <r>  -68.5638    1.0000 </r>
       <r>  -68.5596    1.0000 </r>
       <r>  -12.4407    1.0000 </r>
       <r>  -11.2489    1.0000 </r>
       <r>  -10.9643    1.0000 </r>
       <r>  -10.7659    1.0000 </r>
       <r>  -10.4075    1.0000 </r>
       <r>  -10.3645    1.0000 </r>
       <r>   -5.8737    1.0000 </r>
       <r>   -4.5470    1.0000 </r>
       <r>   -2.4957    1.0000 </r>
       <r>   -2.2433    1.0000 </r>
       <r>   -1.9504    1.0000 </r>
       <r>   -1.4663    1.0000 </r>
       <r>   -1.2287    1.0000 </r>
       <r>   -1.1050    1.0000 </r>
       <r>   -0.9089    1.0000 </r>
       <r>   -0.8646    1.0000 </r>
       <r>   -0.5961    1.0000 </r>
       <r>   -0.5278    1.0000 </r>
       <r>   -0.2741    1.0000 </r>
       <r>   -0.2064    1.0000 </r>
       <r>   -0.1985    1.0000 </r>
       <r>   -0.1422    1.0000 </r>
       <r>   -0.0301    1.0000 </r>
       <r>    0.0800    1.0000 </r>
       <r>    1.2538    1.0000 </r>
       <r>    1.3276    1.0000 </r>
       <r>    1.3493    1.0000 </r>
       <r>    1.3975    1.0000 </r>
       <r>    1.4718    1.0000 </r>
       <r>    1.4779    1.0000 </r>
       <r>    1.5000    1.0000 </r>
       <r>    1.5540    1.0000 </r>
       <r>    1.7531    1.0000 </r>
       <r>    1.7905    1.0000 </r>
       <r>    1.9661    1.0000 </r>
       <r>    2.1477    1.0000 </r>
       <r>    2.3194    1.0000 </r>
       <r>    2.3629    1.0000 </r>
       <r>    2.5613    1.0000 </r>
       <r>    2.6734    1.0000 </r>
       <r>    2.9397    1.0000 </r>
       <r>    3.0834    1.0000 </r>
       <r>    3.2477    1.0000 </r>
       <r>    3.8620    1.0000 </r>
       <r>    6.3855   -0.0000 </r>
       <r>    7.0961    0.0000 </r>
       <r>    7.9792    0.0000 </r>
       <r>    8.2006    0.0000 </r>
       <r>    8.5036    0.0000 </r>
       <r>    8.8142    0.0000 </r>
       <r>    9.3366    0.0000 </r>
       <r>    9.8894    0.0000 </r>
       <r>   10.0123    0.0000 </r>
       <r>   10.5182    0.0000 </r>
       <r>   10.6942    0.0000 </r>
       <r>   10.7941    0.0000 </r>
       <r>   11.1416    0.0000 </r>
       <r>   11.4079    0.0000 </r>
       <r>   11.6105    0.0000 </r>
       <r>   11.7775    0.0000 </r>
       <r>   11.9411    0.0000 </r>
       <r>   12.5130    0.0000 </r>
       <r>   12.8171    0.0000 </r>
       <r>   13.0280    0.0000 </r>
       <r>   13.5215    0.0000 </r>
       <r>   13.6630    0.0000 </r>
       <r>   14.5551    0.0000 </r>
       <r>   15.2570    0.0000 </r>
      </set>
      <set comment="kpoint 9">
       <r>  -68.6457    1.0000 </r>
       <r>  -68.6417    1.0000 </r>
       <r>  -68.6368    1.0000 </r>
       <r>  -68.6330    1.0000 </r>
       <r>  -68.6130    1.0000 </r>
       <r>  -68.6090    1.0000 </r>
       <r>  -68.5954    1.0000 </r>
       <r>  -68.5925    1.0000 </r>
       <r>  -68.5812    1.0000 </r>
       <r>  -68.5769    1.0000 </r>
       <r>  -68.5638    1.0000 </r>
       <r>  -68.5596    1.0000 </r>
       <r>  -12.4461    1.0000 </r>
       <r>  -11.3493    1.0000 </r>
       <r>  -10.9454    1.0000 </r>
       <r>  -10.7418    1.0000 </r>
       <r>  -10.3765    1.0000 </r>
       <r>  -10.2716    1.0000 </r>
       <r>   -5.9509    1.0000 </r>
       <r>   -4.6440    1.0000 </r>
       <r>   -2.3930    1.0000 </r>
       <r>   -2.2246    1.0000 </r>
       <r>   -2.0561    1.0000 </r>
       <r>   -1.6426    1.0000 </r>
       <r>   -1.3639    1.0000 </r>
       <r>   -1.2819    1.0000 </r>
       <r>   -1.0258    1.0000 </r>
       <r>   -0.5111    1.0000 </r>
       <r>   -0.4819    1.0000 </r>
       <r>   -0.3307    1.0000 </r>
       <r>   -0.2825    1.0000 </r>
       <r>   -0.2163    1.0000 </r>
       <r>   -0.1490    1.0000 </r>
       <r>   -0.1310    1.0000 </r>
       <r>   -0.0120    1.0000 </r>
       <r>    0.1142    1.0000 </r>
       <r>    1.2466    1.0000 </r>
       <r>    1.3154    1.0000 </r>
       <r>    1.3829    1.0000 </r>
       <r>    1.4375    1.0000 </r>
       <r>    1.4623    1.0000 </r>
       <r>    1.4929    1.0000 </r>
       <r>    1.4966    1.0000 </r>
       <r>    1.5500    1.0000 </r>
       <r>    1.7500    1.0000 </r>
       <r>    1.8274    1.0000 </r>
       <r>    1.9216    1.0000 </r>
       <r>    2.1338    1.0000 </r>
       <r>    2.2207    1.0000 </r>
       <r>    2.3863    1.0000 </r>
       <r>    2.5629    1.0000 </r>
       <r>    2.7908    1.0000 </r>
       <r>    2.9800    1.0000 </r>
       <r>    3.3132    1.0000 </r>
       <r>    3.6058    1.0000 </r>
       <r>    3.7479    1.0000 </r>
       <r>    6.0869   -0.0000 </r>
       <r>    6.9387   -0.0000 </r>
       <r>    7.6106    0.0000 </r>
       <r>    8.0660    0.0000 </r>
       <r>    8.4065    0.0000 </r>
       <r>    8.6098    0.0000 </r>
       <r>    8.9892    0.0000 </r>
       <r>    9.1469    0.0000 </r>
       <r>   10.0880    0.0000 </r>
       <r>   10.3361    0.0000 </r>
       <r>   10.7358    0.0000 </r>
       <r>   11.1076    0.0000 </r>
       <r>   11.4562    0.0000 </r>
       <r>   11.5790    0.0000 </r>
       <r>   11.7908    0.0000 </r>
       <r>   12.0295    0.0000 </r>
       <r>   12.5270    0.0000 </r>
       <r>   12.6792    0.0000 </r>
       <r>   12.9123    0.0000 </r>
       <r>   13.2095    0.0000 </r>
       <r>   14.2337    0.0000 </r>
       <r>   14.7732    0.0000 </r>
       <r>   15.2453    0.0000 </r>
       <r>   15.9039    0.0000 </r>
      </set>
      <set comment="kpoint 10">
       <r>  -68.6455    1.0000 </r>
       <r>  -68.6415    1.0000 </r>
       <r>  -68.6367    1.0000 </r>
       <r>  -68.6328    1.0000 </r>
       <r>  -68.6129    1.0000 </r>
       <r>  -68.6089    1.0000 </r>
       <r>  -68.5952    1.0000 </r>
       <r>  -68.5923    1.0000 </r>
       <r>  -68.5811    1.0000 </r>
       <r>  -68.5768    1.0000 </r>
       <r>  -68.5636    1.0000 </r>
       <r>  -68.5594    1.0000 </r>
       <r>  -12.4395    1.0000 </r>
       <r>  -11.4938    1.0000 </r>
       <r>  -10.9206    1.0000 </r>
       <r>  -10.6252    1.0000 </r>
       <r>  -10.3838    1.0000 </r>
       <r>  -10.1983    1.0000 </r>
       <r>   -6.0298    1.0000 </r>
       <r>   -4.8142    1.0000 </r>
       <r>   -2.3162    1.0000 </r>
       <r>   -2.2612    1.0000 </r>
       <r>   -2.0897    1.0000 </r>
       <r>   -1.7022    1.0000 </r>
       <r>   -1.2411    1.0000 </r>
       <r>   -1.1158    1.0000 </r>
       <r>   -0.8460    1.0000 </r>
       <r>   -0.7740    1.0000 </r>
       <r>   -0.7300    1.0000 </r>
       <r>   -0.2451    1.0000 </r>
       <r>   -0.1964    1.0000 </r>
       <r>   -0.1789    1.0000 </r>
       <r>   -0.1548    1.0000 </r>
       <r>   -0.0412    1.0000 </r>
       <r>   -0.0024    1.0000 </r>
       <r>    0.1875    1.0000 </r>
       <r>    1.2655    1.0000 </r>
       <r>    1.3186    1.0000 </r>
       <r>    1.3763    1.0000 </r>
       <r>    1.4141    1.0000 </r>
       <r>    1.4322    1.0000 </r>
       <r>    1.4936    1.0000 </r>
       <r>    1.5087    1.0000 </r>
       <r>    1.5503    1.0000 </r>
       <r>    1.7867    1.0000 </r>
       <r>    1.8477    1.0000 </r>
       <r>    1.9973    1.0000 </r>
       <r>    2.1511    1.0000 </r>
       <r>    2.2523    1.0000 </r>
       <r>    2.3371    1.0000 </r>
       <r>    2.5586    1.0000 </r>
       <r>    2.7635    1.0000 </r>
       <r>    2.7721    1.0000 </r>
       <r>    3.3692    1.0000 </r>
       <r>    3.7618    1.0000 </r>
       <r>    4.0115    1.0060 </r>
       <r>    5.8532   -0.0000 </r>
       <r>    6.7606   -0.0000 </r>
       <r>    7.0852    0.0000 </r>
       <r>    8.4140    0.0000 </r>
       <r>    8.5596    0.0000 </r>
       <r>    8.7745    0.0000 </r>
       <r>    9.1341    0.0000 </r>
       <r>    9.2342    0.0000 </r>
       <r>    9.9632    0.0000 </r>
       <r>   10.2840    0.0000 </r>
       <r>   10.7292    0.0000 </r>
       <r>   10.8240    0.0000 </r>
       <r>   10.8778    0.0000 </r>
       <r>   11.2745    0.0000 </r>
       <r>   11.7595    0.0000 </r>
       <r>   11.9126    0.0000 </r>
       <r>   11.9725    0.0000 </r>
       <r>   12.3667    0.0000 </r>
       <r>   12.5401    0.0000 </r>
       <r>   13.4564    0.0000 </r>
       <r>   14.2871    0.0000 </r>
       <r>   14.6787    0.0000 </r>
       <r>   16.7492    0.0000 </r>
       <r>   16.7551    0.0000 </r>
      </set>
      <set comment="kpoint 11">
       <r>  -68.6459    1.0000 </r>
       <r>  -68.6419    1.0000 </r>
       <r>  -68.6369    1.0000 </r>
       <r>  -68.6330    1.0000 </r>
       <r>  -68.6131    1.0000 </r>
       <r>  -68.6091    1.0000 </r>
       <r>  -68.5955    1.0000 </r>
       <r>  -68.5926    1.0000 </r>
       <r>  -68.5813    1.0000 </r>
       <r>  -68.5770    1.0000 </r>
       <r>  -68.5640    1.0000 </r>
       <r>  -68.5597    1.0000 </r>
       <r>  -12.6213    1.0000 </r>
       <r>  -11.4272    1.0000 </r>
       <r>  -10.7797    1.0000 </r>
       <r>  -10.6107    1.0000 </r>
       <r>  -10.2464    1.0000 </r>
       <r>  -10.2304    1.0000 </r>
       <r>   -5.8342    1.0000 </r>
       <r>   -5.0488    1.0000 </r>
       <r>   -2.6017    1.0000 </r>
       <r>   -2.3737    1.0000 </r>
       <r>   -1.9627    1.0000 </r>
       <r>   -1.7709    1.0000 </r>
       <r>   -1.4439    1.0000 </r>
       <r>   -1.1267    1.0000 </r>
       <r>   -1.0660    1.0000 </r>
       <r>   -0.7720    1.0000 </r>
       <r>   -0.4719    1.0000 </r>
       <r>   -0.2934    1.0000 </r>
       <r>   -0.2366    1.0000 </r>
       <r>   -0.2348    1.0000 </r>
       <r>   -0.1915    1.0000 </r>
       <r>   -0.1452    1.0000 </r>
       <r>   -0.0157    1.0000 </r>
       <r>    0.0238    1.0000 </r>
       <r>    1.3337    1.0000 </r>
       <r>    1.3821    1.0000 </r>
       <r>    1.4173    1.0000 </r>
       <r>    1.4400    1.0000 </r>
       <r>    1.4637    1.0000 </r>
       <r>    1.4666    1.0000 </r>
       <r>    1.5144    1.0000 </r>
       <r>    1.5450    1.0000 </r>
       <r>    1.6330    1.0000 </r>
       <r>    1.7593    1.0000 </r>
       <r>    1.7881    1.0000 </r>
       <r>    1.9514    1.0000 </r>
       <r>    2.0872    1.0000 </r>
       <r>    2.6604    1.0000 </r>
       <r>    2.7206    1.0000 </r>
       <r>    3.1961    1.0000 </r>
       <r>    3.2522    1.0000 </r>
       <r>    3.5217    1.0000 </r>
       <r>    3.8958    1.0000 </r>
       <r>    3.9769    1.0016 </r>
       <r>    6.0456   -0.0000 </r>
       <r>    6.4157   -0.0000 </r>
       <r>    7.8211    0.0000 </r>
       <r>    7.9065    0.0000 </r>
       <r>    8.3603    0.0000 </r>
       <r>    8.8217    0.0000 </r>
       <r>    9.7733    0.0000 </r>
       <r>    9.7987    0.0000 </r>
       <r>   10.0558    0.0000 </r>
       <r>   10.5873    0.0000 </r>
       <r>   10.6484    0.0000 </r>
       <r>   10.8145    0.0000 </r>
       <r>   10.8528    0.0000 </r>
       <r>   11.4952    0.0000 </r>
       <r>   11.5569    0.0000 </r>
       <r>   12.0295    0.0000 </r>
       <r>   12.5796    0.0000 </r>
       <r>   12.7756    0.0000 </r>
       <r>   12.9133    0.0000 </r>
       <r>   13.2059    0.0000 </r>
       <r>   13.5311    0.0000 </r>
       <r>   13.8219    0.0000 </r>
       <r>   14.1972    0.0000 </r>
       <r>   14.7044    0.0000 </r>
      </set>
      <set comment="kpoint 12">
       <r>  -68.6459    1.0000 </r>
       <r>  -68.6419    1.0000 </r>
       <r>  -68.6368    1.0000 </r>
       <r>  -68.6330    1.0000 </r>
       <r>  -68.6132    1.0000 </r>
       <r>  -68.6091    1.0000 </r>
       <r>  -68.5954    1.0000 </r>
       <r>  -68.5925    1.0000 </r>
       <r>  -68.5813    1.0000 </r>
       <r>  -68.5771    1.0000 </r>
       <r>  -68.5639    1.0000 </r>
       <r>  -68.5597    1.0000 </r>
       <r>  -12.4630    1.0000 </r>
       <r>  -11.4685    1.0000 </r>
       <r>  -10.8609    1.0000 </r>
       <r>  -10.6958    1.0000 </r>
       <r>  -10.3707    1.0000 </r>
       <r>  -10.2377    1.0000 </r>
       <r>   -5.7703    1.0000 </r>
       <r>   -4.8055    1.0000 </r>
       <r>   -2.4475    1.0000 </r>
       <r>   -2.2337    1.0000 </r>
       <r>   -1.8498    1.0000 </r>
       <r>   -1.7147    1.0000 </r>
       <r>   -1.4262    1.0000 </r>
       <r>   -1.1892    1.0000 </r>
       <r>   -0.8956    1.0000 </r>
       <r>   -0.7477    1.0000 </r>
       <r>   -0.6048    1.0000 </r>
       <r>   -0.5213    1.0000 </r>
       <r>   -0.3110    1.0000 </r>
       <r>   -0.2434    1.0000 </r>
       <r>   -0.1751    1.0000 </r>
       <r>   -0.1195    1.0000 </r>
       <r>   -0.0512    1.0000 </r>
       <r>    0.0609    1.0000 </r>
       <r>    1.3026    1.0000 </r>
       <r>    1.3367    1.0000 </r>
       <r>    1.3699    1.0000 </r>
       <r>    1.4320    1.0000 </r>
       <r>    1.4473    1.0000 </r>
       <r>    1.4795    1.0000 </r>
       <r>    1.5212    1.0000 </r>
       <r>    1.5468    1.0000 </r>
       <r>    1.6419    1.0000 </r>
       <r>    1.8705    1.0000 </r>
       <r>    1.9777    1.0000 </r>
       <r>    2.0476    1.0000 </r>
       <r>    2.1958    1.0000 </r>
       <r>    2.4763    1.0000 </r>
       <r>    2.5959    1.0000 </r>
       <r>    2.8416    1.0000 </r>
       <r>    2.9641    1.0000 </r>
       <r>    3.1323    1.0000 </r>
       <r>    3.5680    1.0000 </r>
       <r>    3.7251    1.0000 </r>
       <r>    6.4415   -0.0000 </r>
       <r>    6.9570    0.0000 </r>
       <r>    8.1725    0.0000 </r>
       <r>    8.2412    0.0000 </r>
       <r>    8.8336    0.0000 </r>
       <r>    9.1260    0.0000 </r>
       <r>    9.4708    0.0000 </r>
       <r>    9.7940    0.0000 </r>
       <r>   10.0848    0.0000 </r>
       <r>   10.2954    0.0000 </r>
       <r>   10.7392    0.0000 </r>
       <r>   11.0805    0.0000 </r>
       <r>   11.2876    0.0000 </r>
       <r>   11.4218    0.0000 </r>
       <r>   11.6312    0.0000 </r>
       <r>   11.7244    0.0000 </r>
       <r>   12.0852    0.0000 </r>
       <r>   12.2643    0.0000 </r>
       <r>   12.5446    0.0000 </r>
       <r>   12.6614    0.0000 </r>
       <r>   12.9524    0.0000 </r>
       <r>   13.0604    0.0000 </r>
       <r>   13.6406    0.0000 </r>
       <r>   14.6888    0.0000 </r>
      </set>
      <set comment="kpoint 13">
       <r>  -68.6457    1.0000 </r>
       <r>  -68.6416    1.0000 </r>
       <r>  -68.6368    1.0000 </r>
       <r>  -68.6329    1.0000 </r>
       <r>  -68.6130    1.0000 </r>
       <r>  -68.6090    1.0000 </r>
       <r>  -68.5953    1.0000 </r>
       <r>  -68.5924    1.0000 </r>
       <r>  -68.5812    1.0000 </r>
       <r>  -68.5770    1.0000 </r>
       <r>  -68.5639    1.0000 </r>
       <r>  -68.5596    1.0000 </r>
       <r>  -12.3620    1.0000 </r>
       <r>  -11.4117    1.0000 </r>
       <r>  -10.9536    1.0000 </r>
       <r>  -10.6925    1.0000 </r>
       <r>  -10.4731    1.0000 </r>
       <r>  -10.3261    1.0000 </r>
       <r>   -5.7553    1.0000 </r>
       <r>   -4.7244    1.0000 </r>
       <r>   -2.5225    1.0000 </r>
       <r>   -2.1889    1.0000 </r>
       <r>   -1.9523    1.0000 </r>
       <r>   -1.5320    1.0000 </r>
       <r>   -1.3009    1.0000 </r>
       <r>   -1.0914    1.0000 </r>
       <r>   -0.8690    1.0000 </r>
       <r>   -0.7596    1.0000 </r>
       <r>   -0.5509    1.0000 </r>
       <r>   -0.4500    1.0000 </r>
       <r>   -0.2898    1.0000 </r>
       <r>   -0.1772    1.0000 </r>
       <r>   -0.1472    1.0000 </r>
       <r>   -0.1058    1.0000 </r>
       <r>   -0.0417    1.0000 </r>
       <r>    0.0245    1.0000 </r>
       <r>    1.2732    1.0000 </r>
       <r>    1.2981    1.0000 </r>
       <r>    1.3520    1.0000 </r>
       <r>    1.4293    1.0000 </r>
       <r>    1.4528    1.0000 </r>
       <r>    1.4805    1.0000 </r>
       <r>    1.5020    1.0000 </r>
       <r>    1.5878    1.0000 </r>
       <r>    1.7194    1.0000 </r>
       <r>    1.9312    1.0000 </r>
       <r>    2.0759    1.0000 </r>
       <r>    2.1458    1.0000 </r>
       <r>    2.2662    1.0000 </r>
       <r>    2.4031    1.0000 </r>
       <r>    2.5695    1.0000 </r>
       <r>    2.5969    1.0000 </r>
       <r>    2.8975    1.0000 </r>
       <r>    3.0126    1.0000 </r>
       <r>    3.3602    1.0000 </r>
       <r>    3.8996    1.0000 </r>
       <r>    6.3646   -0.0000 </r>
       <r>    6.8971   -0.0000 </r>
       <r>    7.5721    0.0000 </r>
       <r>    8.0906    0.0000 </r>
       <r>    8.5512    0.0000 </r>
       <r>    8.7877    0.0000 </r>
       <r>    9.2789    0.0000 </r>
       <r>    9.6293    0.0000 </r>
       <r>    9.9326    0.0000 </r>
       <r>   10.2705    0.0000 </r>
       <r>   10.6545    0.0000 </r>
       <r>   10.9271    0.0000 </r>
       <r>   10.9743    0.0000 </r>
       <r>   11.2812    0.0000 </r>
       <r>   11.5170    0.0000 </r>
       <r>   11.7893    0.0000 </r>
       <r>   12.2448    0.0000 </r>
       <r>   12.5488    0.0000 </r>
       <r>   13.0984    0.0000 </r>
       <r>   13.5173    0.0000 </r>
       <r>   14.2918    0.0000 </r>
       <r>   14.5739    0.0000 </r>
       <r>   15.1289    0.0000 </r>
       <r>   16.2719    0.0000 </r>
      </set>
      <set comment="kpoint 14">
       <r>  -68.6459    1.0000 </r>
       <r>  -68.6419    1.0000 </r>
       <r>  -68.6368    1.0000 </r>
       <r>  -68.6330    1.0000 </r>
       <r>  -68.6131    1.0000 </r>
       <r>  -68.6091    1.0000 </r>
       <r>  -68.5955    1.0000 </r>
       <r>  -68.5925    1.0000 </r>
       <r>  -68.5813    1.0000 </r>
       <r>  -68.5771    1.0000 </r>
       <r>  -68.5640    1.0000 </r>
       <r>  -68.5597    1.0000 </r>
       <r>  -12.5457    1.0000 </r>
       <r>  -11.3372    1.0000 </r>
       <r>  -10.8755    1.0000 </r>
       <r>  -10.6127    1.0000 </r>
       <r>  -10.3907    1.0000 </r>
       <r>  -10.2772    1.0000 </r>
       <r>   -5.8275    1.0000 </r>
       <r>   -4.9774    1.0000 </r>
       <r>   -2.6660    1.0000 </r>
       <r>   -2.4555    1.0000 </r>
       <r>   -2.0379    1.0000 </r>
       <r>   -1.5738    1.0000 </r>
       <r>   -1.1687    1.0000 </r>
       <r>   -0.9851    1.0000 </r>
       <r>   -0.7959    1.0000 </r>
       <r>   -0.6542    1.0000 </r>
       <r>   -0.5148    1.0000 </r>
       <r>   -0.3907    1.0000 </r>
       <r>   -0.2694    1.0000 </r>
       <r>   -0.2562    1.0000 </r>
       <r>   -0.1923    1.0000 </r>
       <r>   -0.1460    1.0000 </r>
       <r>   -0.0425    1.0000 </r>
       <r>    0.0165    1.0000 </r>
       <r>    1.2910    1.0000 </r>
       <r>    1.3107    1.0000 </r>
       <r>    1.3892    1.0000 </r>
       <r>    1.4083    1.0000 </r>
       <r>    1.4352    1.0000 </r>
       <r>    1.4551    1.0000 </r>
       <r>    1.4925    1.0000 </r>
       <r>    1.5660    1.0000 </r>
       <r>    1.6888    1.0000 </r>
       <r>    1.9161    1.0000 </r>
       <r>    1.9860    1.0000 </r>
       <r>    2.1440    1.0000 </r>
       <r>    2.3369    1.0000 </r>
       <r>    2.5636    1.0000 </r>
       <r>    2.6166    1.0000 </r>
       <r>    2.8301    1.0000 </r>
       <r>    2.9728    1.0000 </r>
       <r>    3.2462    1.0000 </r>
       <r>    3.6865    1.0000 </r>
       <r>    3.9451    1.0004 </r>
       <r>    6.1778   -0.0000 </r>
       <r>    6.6355   -0.0000 </r>
       <r>    7.7688    0.0000 </r>
       <r>    7.9686    0.0000 </r>
       <r>    8.2152    0.0000 </r>
       <r>    8.5607    0.0000 </r>
       <r>    9.3690    0.0000 </r>
       <r>    9.5809    0.0000 </r>
       <r>    9.9169    0.0000 </r>
       <r>   10.2472    0.0000 </r>
       <r>   10.5440    0.0000 </r>
       <r>   10.7870    0.0000 </r>
       <r>   10.8402    0.0000 </r>
       <r>   11.0689    0.0000 </r>
       <r>   11.5662    0.0000 </r>
       <r>   12.0254    0.0000 </r>
       <r>   12.5272    0.0000 </r>
       <r>   12.7493    0.0000 </r>
       <r>   12.9583    0.0000 </r>
       <r>   13.3085    0.0000 </r>
       <r>   13.4135    0.0000 </r>
       <r>   13.7399    0.0000 </r>
       <r>   13.8466    0.0000 </r>
       <r>   14.7242    0.0000 </r>
      </set>
      <set comment="kpoint 15">
       <r>  -68.6459    1.0000 </r>
       <r>  -68.6419    1.0000 </r>
       <r>  -68.6368    1.0000 </r>
       <r>  -68.6330    1.0000 </r>
       <r>  -68.6132    1.0000 </r>
       <r>  -68.6092    1.0000 </r>
       <r>  -68.5954    1.0000 </r>
       <r>  -68.5925    1.0000 </r>
       <r>  -68.5813    1.0000 </r>
       <r>  -68.5771    1.0000 </r>
       <r>  -68.5639    1.0000 </r>
       <r>  -68.5597    1.0000 </r>
       <r>  -12.4626    1.0000 </r>
       <r>  -11.4680    1.0000 </r>
       <r>  -10.8691    1.0000 </r>
       <r>  -10.6892    1.0000 </r>
       <r>  -10.3683    1.0000 </r>
       <r>  -10.2396    1.0000 </r>
       <r>   -5.7689    1.0000 </r>
       <r>   -4.8049    1.0000 </r>
       <r>   -2.4459    1.0000 </r>
       <r>   -2.2329    1.0000 </r>
       <r>   -1.8526    1.0000 </r>
       <r>   -1.7185    1.0000 </r>
       <r>   -1.4339    1.0000 </r>
       <r>   -1.1923    1.0000 </r>
       <r>   -0.8926    1.0000 </r>
       <r>   -0.7394    1.0000 </r>
       <r>   -0.6059    1.0000 </r>
       <r>   -0.5227    1.0000 </r>
       <r>   -0.3086    1.0000 </r>
       <r>   -0.2407    1.0000 </r>
       <r>   -0.1722    1.0000 </r>
       <r>   -0.1229    1.0000 </r>
       <r>   -0.0518    1.0000 </r>
       <r>    0.0593    1.0000 </r>
       <r>    1.3027    1.0000 </r>
       <r>    1.3367    1.0000 </r>
       <r>    1.3703    1.0000 </r>
       <r>    1.4307    1.0000 </r>
       <r>    1.4473    1.0000 </r>
       <r>    1.4797    1.0000 </r>
       <r>    1.5215    1.0000 </r>
       <r>    1.5462    1.0000 </r>
       <r>    1.6430    1.0000 </r>
       <r>    1.8731    1.0000 </r>
       <r>    1.9769    1.0000 </r>
       <r>    2.0477    1.0000 </r>
       <r>    2.1950    1.0000 </r>
       <r>    2.4757    1.0000 </r>
       <r>    2.5948    1.0000 </r>
       <r>    2.8415    1.0000 </r>
       <r>    2.9680    1.0000 </r>
       <r>    3.1342    1.0000 </r>
       <r>    3.5666    1.0000 </r>
       <r>    3.7251    1.0000 </r>
       <r>    6.4414   -0.0000 </r>
       <r>    6.9569    0.0000 </r>
       <r>    8.1660    0.0000 </r>
       <r>    8.2503    0.0000 </r>
       <r>    8.8279    0.0000 </r>
       <r>    9.1281    0.0000 </r>
       <r>    9.4682    0.0000 </r>
       <r>    9.7959    0.0000 </r>
       <r>   10.0830    0.0000 </r>
       <r>   10.2931    0.0000 </r>
       <r>   10.7404    0.0000 </r>
       <r>   11.0763    0.0000 </r>
       <r>   11.2907    0.0000 </r>
       <r>   11.4250    0.0000 </r>
       <r>   11.6327    0.0000 </r>
       <r>   11.7223    0.0000 </r>
       <r>   12.0848    0.0000 </r>
       <r>   12.2655    0.0000 </r>
       <r>   12.5435    0.0000 </r>
       <r>   12.6579    0.0000 </r>
       <r>   12.9523    0.0000 </r>
       <r>   13.0573    0.0000 </r>
       <r>   13.6581    0.0000 </r>
       <r>   14.6967    0.0000 </r>
      </set>
      <set comment="kpoint 16">
       <r>  -68.6458    1.0000 </r>
       <r>  -68.6418    1.0000 </r>
       <r>  -68.6367    1.0000 </r>
       <r>  -68.6329    1.0000 </r>
       <r>  -68.6130    1.0000 </r>
       <r>  -68.6090    1.0000 </r>
       <r>  -68.5953    1.0000 </r>
       <r>  -68.5924    1.0000 </r>
       <r>  -68.5812    1.0000 </r>
       <r>  -68.5769    1.0000 </r>
       <r>  -68.5638    1.0000 </r>
       <r>  -68.5596    1.0000 </r>
       <r>  -12.3320    1.0000 </r>
       <r>  -11.4755    1.0000 </r>
       <r>  -10.8709    1.0000 </r>
       <r>  -10.8504    1.0000 </r>
       <r>  -10.4109    1.0000 </r>
       <r>  -10.2755    1.0000 </r>
       <r>   -5.7508    1.0000 </r>
       <r>   -4.6925    1.0000 </r>
       <r>   -2.2421    1.0000 </r>
       <r>   -2.1410    1.0000 </r>
       <r>   -1.9335    1.0000 </r>
       <r>   -1.8467    1.0000 </r>
       <r>   -1.4506    1.0000 </r>
       <r>   -1.3963    1.0000 </r>
       <r>   -1.0416    1.0000 </r>
       <r>   -0.5246    1.0000 </r>
       <r>   -0.4612    1.0000 </r>
       <r>   -0.3512    1.0000 </r>
       <r>   -0.2464    1.0000 </r>
       <r>   -0.2152    1.0000 </r>
       <r>   -0.1591    1.0000 </r>
       <r>   -0.1103    1.0000 </r>
       <r>   -0.0887    1.0000 </r>
       <r>    0.0793    1.0000 </r>
       <r>    1.2623    1.0000 </r>
       <r>    1.3484    1.0000 </r>
       <r>    1.3967    1.0000 </r>
       <r>    1.4359    1.0000 </r>
       <r>    1.4532    1.0000 </r>
       <r>    1.5102    1.0000 </r>
       <r>    1.5362    1.0000 </r>
       <r>    1.5451    1.0000 </r>
       <r>    1.7523    1.0000 </r>
       <r>    1.8186    1.0000 </r>
       <r>    2.0394    1.0000 </r>
       <r>    2.1337    1.0000 </r>
       <r>    2.2867    1.0000 </r>
       <r>    2.3089    1.0000 </r>
       <r>    2.5233    1.0000 </r>
       <r>    2.7681    1.0000 </r>
       <r>    2.9025    1.0000 </r>
       <r>    3.2662    1.0000 </r>
       <r>    3.4951    1.0000 </r>
       <r>    3.8013    1.0000 </r>
       <r>    6.1828   -0.0000 </r>
       <r>    6.8413   -0.0000 </r>
       <r>    7.8272    0.0000 </r>
       <r>    8.0420    0.0000 </r>
       <r>    8.1874    0.0000 </r>
       <r>    8.7202    0.0000 </r>
       <r>    9.1579    0.0000 </r>
       <r>    9.3047    0.0000 </r>
       <r>   10.2190    0.0000 </r>
       <r>   10.4399    0.0000 </r>
       <r>   10.5925    0.0000 </r>
       <r>   11.0062    0.0000 </r>
       <r>   11.2425    0.0000 </r>
       <r>   11.4844    0.0000 </r>
       <r>   11.8106    0.0000 </r>
       <r>   12.1730    0.0000 </r>
       <r>   12.2075    0.0000 </r>
       <r>   12.5784    0.0000 </r>
       <r>   12.6922    0.0000 </r>
       <r>   13.1107    0.0000 </r>
       <r>   13.4145    0.0000 </r>
       <r>   13.8797    0.0000 </r>
       <r>   14.0059    0.0000 </r>
       <r>   14.5241    0.0000 </r>
      </set>
      <set comment="kpoint 17">
       <r>  -68.6457    1.0000 </r>
       <r>  -68.6416    1.0000 </r>
       <r>  -68.6368    1.0000 </r>
       <r>  -68.6330    1.0000 </r>
       <r>  -68.6130    1.0000 </r>
       <r>  -68.6090    1.0000 </r>
       <r>  -68.5954    1.0000 </r>
       <r>  -68.5925    1.0000 </r>
       <r>  -68.5812    1.0000 </r>
       <r>  -68.5770    1.0000 </r>
       <r>  -68.5638    1.0000 </r>
       <r>  -68.5596    1.0000 </r>
       <r>  -12.3799    1.0000 </r>
       <r>  -11.4692    1.0000 </r>
       <r>  -10.9397    1.0000 </r>
       <r>  -10.6617    1.0000 </r>
       <r>  -10.4086    1.0000 </r>
       <r>  -10.3013    1.0000 </r>
       <r>   -5.8037    1.0000 </r>
       <r>   -4.8397    1.0000 </r>
       <r>   -2.5274    1.0000 </r>
       <r>   -2.2463    1.0000 </r>
       <r>   -1.8713    1.0000 </r>
       <r>   -1.6421    1.0000 </r>
       <r>   -1.5026    1.0000 </r>
       <r>   -1.3038    1.0000 </r>
       <r>   -0.9013    1.0000 </r>
       <r>   -0.5371    1.0000 </r>
       <r>   -0.3784    1.0000 </r>
       <r>   -0.3486    1.0000 </r>
       <r>   -0.2251    1.0000 </r>
       <r>   -0.1791    1.0000 </r>
       <r>   -0.1601    1.0000 </r>
       <r>   -0.0786    1.0000 </r>
       <r>   -0.0229    1.0000 </r>
       <r>    0.0826    1.0000 </r>
       <r>    1.1901    1.0000 </r>
       <r>    1.3648    1.0000 </r>
       <r>    1.3982    1.0000 </r>
       <r>    1.4422    1.0000 </r>
       <r>    1.4629    1.0000 </r>
       <r>    1.5064    1.0000 </r>
       <r>    1.5199    1.0000 </r>
       <r>    1.5853    1.0000 </r>
       <r>    1.7407    1.0000 </r>
       <r>    1.8186    1.0000 </r>
       <r>    2.0381    1.0000 </r>
       <r>    2.2340    1.0000 </r>
       <r>    2.2673    1.0000 </r>
       <r>    2.3622    1.0000 </r>
       <r>    2.4871    1.0000 </r>
       <r>    2.6725    1.0000 </r>
       <r>    3.0507    1.0000 </r>
       <r>    3.4095    1.0000 </r>
       <r>    3.7308    1.0000 </r>
       <r>    3.8691    1.0000 </r>
       <r>    5.9299   -0.0000 </r>
       <r>    6.6106   -0.0000 </r>
       <r>    7.3532    0.0000 </r>
       <r>    7.9463    0.0000 </r>
       <r>    8.0636    0.0000 </r>
       <r>    8.7183    0.0000 </r>
       <r>    8.9034    0.0000 </r>
       <r>    9.1394    0.0000 </r>
       <r>    9.8431    0.0000 </r>
       <r>   10.3276    0.0000 </r>
       <r>   10.5585    0.0000 </r>
       <r>   10.9276    0.0000 </r>
       <r>   11.2218    0.0000 </r>
       <r>   11.4156    0.0000 </r>
       <r>   11.7540    0.0000 </r>
       <r>   12.0031    0.0000 </r>
       <r>   12.4992    0.0000 </r>
       <r>   12.8336    0.0000 </r>
       <r>   13.2049    0.0000 </r>
       <r>   14.1828    0.0000 </r>
       <r>   14.7154    0.0000 </r>
       <r>   15.0930    0.0000 </r>
       <r>   15.9122    0.0000 </r>
       <r>   16.5684    0.0000 </r>
      </set>
      <set comment="kpoint 18">
       <r>  -68.6458    1.0000 </r>
       <r>  -68.6419    1.0000 </r>
       <r>  -68.6369    1.0000 </r>
       <r>  -68.6330    1.0000 </r>
       <r>  -68.6131    1.0000 </r>
       <r>  -68.6091    1.0000 </r>
       <r>  -68.5955    1.0000 </r>
       <r>  -68.5926    1.0000 </r>
       <r>  -68.5813    1.0000 </r>
       <r>  -68.5770    1.0000 </r>
       <r>  -68.5639    1.0000 </r>
       <r>  -68.5597    1.0000 </r>
       <r>  -12.5046    1.0000 </r>
       <r>  -11.4232    1.0000 </r>
       <r>  -10.9528    1.0000 </r>
       <r>  -10.5869    1.0000 </r>
       <r>  -10.3630    1.0000 </r>
       <r>  -10.2059    1.0000 </r>
       <r>   -5.8308    1.0000 </r>
       <r>   -4.9436    1.0000 </r>
       <r>   -2.5730    1.0000 </r>
       <r>   -2.3652    1.0000 </r>
       <r>   -1.9193    1.0000 </r>
       <r>   -1.5953    1.0000 </r>
       <r>   -1.4190    1.0000 </r>
       <r>   -1.1157    1.0000 </r>
       <r>   -0.8175    1.0000 </r>
       <r>   -0.6747    1.0000 </r>
       <r>   -0.5349    1.0000 </r>
       <r>   -0.4703    1.0000 </r>
       <r>   -0.2534    1.0000 </r>
       <r>   -0.1927    1.0000 </r>
       <r>   -0.1674    1.0000 </r>
       <r>   -0.1173    1.0000 </r>
       <r>   -0.0371    1.0000 </r>
       <r>    0.0608    1.0000 </r>
       <r>    1.2811    1.0000 </r>
       <r>    1.3248    1.0000 </r>
       <r>    1.3450    1.0000 </r>
       <r>    1.4347    1.0000 </r>
       <r>    1.4510    1.0000 </r>
       <r>    1.4685    1.0000 </r>
       <r>    1.4926    1.0000 </r>
       <r>    1.5582    1.0000 </r>
       <r>    1.7280    1.0000 </r>
       <r>    1.8424    1.0000 </r>
       <r>    1.9711    1.0000 </r>
       <r>    2.0978    1.0000 </r>
       <r>    2.3358    1.0000 </r>
       <r>    2.4510    1.0000 </r>
       <r>    2.5426    1.0000 </r>
       <r>    2.8498    1.0000 </r>
       <r>    3.0528    1.0000 </r>
       <r>    3.2613    1.0000 </r>
       <r>    3.6754    1.0000 </r>
       <r>    3.7834    1.0000 </r>
       <r>    6.2602   -0.0000 </r>
       <r>    6.7973   -0.0000 </r>
       <r>    7.8139    0.0000 </r>
       <r>    8.1332    0.0000 </r>
       <r>    8.3400    0.0000 </r>
       <r>    8.9335    0.0000 </r>
       <r>    9.3284    0.0000 </r>
[...]
       <r>   11.7060    0.0000 </r>
       <r>   11.8956    0.0000 </r>
       <r>   12.3054    0.0000 </r>
       <r>   12.6606    0.0000 </r>
       <r>   13.0126    0.0000 </r>
       <r>   13.2271    0.0000 </r>
       <r>   13.6617    0.0000 </r>
       <r>   14.0663    0.0000 </r>
       <r>   14.3911    0.0000 </r>
       <r>   16.5145    0.0000 </r>
      </set>
      <set comment="kpoint 42">
       <r>  -68.6458    1.0000 </r>
       <r>  -68.6418    1.0000 </r>
       <r>  -68.6366    1.0000 </r>
       <r>  -68.6328    1.0000 </r>
       <r>  -68.6129    1.0000 </r>
       <r>  -68.6091    1.0000 </r>
       <r>  -68.5952    1.0000 </r>
       <r>  -68.5923    1.0000 </r>
       <r>  -68.5812    1.0000 </r>
       <r>  -68.5770    1.0000 </r>
       <r>  -68.5639    1.0000 </r>
       <r>  -68.5597    1.0000 </r>
       <r>  -12.1827    1.0000 </r>
       <r>  -11.7105    1.0000 </r>
       <r>  -10.7199    1.0000 </r>
       <r>  -10.6887    1.0000 </r>
       <r>  -10.5864    1.0000 </r>
       <r>  -10.3843    1.0000 </r>
       <r>   -5.4477    1.0000 </r>
       <r>   -5.0733    1.0000 </r>
       <r>   -2.5105    1.0000 </r>
       <r>   -2.3834    1.0000 </r>
       <r>   -1.9612    1.0000 </r>
       <r>   -1.3734    1.0000 </r>
       <r>   -1.3312    1.0000 </r>
       <r>   -1.0535    1.0000 </r>
       <r>   -0.8317    1.0000 </r>
       <r>   -0.7575    1.0000 </r>
       <r>   -0.4270    1.0000 </r>
       <r>   -0.3399    1.0000 </r>
       <r>   -0.2737    1.0000 </r>
       <r>   -0.2094    1.0000 </r>
       <r>   -0.1401    1.0000 </r>
       <r>   -0.1380    1.0000 </r>
       <r>   -0.0119    1.0000 </r>
       <r>    0.0288    1.0000 </r>
       <r>    1.1733    1.0000 </r>
       <r>    1.3712    1.0000 </r>
       <r>    1.3977    1.0000 </r>
       <r>    1.4533    1.0000 </r>
       <r>    1.4549    1.0000 </r>
       <r>    1.4985    1.0000 </r>
       <r>    1.5172    1.0000 </r>
       <r>    1.5507    1.0000 </r>
       <r>    1.7445    1.0000 </r>
       <r>    1.8213    1.0000 </r>
       <r>    1.9769    1.0000 </r>
       <r>    2.2289    1.0000 </r>
       <r>    2.3953    1.0000 </r>
       <r>    2.6092    1.0000 </r>
       <r>    2.6576    1.0000 </r>
       <r>    2.9151    1.0000 </r>
       <r>    3.0685    1.0000 </r>
       <r>    3.1153    1.0000 </r>
       <r>    3.2901    1.0000 </r>
       <r>    3.5860    1.0000 </r>
       <r>    6.2907   -0.0000 </r>
       <r>    6.3779   -0.0000 </r>
       <r>    7.3574    0.0000 </r>
       <r>    7.5245    0.0000 </r>
       <r>    8.3056    0.0000 </r>
       <r>    8.3315    0.0000 </r>
       <r>    9.1042    0.0000 </r>
       <r>    9.3597    0.0000 </r>
       <r>    9.7165    0.0000 </r>
       <r>    9.9469    0.0000 </r>
       <r>   10.5265    0.0000 </r>
       <r>   10.9890    0.0000 </r>
       <r>   11.4256    0.0000 </r>
       <r>   11.5639    0.0000 </r>
       <r>   12.0170    0.0000 </r>
       <r>   12.2831    0.0000 </r>
       <r>   12.4313    0.0000 </r>
       <r>   12.4774    0.0000 </r>
       <r>   13.0347    0.0000 </r>
       <r>   13.1495    0.0000 </r>
       <r>   14.1396    0.0000 </r>
       <r>   14.4387    0.0000 </r>
       <r>   15.1677    0.0000 </r>
       <r>   15.8658    0.0000 </r>
      </set>
     </set>
    </set>
   </array>
  </eigenvalues>
  <separator name="orbital magnetization" >
   <v name="MAGDIPOLOUT">      0.00000000      0.00000000      0.00000000</v>
  </separator>
  <dos>
   <i name="efermi">      4.22008967 </i>
   <total>
    <array>
     <dimension dim="1">gridpoints</dimension>
     <dimension dim="2">spin</dimension>
     <field>energy</field>
     <field>total</field>
     <field>integrated</field>
     <set>
      <set comment="spin 1">
       <r>   -72.8301     0.0000     0.0000 </r>
       <r>   -72.5238     0.0000     0.0000 </r>
       <r>   -72.2174     0.0000     0.0000 </r>
       <r>   -71.9110     0.0000     0.0000 </r>
       <r>   -71.6046     0.0000     0.0000 </r>
       <r>   -71.2982     0.0000     0.0000 </r>
       <r>   -70.9918     0.0000     0.0000 </r>
       <r>   -70.6855     0.0000     0.0000 </r>
       <r>   -70.3791     0.0000     0.0000 </r>
       <r>   -70.0727     0.0000     0.0000 </r>
       <r>   -69.7663     0.0000     0.0000 </r>
       <r>   -69.4599    -0.0000    -0.0000 </r>
       <r>   -69.1536    -0.0000    -0.0000 </r>
       <r>   -68.8472    -0.2122    -0.0650 </r>
       <r>   -68.5408    70.2498    21.4582 </r>
       <r>   -68.2344     8.2966    24.0001 </r>
       <r>   -67.9280    -0.0004    24.0000 </r>
       <r>   -67.6217     0.0000    24.0000 </r>
       <r>   -67.3153     0.0000    24.0000 </r>
       <r>   -67.0089     0.0000    24.0000 </r>
       <r>   -66.7025     0.0000    24.0000 </r>
       <r>   -66.3961     0.0000    24.0000 </r>
       <r>   -66.0898     0.0000    24.0000 </r>
       <r>   -65.7834     0.0000    24.0000 </r>
       <r>   -65.4770     0.0000    24.0000 </r>
       <r>   -65.1706     0.0000    24.0000 </r>
       <r>   -64.8642     0.0000    24.0000 </r>
       <r>   -64.5578     0.0000    24.0000 </r>
       <r>   -64.2515     0.0000    24.0000 </r>
       <r>   -63.9451     0.0000    24.0000 </r>
       <r>   -63.6387     0.0000    24.0000 </r>
       <r>   -63.3323     0.0000    24.0000 </r>
       <r>   -63.0259     0.0000    24.0000 </r>
       <r>   -62.7196     0.0000    24.0000 </r>
       <r>   -62.4132     0.0000    24.0000 </r>
       <r>   -62.1068     0.0000    24.0000 </r>
       <r>   -61.8004     0.0000    24.0000 </r>
       <r>   -61.4940     0.0000    24.0000 </r>
       <r>   -61.1877     0.0000    24.0000 </r>
       <r>   -60.8813     0.0000    24.0000 </r>
       <r>   -60.5749     0.0000    24.0000 </r>
       <r>   -60.2685     0.0000    24.0000 </r>
       <r>   -59.9621     0.0000    24.0000 </r>
       <r>   -59.6557     0.0000    24.0000 </r>
       <r>   -59.3494     0.0000    24.0000 </r>
       <r>   -59.0430     0.0000    24.0000 </r>
       <r>   -58.7366     0.0000    24.0000 </r>
       <r>   -58.4302     0.0000    24.0000 </r>
       <r>   -58.1238     0.0000    24.0000 </r>
       <r>   -57.8175     0.0000    24.0000 </r>
       <r>   -57.5111     0.0000    24.0000 </r>
       <r>   -57.2047     0.0000    24.0000 </r>
       <r>   -56.8983     0.0000    24.0000 </r>
       <r>   -56.5919     0.0000    24.0000 </r>
       <r>   -56.2856     0.0000    24.0000 </r>
       <r>   -55.9792     0.0000    24.0000 </r>
       <r>   -55.6728     0.0000    24.0000 </r>
       <r>   -55.3664     0.0000    24.0000 </r>
       <r>   -55.0600     0.0000    24.0000 </r>
       <r>   -54.7537     0.0000    24.0000 </r>
       <r>   -54.4473     0.0000    24.0000 </r>
       <r>   -54.1409     0.0000    24.0000 </r>
       <r>   -53.8345     0.0000    24.0000 </r>
       <r>   -53.5281     0.0000    24.0000 </r>
       <r>   -53.2217     0.0000    24.0000 </r>
       <r>   -52.9154     0.0000    24.0000 </r>
       <r>   -52.6090     0.0000    24.0000 </r>
       <r>   -52.3026     0.0000    24.0000 </r>
       <r>   -51.9962     0.0000    24.0000 </r>
       <r>   -51.6898     0.0000    24.0000 </r>
       <r>   -51.3835     0.0000    24.0000 </r>
       <r>   -51.0771     0.0000    24.0000 </r>
       <r>   -50.7707     0.0000    24.0000 </r>
       <r>   -50.4643     0.0000    24.0000 </r>
       <r>   -50.1579     0.0000    24.0000 </r>
       <r>   -49.8516     0.0000    24.0000 </r>
       <r>   -49.5452     0.0000    24.0000 </r>
       <r>   -49.2388     0.0000    24.0000 </r>
       <r>   -48.9324     0.0000    24.0000 </r>
       <r>   -48.6260     0.0000    24.0000 </r>
       <r>   -48.3197     0.0000    24.0000 </r>
       <r>   -48.0133     0.0000    24.0000 </r>
       <r>   -47.7069     0.0000    24.0000 </r>
       <r>   -47.4005     0.0000    24.0000 </r>
       <r>   -47.0941     0.0000    24.0000 </r>
       <r>   -46.7877     0.0000    24.0000 </r>
       <r>   -46.4814     0.0000    24.0000 </r>
       <r>   -46.1750     0.0000    24.0000 </r>
       <r>   -45.8686     0.0000    24.0000 </r>
       <r>   -45.5622     0.0000    24.0000 </r>
       <r>   -45.2558     0.0000    24.0000 </r>
       <r>   -44.9495     0.0000    24.0000 </r>
       <r>   -44.6431     0.0000    24.0000 </r>
       <r>   -44.3367     0.0000    24.0000 </r>
       <r>   -44.0303     0.0000    24.0000 </r>
       <r>   -43.7239     0.0000    24.0000 </r>
       <r>   -43.4176     0.0000    24.0000 </r>
       <r>   -43.1112     0.0000    24.0000 </r>
       <r>   -42.8048     0.0000    24.0000 </r>
       <r>   -42.4984     0.0000    24.0000 </r>
       <r>   -42.1920     0.0000    24.0000 </r>
       <r>   -41.8856     0.0000    24.0000 </r>
       <r>   -41.5793     0.0000    24.0000 </r>
       <r>   -41.2729     0.0000    24.0000 </r>
       <r>   -40.9665     0.0000    24.0000 </r>
       <r>   -40.6601     0.0000    24.0000 </r>
       <r>   -40.3537     0.0000    24.0000 </r>
       <r>   -40.0474     0.0000    24.0000 </r>
       <r>   -39.7410     0.0000    24.0000 </r>
       <r>   -39.4346     0.0000    24.0000 </r>
       <r>   -39.1282     0.0000    24.0000 </r>
       <r>   -38.8218     0.0000    24.0000 </r>
       <r>   -38.5155     0.0000    24.0000 </r>
       <r>   -38.2091     0.0000    24.0000 </r>
       <r>   -37.9027     0.0000    24.0000 </r>
       <r>   -37.5963     0.0000    24.0000 </r>
       <r>   -37.2899     0.0000    24.0000 </r>
       <r>   -36.9836     0.0000    24.0000 </r>
       <r>   -36.6772     0.0000    24.0000 </r>
       <r>   -36.3708     0.0000    24.0000 </r>
       <r>   -36.0644     0.0000    24.0000 </r>
       <r>   -35.7580     0.0000    24.0000 </r>
       <r>   -35.4516     0.0000    24.0000 </r>
       <r>   -35.1453     0.0000    24.0000 </r>
       <r>   -34.8389     0.0000    24.0000 </r>
       <r>   -34.5325     0.0000    24.0000 </r>
       <r>   -34.2261     0.0000    24.0000 </r>
       <r>   -33.9197     0.0000    24.0000 </r>
       <r>   -33.6134     0.0000    24.0000 </r>
       <r>   -33.3070     0.0000    24.0000 </r>
       <r>   -33.0006     0.0000    24.0000 </r>
       <r>   -32.6942     0.0000    24.0000 </r>
       <r>   -32.3878     0.0000    24.0000 </r>
       <r>   -32.0815     0.0000    24.0000 </r>
       <r>   -31.7751     0.0000    24.0000 </r>
       <r>   -31.4687     0.0000    24.0000 </r>
       <r>   -31.1623     0.0000    24.0000 </r>
       <r>   -30.8559     0.0000    24.0000 </r>
       <r>   -30.5496     0.0000    24.0000 </r>
       <r>   -30.2432     0.0000    24.0000 </r>
       <r>   -29.9368     0.0000    24.0000 </r>
       <r>   -29.6304     0.0000    24.0000 </r>
       <r>   -29.3240     0.0000    24.0000 </r>
       <r>   -29.0176     0.0000    24.0000 </r>
       <r>   -28.7113     0.0000    24.0000 </r>
       <r>   -28.4049     0.0000    24.0000 </r>
       <r>   -28.0985     0.0000    24.0000 </r>
       <r>   -27.7921     0.0000    24.0000 </r>
       <r>   -27.4857     0.0000    24.0000 </r>
       <r>   -27.1794     0.0000    24.0000 </r>
       <r>   -26.8730     0.0000    24.0000 </r>
       <r>   -26.5666     0.0000    24.0000 </r>
       <r>   -26.2602     0.0000    24.0000 </r>
       <r>   -25.9538     0.0000    24.0000 </r>
       <r>   -25.6475     0.0000    24.0000 </r>
       <r>   -25.3411     0.0000    24.0000 </r>
       <r>   -25.0347     0.0000    24.0000 </r>
       <r>   -24.7283     0.0000    24.0000 </r>
       <r>   -24.4219     0.0000    24.0000 </r>
       <r>   -24.1155     0.0000    24.0000 </r>
       <r>   -23.8092     0.0000    24.0000 </r>
       <r>   -23.5028     0.0000    24.0000 </r>
       <r>   -23.1964     0.0000    24.0000 </r>
       <r>   -22.8900     0.0000    24.0000 </r>
       <r>   -22.5836     0.0000    24.0000 </r>
       <r>   -22.2773     0.0000    24.0000 </r>
       <r>   -21.9709     0.0000    24.0000 </r>
       <r>   -21.6645     0.0000    24.0000 </r>
       <r>   -21.3581     0.0000    24.0000 </r>
       <r>   -21.0517     0.0000    24.0000 </r>
       <r>   -20.7454     0.0000    24.0000 </r>
       <r>   -20.4390     0.0000    24.0000 </r>
       <r>   -20.1326     0.0000    24.0000 </r>
       <r>   -19.8262     0.0000    24.0000 </r>
       <r>   -19.5198     0.0000    24.0000 </r>
       <r>   -19.2135     0.0000    24.0000 </r>
       <r>   -18.9071     0.0000    24.0000 </r>
       <r>   -18.6007     0.0000    24.0000 </r>
       <r>   -18.2943     0.0000    24.0000 </r>
       <r>   -17.9879     0.0000    24.0000 </r>
       <r>   -17.6815     0.0000    24.0000 </r>
       <r>   -17.3752     0.0000    24.0000 </r>
       <r>   -17.0688     0.0000    24.0000 </r>
       <r>   -16.7624     0.0000    24.0000 </r>
       <r>   -16.4560     0.0000    24.0000 </r>
       <r>   -16.1496     0.0000    24.0000 </r>
       <r>   -15.8433     0.0000    24.0000 </r>
       <r>   -15.5369     0.0000    24.0000 </r>
       <r>   -15.2305     0.0000    24.0000 </r>
       <r>   -14.9241     0.0000    24.0000 </r>
       <r>   -14.6177     0.0000    24.0000 </r>
       <r>   -14.3114     0.0000    24.0000 </r>
       <r>   -14.0050     0.0000    24.0000 </r>
       <r>   -13.6986    -0.0000    24.0000 </r>
       <r>   -13.3922    -0.0000    24.0000 </r>
       <r>   -13.0858    -0.0000    24.0000 </r>
       <r>   -12.7795    -0.0037    23.9989 </r>
       <r>   -12.4731     1.6049    24.4906 </r>
       <r>   -12.1667     3.5607    25.5815 </r>
       <r>   -11.8603     1.8831    26.1585 </r>
       <r>   -11.5539     2.1142    26.8062 </r>
       <r>   -11.2475     3.1814    27.7810 </r>
       <r>   -10.9412     2.6377    28.5891 </r>
       <r>   -10.6348     9.2961    31.4373 </r>
       <r>   -10.3284     9.0145    34.1991 </r>
       <r>   -10.0220     5.8983    36.0063 </r>
       <r>    -9.7156    -0.0205    36.0000 </r>
       <r>    -9.4093    -0.0000    36.0000 </r>
       <r>    -9.1029     0.0000    36.0000 </r>
       <r>    -8.7965     0.0000    36.0000 </r>
       <r>    -8.4901     0.0000    36.0000 </r>
       <r>    -8.1837     0.0000    36.0000 </r>
       <r>    -7.8774     0.0000    36.0000 </r>
       <r>    -7.5710     0.0000    36.0000 </r>
       <r>    -7.2646     0.0000    36.0000 </r>
       <r>    -6.9582    -0.0000    36.0000 </r>
       <r>    -6.6518    -0.0000    36.0000 </r>
       <r>    -6.3454    -0.0000    36.0000 </r>
       <r>    -6.0391     0.0668    36.0205 </r>
       <r>    -5.7327     3.5181    37.0984 </r>
       <r>    -5.4263     2.0514    37.7269 </r>
       <r>    -5.1199     1.8556    38.2954 </r>
       <r>    -4.8135     3.3042    39.3077 </r>
       <r>    -4.5072     2.1949    39.9802 </r>
       <r>    -4.2008     0.0646    40.0000 </r>
       <r>    -3.8944    -0.0000    40.0000 </r>
       <r>    -3.5880    -0.0000    40.0000 </r>
       <r>    -3.2816    -0.0000    40.0000 </r>
       <r>    -2.9753    -0.0004    39.9999 </r>
       <r>    -2.6689     0.3963    40.1213 </r>
       <r>    -2.3625     6.1735    42.0127 </r>
       <r>    -2.0561     6.6719    44.0568 </r>
       <r>    -1.7497     7.3461    46.3076 </r>
       <r>    -1.4434     6.3932    48.2663 </r>
       <r>    -1.1370     8.7086    50.9344 </r>
       <r>    -0.8306     9.0879    53.7188 </r>
       <r>    -0.5242    11.4210    57.2180 </r>
       <r>    -0.2178    18.0769    62.7564 </r>
       <r>     0.0886    28.9990    71.6412 </r>
       <r>     0.3949     1.1719    72.0002 </r>
       <r>     0.7013    -0.0007    72.0000 </r>
       <r>     1.0077    -0.0200    71.9939 </r>
       <r>     1.3141     7.3692    74.2516 </r>
       <r>     1.6205    44.8875    88.0043 </r>
       <r>     1.9268    13.7940    92.2305 </r>
       <r>     2.2332    13.1559    96.2612 </r>
       <r>     2.5396    12.8384   100.1947 </r>
       <r>     2.8460    11.1846   103.6214 </r>
       <r>     3.1524     9.0725   106.4011 </r>
       <r>     3.4587     7.8954   108.8201 </r>
       <r>     3.7651     6.9541   110.9507 </r>
       <r>     4.0715     3.1733   111.9229 </r>
       <r>     4.3779     0.2521   112.0002 </r>
       <r>     4.6843    -0.0006   112.0000 </r>
       <r>     4.9907    -0.0000   112.0000 </r>
       <r>     5.2970    -0.0001   112.0000 </r>
       <r>     5.6034     0.0772   112.0236 </r>
       <r>     5.9098     0.1747   112.0771 </r>
       <r>     6.2162     2.6427   112.8868 </r>
       <r>     6.5226     4.3691   114.2254 </r>
       <r>     6.8289     3.4388   115.2790 </r>
       <r>     7.1353     2.4198   116.0204 </r>
       <r>     7.4417     1.4369   116.4606 </r>
       <r>     7.7481     3.1796   117.4348 </r>
       <r>     8.0545     5.5860   119.1462 </r>
       <r>     8.3608     5.5987   120.8616 </r>
       <r>     8.6672     4.5480   122.2550 </r>
       <r>     8.9736     4.4218   123.6097 </r>
       <r>     9.2800     5.6700   125.3469 </r>
       <r>     9.5864     5.6533   127.0790 </r>
       <r>     9.8927     4.7554   128.5359 </r>
       <r>    10.1991     4.5261   129.9227 </r>
       <r>    10.5055     6.4685   131.9045 </r>
       <r>    10.8119     8.2727   134.4391 </r>
       <r>    11.1183     8.2584   136.9693 </r>
       <r>    11.4247     7.9555   139.4067 </r>
       <r>    11.7310     7.8993   141.8269 </r>
       <r>    12.0374     6.5904   143.8460 </r>
       <r>    12.3438     5.8932   145.6516 </r>
       <r>    12.6502     6.5996   147.6736 </r>
       <r>    12.9566     5.7979   149.4500 </r>
       <r>    13.2629     6.2100   151.3526 </r>
       <r>    13.5693     5.3674   152.9971 </r>
       <r>    13.8757     4.0362   154.2337 </r>
       <r>    14.1821     3.1924   155.2118 </r>
       <r>    14.4885     4.5673   156.6111 </r>
       <r>    14.7948     3.4857   157.6790 </r>
       <r>    15.1012     1.4819   158.1331 </r>
       <r>    15.4076     1.5388   158.6045 </r>
       <r>    15.7140     1.2119   158.9758 </r>
       <r>    16.0204     1.6813   159.4909 </r>
       <r>    16.3267     0.3297   159.5919 </r>
       <r>    16.6331     0.6870   159.8024 </r>
       <r>    16.9395     0.5233   159.9628 </r>
       <r>    17.2459     0.1216   160.0000 </r>
       <r>    17.5523    -0.0000   160.0000 </r>
       <r>    17.8587     0.0000   160.0000 </r>
       <r>    18.1650     0.0000   160.0000 </r>
       <r>    18.4714     0.0000   160.0000 </r>
       <r>    18.7778     0.0000   160.0000 </r>
       <r>    19.0842     0.0000   160.0000 </r>
      </set>
     </set>
    </array>
   </total>
  </dos>
 </calculation>
 <structure name="finalpos" >
  <crystal>
   <varray name="basis" >
    <v>       3.22479600      -5.64383000       0.03157200 </v>
    <v>       3.22479600       5.64383000       0.03157200 </v>
    <v>      -2.10194600       0.00000000       6.07553700 </v>
   </varray>
   <i name="volume">    221.90106089 </i>
   <varray name="rec_basis" >
    <v>       0.15452516      -0.08859232       0.05346088 </v>
    <v>       0.15452516       0.08859232       0.05346088 </v>
    <v>      -0.00160600       0.00000000       0.16403888 </v>
   </varray>
  </crystal>
  <varray name="positions" >
   <v>       0.61844300       0.12117100       0.11953300 </v>
   <v>       0.12117100       0.61844300       0.61953300 </v>
   <v>       0.96295700       0.79032200       0.11881300 </v>
   <v>       0.79032200       0.96295700       0.61881300 </v>
   <v>       0.43819360       0.26728100       0.59904700 </v>
   <v>       0.26728100       0.43973200       0.09904700 </v>
   <v>       0.07949800       0.91167500       0.49736300 </v>
   <v>       0.57140300       0.41236400       0.98018400 </v>
   <v>       0.73711100       0.25006200       0.49504900 </v>
   <v>       0.41236400       0.57140300       0.48018400 </v>
   <v>       0.91167500       0.07949800       0.99736300 </v>
   <v>       0.25006200       0.73711100       0.99504900 </v>
  </varray>
 </structure>
</modeling>
