       N       E                     dE             d eps       ncg     rms          ort
SDA:   1     0.755368118446E+02    0.75537E+02   -0.21318E+03  3360   0.533E+03 0.000E+00
DMP:   2    -0.838151451747E+01   -0.83918E+02   -0.14687E+03  3360   0.395E+03-0.737E+02
DMP:   3    -0.151750690046E+02   -0.67936E+01   -0.20402E+03  3360   0.695E+03-0.483E+03
DMP:   4    -0.226500228995E+02   -0.74750E+01   -0.10741E+03  3360   0.391E+03-0.319E+03
DMP:   5    -0.607947217885E+02   -0.38145E+02   -0.15088E+02  3360   0.708E+02-0.865E+02
DMP:   6    -0.659007948972E+02   -0.51061E+01   -0.82484E+01  3360   0.249E+02-0.112E+02
DMP:   7    -0.674516412239E+02   -0.15508E+01   -0.41770E+01  3360   0.149E+02-0.115E+02
DMP:   8    -0.690801028160E+02   -0.16285E+01   -0.77690E+00  3360   0.286E+01-0.240E+01
DMP:   9    -0.693934469874E+02   -0.31334E+00   -0.38975E+00  3360   0.111E+01-0.365E+00
DMP:  10    -0.694979791668E+02   -0.10453E+00   -0.15377E+00  3360   0.553E+00-0.441E+00
DMP:  11    -0.695682348885E+02   -0.70256E-01   -0.36930E-01  3360   0.105E+00-0.344E-01
DMP:  12    -0.695805513782E+02   -0.12316E-01   -0.23064E-01  3360   0.696E-01-0.312E-01
DMP:  13    -0.695903036765E+02   -0.97523E-02   -0.51468E-02  3360   0.162E-01-0.884E-02
DMP:  14    -0.695927775012E+02   -0.24738E-02   -0.38176E-02  3360   0.973E-02-0.490E-03
DMP:  15    -0.695942991659E+02   -0.15217E-02   -0.10487E-02  3360   0.336E-02-0.194E-02
DMP:  16    -0.695948780309E+02   -0.57886E-03   -0.41367E-03  3360   0.923E-03 0.292E-03
DMP:  17    -0.695950532429E+02   -0.17521E-03   -0.21111E-03  3360   0.586E-03-0.151E-03
DMP:  18    -0.695951719026E+02   -0.11866E-03   -0.56914E-04  3360   0.120E-03 0.573E-04
DMP:  19    -0.695952012792E+02   -0.29377E-04   -0.35820E-04  3360   0.894E-04 0.399E-06
DMP:  20    -0.695952213993E+02   -0.20120E-04   -0.11781E-04  3360   0.245E-04 0.130E-04
DMP:  21    -0.695952289557E+02   -0.75564E-05   -0.71565E-05  3360   0.143E-04 0.948E-05
   1 F= -.69595229E+02 E0= -.69595428E+02  d E =0.597037E-03
