   12   12    1    1
  0.1849176E+02  0.6500240E-09  0.6500240E-09  0.6428867E-09  0.5000000E-15
  1.000000000000000E-004
  CAR 
 CGS                                     
  112   42   80
 
  0.0000000E+00  0.0000000E+00  0.0000000E+00  0.1250000E-01
   1      -68.656069
   2      -68.645688
   3      -68.632830
   4      -68.628521
   5      -68.622679
   6      -68.613708
   7      -68.606596
   8      -68.596232
   9      -68.576972
  10      -68.572993
  11      -68.560047
  12      -68.557069
  13      -12.718112
  14      -11.127673
  15      -10.919661
  16      -10.601182
  17      -10.251211
  18      -10.235004
  19       -5.979640
  20       -4.984612
  21       -2.760055
  22       -2.211879
  23       -2.071133
  24       -1.919851
  25       -1.574578
  26       -0.986334
  27       -0.954787
  28       -0.685779
  29       -0.399885
  30       -0.279277
  31       -0.262418
  32       -0.235898
  33       -0.191746
  34       -0.155416
  35       -0.040771
  36        0.030686
  37        1.348128
  38        1.361196
  39        1.412828
  40        1.457856
  41        1.471459
  42        1.473476
  43        1.518048
  44        1.532523
  45        1.573004
  46        1.711795
  47        1.891620
  48        1.926188
  49        2.058669
  50        2.651085
  51        2.728413
  52        3.091606
  53        3.217938
  54        4.006859
  55        4.037060
  56        4.174316
  57        5.536062
  58        6.355848
  59        7.632925
  60        7.989631
  61        8.609073
  62        8.791730
  63        9.575288
  64        9.741434
  65        9.804961
  66       10.417771
  67       10.588023
  68       10.696385
  69       10.716205
  70       11.278651
  71       11.719341
  72       12.393915
  73       12.443630
  74       12.722177
  75       13.322728
  76       13.391745
  77       13.831178
  78       13.886615
  79       14.145835
  80       14.181594
 
  0.2500000E+00  0.7372575E-17  0.1387779E-16  0.2500000E-01
   1      -68.656044
   2      -68.645642
   3      -68.632790
   4      -68.628499
   5      -68.622576
   6      -68.613601
   7      -68.606596
   8      -68.596259
   9      -68.576918
  10      -68.572923
  11      -68.560011
  12      -68.557037
  13      -12.592937
  14      -11.128113
  15      -10.981661
  16      -10.675279
  17      -10.366779
  18      -10.277173
  19       -5.928131
  20       -4.775973
  21       -2.646736
  22       -2.253763
  23       -2.087067
  24       -1.685157
  25       -1.343899
  26       -1.000292
  27       -0.772813
  28       -0.620742
  29       -0.552511
  30       -0.437591
  31       -0.359928
  32       -0.246082
  33       -0.194645
  34       -0.171569
  35       -0.047197
  36        0.037367
  37        1.277469
  38        1.336077
  39        1.354479
  40        1.390500
  41        1.424425
  42        1.470878
  43        1.497388
  44        1.530896
  45        1.722947
  46        1.859141
  47        2.056970
  48        2.093660
  49        2.231366
  50        2.414287
  51        2.555717
  52        2.825543
  53        2.947107
  54        3.241631
  55        3.662453
  56        4.041416
  57        6.168644
  58        6.901597
  59        8.142425
  60        8.266977
  61        8.589270
  62        9.011601
  63        9.247246
  64        9.524452
  65        9.868825
  66       10.377198
  67       10.637856
  68       10.814025
  69       10.939299
  70       11.186492
  71       11.651697
  72       11.770327
  73       12.117289
  74       12.443984
  75       12.619708
  76       13.009386
  77       13.505145
  78       13.876422
  79       14.214835
  80       14.712923
 
  0.5000000E+00  0.1474515E-16  0.2775558E-16  0.1250000E-01
   1      -68.655877
   2      -68.645527
   3      -68.632721
   4      -68.628410
   5      -68.622561
   6      -68.613549
   7      -68.606527
   8      -68.596172
   9      -68.576909
  10      -68.572860
  11      -68.559842
  12      -68.556926
  13      -12.433177
  14      -11.251712
  15      -10.954207
  16      -10.762516
  17      -10.428588
  18      -10.357526
  19       -5.866017
  20       -4.553206
  21       -2.495923
  22       -2.246719
  23       -1.943831
  24       -1.460800
  25       -1.224664
  26       -1.100302
  27       -0.899782
  28       -0.863357
  29       -0.601836
  30       -0.536981
  31       -0.276902
  32       -0.204521
  33       -0.202660
  34       -0.149474
  35       -0.029167
  36        0.077726
  37        1.252750
  38        1.327746
  39        1.345339
  40        1.393697
  41        1.471097
  42        1.479267
  43        1.498516
  44        1.553399
  45        1.751647
  46        1.794126
  47        1.969044
  48        2.146070
  49        2.320182
  50        2.362018
  51        2.552455
  52        2.669229
  53        2.933660
  54        3.080515
  55        3.249210
  56        3.862088
  57        6.383817
  58        7.092558
  59        7.982585
  60        8.206715
  61        8.520730
  62        8.819322
  63        9.315923
  64        9.887556
  65       10.014860
  66       10.526783
  67       10.683015
  68       10.796196
  69       11.137771
  70       11.410562
  71       11.610103
  72       11.774161
  73       11.941838
  74       12.502457
  75       12.784771
  76       12.998542
  77       13.399096
  78       13.540069
  79       13.941712
  80       14.270674
 
  0.7372575E-17  0.2500000E+00  0.1387779E-16  0.2500000E-01
   1      -68.656026
   2      -68.645664
   3      -68.632805
   4      -68.628484
   5      -68.622572
   6      -68.613605
   7      -68.606618
   8      -68.596232
   9      -68.576903
  10      -68.572940
  11      -68.560012
  12      -68.557033
  13      -12.592906
  14      -11.126222
  15      -10.984269
  16      -10.674611
  17      -10.366348
  18      -10.277723
  19       -5.928152
  20       -4.775266
  21       -2.644988
  22       -2.252927
  23       -2.087102
  24       -1.690371
  25       -1.342607
  26       -1.003067
  27       -0.768006
  28       -0.622964
  29       -0.554825
  30       -0.438222
  31       -0.362030
  32       -0.242383
  33       -0.193256
  34       -0.168530
  35       -0.049242
  36        0.036725
  37        1.277827
  38        1.336041
  39        1.353567
  40        1.390887
  41        1.425403
  42        1.470310
  43        1.497669
  44        1.529559
  45        1.724984
  46        1.857379
  47        2.057066
  48        2.095602
  49        2.230537
  50        2.413535
  51        2.554525
  52        2.825805
  53        2.949181
  54        3.242221
  55        3.662280
  56        4.041049
  57        6.168773
  58        6.901098
  59        8.132909
  60        8.271423
  61        8.595403
  62        9.008709
  63        9.250425
  64        9.527620
  65        9.865148
  66       10.379102
  67       10.633020
  68       10.811927
  69       10.940634
  70       11.191800
  71       11.654501
  72       11.770209
  73       12.115131
  74       12.444513
  75       12.619591
  76       13.004314
  77       13.515218
  78       13.899100
  79       14.269381
  80       14.835098
 
  0.2500000E+00  0.2500000E+00  0.0000000E+00  0.2500000E-01
   1      -68.656047
   2      -68.645665
   3      -68.632694
   4      -68.628380
   5      -68.622709
   6      -68.613738
   7      -68.606494
   8      -68.596134
   9      -68.577035
  10      -68.573055
  11      -68.560031
  12      -68.557053
  13      -12.437007
  14      -11.193280
  15      -10.941464
  16      -10.875450
  17      -10.390157
  18      -10.351527
  19       -5.871093
  20       -4.525567
  21       -2.418118
  22       -2.247167
  23       -1.791200
  24       -1.681937
  25       -1.358281
  26       -1.297365
  27       -1.078685
  28       -0.681940
  29       -0.523308
  30       -0.297423
  31       -0.283771
  32       -0.225094
  33       -0.187074
  34       -0.130647
  35       -0.092533
  36        0.076520
  37        1.292148
  38        1.310065
  39        1.414857
  40        1.423965
  41        1.460822
  42        1.481848
  43        1.495058
  44        1.570926
  45        1.672042
  46        1.880787
  47        1.940821
  48        2.135259
  49        2.280190
  50        2.320308
  51        2.558874
  52        2.647938
  53        2.903088
  54        2.942511
  55        3.698664
  56        3.833796
  57        6.168456
  58        6.982706
  59        8.005661
  60        8.327719
  61        8.435205
  62        8.574548
  63        9.139794
  64        9.250080
  65       10.359652
  66       10.497262
  67       10.921738
  68       11.186820
  69       11.325953
  70       11.556280
  71       11.815483
  72       11.965042
  73       12.315677
  74       12.503476
  75       12.709725
  76       12.915174
  77       13.341024
  78       13.444019
  79       14.261095
  80       14.367293
 
  0.5000000E+00  0.2500000E+00 -0.2775558E-16  0.2500000E-01
   1      -68.655826
   2      -68.645468
   3      -68.632763
   4      -68.628420
   5      -68.622494
   6      -68.613512
   7      -68.606565
   8      -68.596184
   9      -68.576834
  10      -68.572841
  11      -68.559867
  12      -68.556923
  13      -12.436838
  14      -11.356902
  15      -10.935502
  16      -10.736470
  17      -10.390099
  18      -10.271306
  19       -5.943135
  20       -4.644230
  21       -2.393030
  22       -2.229709
  23       -2.058139
  24       -1.635274
  25       -1.360978
  26       -1.281607
  27       -1.021788
  28       -0.512714
  29       -0.483688
  30       -0.330830
  31       -0.282855
  32       -0.218191
  33       -0.153187
  34       -0.135849
  35       -0.011658
  36        0.110995
  37        1.244411
  38        1.312872
  39        1.382429
  40        1.435579
  41        1.459430
  42        1.490926
  43        1.496161
  44        1.550614
  45        1.748510
  46        1.826870
  47        1.921294
  48        2.134648
  49        2.220592
  50        2.384433
  51        2.560492
  52        2.788937
  53        2.979624
  54        3.312983
  55        3.602518
  56        3.749772
  57        6.086857
  58        6.934868
  59        7.613870
  60        8.070673
  61        8.407877
  62        8.616353
  63        8.979527
  64        9.154058
  65       10.084364
  66       10.337890
  67       10.729749
  68       11.110434
  69       11.465244
  70       11.597589
  71       11.799218
  72       12.087506
  73       12.473191
  74       12.913620
  75       13.042833
  76       13.829972
  77       14.194082
  78       14.654398
  79       15.432374
  80       15.639992
 
 -0.2500000E+00  0.2500000E+00  0.0000000E+00  0.2500000E-01
   1      -68.656037
   2      -68.645654
   3      -68.632771
   4      -68.628464
   5      -68.622508
   6      -68.613536
   7      -68.606590
   8      -68.596229
   9      -68.576860
  10      -68.572879
  11      -68.560013
  12      -68.557036
  13      -12.595497
  14      -11.252763
  15      -10.990231
  16      -10.568909
  17      -10.367690
  18      -10.179633
  19       -6.005372
  20       -4.894846
  21       -2.646817
  22       -2.317095
  23       -1.972301
  24       -1.645406
  25       -1.492682
  26       -1.183033
  27       -0.792719
  28       -0.583030
  29       -0.448775
  30       -0.339130
  31       -0.294359
  32       -0.232774
  33       -0.174053
  34       -0.135208
  35       -0.009627
  36        0.070569
  37        1.257472
  38        1.319371
  39        1.361870
  40        1.423512
  41        1.430801
  42        1.474946
  43        1.503480
  44        1.539915
  45        1.723118
  46        1.812207
  47        1.994600
  48        2.072259
  49        2.417303
  50        2.462093
  51        2.529017
  52        2.872576
  53        3.141668
  54        3.229528
  55        3.783768
  56        4.070063
  57        5.980839
  58        6.690029
  59        7.529919
  60        8.226997
  61        8.613720
  62        8.907704
  63        9.308414
  64        9.429809
  65        9.807877
  66       10.273141
  67       10.551368
  68       10.833382
  69       10.966111
  70       11.382790
  71       11.473024
  72       11.728979
  73       12.098243
  74       12.662788
  75       12.942299
  76       13.097227
  77       13.351071
  78       13.519276
  79       14.480246
  80       14.756748
 
  0.1474515E-16  0.5000000E+00  0.2775558E-16  0.1250000E-01
   1      -68.655902
   2      -68.645492
   3      -68.632725
   4      -68.628403
   5      -68.622523
   6      -68.613593
   7      -68.606534
   8      -68.596167
   9      -68.576849
  10      -68.572930
  11      -68.559900
  12      -68.556864
  13      -12.433097
  14      -11.250841
  15      -10.955366
  16      -10.762551
  17      -10.427069
  18      -10.359101
  19       -5.865980
  20       -4.551449
  21       -2.492759
  22       -2.245179
  23       -1.946812
  24       -1.464169
  25       -1.228474
  26       -1.101868
  27       -0.903611
  28       -0.862866
  29       -0.598108
  30       -0.535746
  31       -0.275100
  32       -0.202947
  33       -0.201356
  34       -0.147175
  35       -0.032659
  36        0.076500
  37        1.253310
  38        1.325794
  39        1.345329
  40        1.396637
  41        1.468780
  42        1.478893
  43        1.499072
  44        1.552512
  45        1.752885
  46        1.790979
  47        1.968067
  48        2.147190
  49        2.322951
  50        2.362855
  51        2.553427
  52        2.668494
  53        2.938124
  54        3.079570
  55        3.248671
  56        3.862600
  57        6.383891
  58        7.090597
  59        7.981182
  60        8.198496
  61        8.518213
  62        8.821682
  63        9.323482
  64        9.890508
  65       10.012802
  66       10.518752
  67       10.696006
  68       10.799829
  69       11.137355
  70       11.407671
  71       11.611085
  72       11.775480
  73       11.947132
  74       12.498407
  75       12.829800
  76       13.028434
  77       13.553151
  78       13.684808
  79       14.555750
  80       15.244108
 
  0.2500000E+00  0.5000000E+00 -0.2775558E-16  0.2500000E-01
   1      -68.655846
   2      -68.645450
   3      -68.632724
   4      -68.628412
   5      -68.622484
   6      -68.613554
   7      -68.606563
   8      -68.596202
   9      -68.576797
  10      -68.572881
  11      -68.559900
  12      -68.556884
  13      -12.436793
  14      -11.356666
  15      -10.935852
  16      -10.736328
  17      -10.390613
  18      -10.270997
  19       -5.943120
  20       -4.643611
  21       -2.390742
  22       -2.227970
  23       -2.057936
  24       -1.641693
  25       -1.362176
  26       -1.280671
  27       -1.022128
  28       -0.513799
  29       -0.484871
  30       -0.328363
  31       -0.286233
  32       -0.213547
  33       -0.150724
  34       -0.135759
  35       -0.014511
  36        0.111166
  37        1.244085
  38        1.315051
  39        1.378915
  40        1.436466
  41        1.460307
  42        1.490755
  43        1.497076
  44        1.549789
  45        1.748062
  46        1.827848
  47        1.921176
  48        2.133968
  49        2.220430
  50        2.385800
  51        2.560906
  52        2.791022
  53        2.977582
  54        3.313167
  55        3.602386
  56        3.749618
  57        6.087166
  58        6.934448
  59        7.611462
  60        8.069527
  61        8.411362
  62        8.615694
  63        8.980078
  64        9.152604
  65       10.089519
  66       10.338727
  67       10.726914
  68       11.116449
  69       11.457549
  70       11.575942
  71       11.785824
  72       12.035491
  73       12.515568
  74       12.671746
  75       12.911827
  76       13.220187
  77       14.233240
  78       14.776020
  79       15.246659
  80       15.906641
 
  0.5000000E+00  0.5000000E+00  0.0000000E+00  0.1250000E-01
   1      -68.655670
   2      -68.645279
   3      -68.632558
   4      -68.628255
   5      -68.622371
   6      -68.613416
   7      -68.606367
   8      -68.595999
   9      -68.576740
  10      -68.572755
  11      -68.559677
  12      -68.556707
  13      -12.428033
  14      -11.504607
  15      -10.910453
  16      -10.616931
  17      -10.399397
  18      -10.198753
  19       -6.021842
  20       -4.809805
  21       -2.309547
  22       -2.269127
  23       -2.096630
  24       -1.701172
  25       -1.246941
  26       -1.107351
  27       -0.842019
  28       -0.780209
  29       -0.726739
  30       -0.243126
  31       -0.204026
  32       -0.183774
  33       -0.153282
  34       -0.043633
  35       -0.001440
  36        0.184206
  37        1.266477
  38        1.315670
  39        1.370164
  40        1.413320
  41        1.435008
  42        1.490234
  43        1.507478
  44        1.547161
  45        1.785171
  46        1.846419
  47        1.994792
  48        2.150654
  49        2.251375
  50        2.335520
  51        2.558524
  52        2.762236
  53        2.775721
  54        3.371447
  55        3.766149
  56        4.006347
  57        5.855011
  58        6.771274
  59        7.072156
  60        8.413666
  61        8.561664
  62        8.773138
  63        9.141929
  64        9.242033
  65        9.955826
  66       10.296834
  67       10.726827
  68       10.826174
  69       10.869533
  70       11.276814
  71       11.757234
  72       11.907306
  73       11.972079
  74       12.369493
  75       12.539401
  76       13.451380
  77       14.282930
  78       14.674949
  79       16.745117
  80       16.745445
 
 -0.2168404E-18 -0.2168404E-18  0.2000000E+00  0.2500000E-01
   1      -68.656072
   2      -68.645689
   3      -68.632799
   4      -68.628493
   5      -68.622603
   6      -68.613631
   7      -68.606615
   8      -68.596253
   9      -68.576945
  10      -68.572965
  11      -68.560049
  12      -68.557071
  13      -12.614985
  14      -11.423862
  15      -10.780018
  16      -10.606680
  17      -10.250007
  18      -10.237012
  19       -5.826907
  20       -5.047993
  21       -2.599774
  22       -2.371965
  23       -1.959063
  24       -1.776407
  25       -1.442633
  26       -1.128811
  27       -1.069111
  28       -0.772079
  29       -0.468688
  30       -0.292805
  31       -0.242447
  32       -0.235769
  33       -0.193871
  34       -0.148113
  35       -0.017961
  36        0.023681
  37        1.331521
  38        1.380189
  39        1.413329
  40        1.438026
  41        1.464669
  42        1.467430
  43        1.513454
  44        1.546328
  45        1.631913
  46        1.757458
  47        1.785614
  48        1.950302
  49        2.088515
  50        2.659112
  51        2.719109
  52        3.196103
  53        3.253303
  54        3.520190
  55        3.895411
  56        3.976665
  57        6.043439
  58        6.412142
  59        7.827449
  60        7.907834
  61        8.362283
  62        8.818991
  63        9.776641
  64        9.788219
  65       10.063742
  66       10.588762
  67       10.645174
  68       10.817179
  69       10.858199
  70       11.492824
  71       11.559387
  72       12.025750
  73       12.577587
  74       12.772308
  75       12.912430
  76       13.206841
  77       13.537266
  78       13.823141
  79       14.197476
  80       14.705368
 
  0.2500000E+00  0.1517883E-17  0.2000000E+00  0.2500000E-01
   1      -68.656010
   2      -68.645625
   3      -68.632785
   4      -68.628477
   5      -68.622640
   6      -68.613677
   7      -68.606576
   8      -68.596205
   9      -68.576950
  10      -68.572982
  11      -68.559991
  12      -68.557003
  13      -12.455602
  14      -11.466247
  15      -10.862974
  16      -10.689557
  17      -10.373232
  18      -10.245390
  19       -5.762697
  20       -4.806901
  21       -2.446045
  22       -2.232311
  23       -1.850500
  24       -1.709900
  25       -1.432460
  26       -1.188473
  27       -0.891643
  28       -0.745770
  29       -0.606516
  30       -0.523786
  31       -0.312256
  32       -0.247909
  33       -0.175937
  34       -0.122977
  35       -0.053606
  36        0.060064
  37        1.301522
  38        1.333678
  39        1.368097
  40        1.431673
  41        1.443023
  42        1.477951
  43        1.520467
  44        1.546253
  45        1.644711
  46        1.871609
  47        1.978575
  48        2.048098
  49        2.193825
  50        2.476063
  51        2.594137
  52        2.837747
  53        2.963702
  54        3.132636
  55        3.567891
  56        3.725635
  57        6.439383
  58        6.949573
  59        8.169009
  60        8.243965
  61        8.837725
  62        9.130419
  63        9.464411
  64        9.791939
  65       10.082555
  66       10.307387
  67       10.739889
  68       11.080784
  69       11.287106
  70       11.423408
  71       11.629068
  72       11.726993
  73       12.089703
  74       12.269475
  75       12.534810
  76       12.665252
  77       12.956941
  78       13.056624
  79       13.645332
  80       14.690693
 
  0.5000000E+00  0.9107298E-17  0.2000000E+00  0.2500000E-01
   1      -68.655843
   2      -68.645491
   3      -68.632689
   4      -68.628360
   5      -68.622517
   6      -68.613523
   7      -68.606511
   8      -68.596112
   9      -68.576851
  10      -68.572873
  11      -68.559903
  12      -68.556946
  13      -12.353133
  14      -11.413018
  15      -10.952937
  16      -10.682833
  17      -10.478332
  18      -10.334875
  19       -5.748270
  20       -4.726394
  21       -2.522294
  22       -2.185392
  23       -1.950736
  24       -1.531595
  25       -1.300212
  26       -1.098170
  27       -0.871111
  28       -0.758396
  29       -0.550219
  30       -0.445314
  31       -0.290815
  32       -0.182294
  33       -0.144650
  34       -0.109935
  35       -0.045377
  36        0.022989
  37        1.271232
  38        1.296105
  39        1.349186
  40        1.428952
  41        1.450345
  42        1.479937
  43        1.500245
  44        1.588634
  45        1.719154
  46        1.933584
  47        2.076634
  48        2.145223
  49        2.267284
  50        2.402784
  51        2.567132
  52        2.597753
  53        2.896028
  54        3.009087
  55        3.357306
  56        3.900262
  57        6.365282
  58        6.890059
  59        7.572973
  60        8.086248
  61        8.548411
  62        8.800893
  63        9.271123
  64        9.629089
  65        9.932265
  66       10.273205
  67       10.657484
  68       10.931468
  69       10.973870
  70       11.283080
  71       11.516782
  72       11.787086
  73       12.244971
  74       12.546683
  75       13.095982
  76       13.519029
  77       14.290246
  78       14.549338
  79       15.128404
  80       16.273646
 
 -0.2500000E+00 -0.4098284E-16  0.2000000E+00  0.2500000E-01
   1      -68.656063
   2      -68.645686
   3      -68.632774
   4      -68.628470
   5      -68.622615
   6      -68.613633
   7      -68.606600
   8      -68.596238
   9      -68.576968
  10      -68.572976
  11      -68.560037
  12      -68.557071
  13      -12.538612
  14      -11.335461
  15      -10.875378
  16      -10.604065
  17      -10.398575
  18      -10.283251
  19       -5.820817
  20       -4.977094
  21       -2.665548
  22       -2.451371
  23       -2.038425
  24       -1.576096
  25       -1.169554
  26       -0.982945
  27       -0.800581
  28       -0.656270
  29       -0.515028
  30       -0.389531
  31       -0.268666
  32       -0.257379
  33       -0.192567
  34       -0.145443
  35       -0.047980
  36        0.013923
  37        1.289499
  38        1.309777
  39        1.387778
  40        1.407631
  41        1.431584
  42        1.455525
  43        1.491220
  44        1.563796
  45        1.686314
  46        1.914796
  47        1.985259
  48        2.144894
  49        2.334298
  50        2.565694
  51        2.617930
  52        2.829634
  53        2.971662
  54        3.247456
  55        3.682392
  56        3.946055
  57        6.178203
  58        6.633755
  59        7.767166
  60        7.971695
  61        8.214728
  62        8.560063
  63        9.377523
  64        9.579465
  65        9.904844
  66       10.252560
  67       10.543941
  68       10.788921
  69       10.846853
  70       11.071125
  71       11.563624
  72       12.020726
  73       12.519289
  74       12.757969
  75       12.950349
  76       13.310712
  77       13.413022
  78       13.743339
  79       13.844880
  80       14.726856
 
  0.1517883E-17  0.2500000E+00  0.2000000E+00  0.2500000E-01
   1      -68.656006
   2      -68.645627
   3      -68.632784
   4      -68.628477
   5      -68.622647
   6      -68.613670
   7      -68.606571
   8      -68.596213
   9      -68.576960
  10      -68.572970
  11      -68.559979
  12      -68.557016
  13      -12.455754
  14      -11.464798
  15      -10.865850
  16      -10.688248
  17      -10.373348
  18      -10.245235
  19       -5.761864
  20       -4.806828
  21       -2.445048
  22       -2.232522
  23       -1.850752
  24       -1.712110
  25       -1.433030
  26       -1.190030
  27       -0.888515
  28       -0.743938
  29       -0.606674
  30       -0.530971
  31       -0.310568
  32       -0.244093
  33       -0.173669
  34       -0.125033
  35       -0.054261
  36        0.059897
  37        1.299983
  38        1.334797
  39        1.367319
  40        1.431473
  41        1.445660
  42        1.477165
  43        1.520677
  44        1.547078
  45        1.643862
  46        1.869946
  47        1.980584
  48        2.047855
  49        2.193391
  50        2.475535
  51        2.594540
  52        2.837502
  53        2.963517
  54        3.134297
  55        3.569152
  56        3.724188
  57        6.437432
  58        6.950542
  59        8.169236
  60        8.245100
  61        8.832112
  62        9.130823
  63        9.467717
  64        9.794740
  65       10.090994
  66       10.297453
  67       10.740175
  68       11.081464
  69       11.291449
  70       11.419314
  71       11.633562
  72       11.726956
  73       12.085097
  74       12.265789
  75       12.540825
  76       12.657710
  77       12.954970
  78       13.056188
  79       13.657671
  80       14.696311
 
  0.2500000E+00  0.2500000E+00  0.2000000E+00  0.2500000E-01
   1      -68.655918
   2      -68.645536
   3      -68.632637
   4      -68.628324
   5      -68.622484
   6      -68.613513
   7      -68.606448
   8      -68.596087
   9      -68.576828
  10      -68.572842
  11      -68.559900
  12      -68.556916
  13      -12.323390
  14      -11.475061
  15      -10.862140
  16      -10.857025
  17      -10.405919
  18      -10.287979
  19       -5.743916
  20       -4.695105
  21       -2.242568
  22       -2.136645
  23       -1.925511
  24       -1.851312
  25       -1.457344
  26       -1.395353
  27       -1.037798
  28       -0.517628
  29       -0.466942
  30       -0.347305
  31       -0.250145
  32       -0.218280
  33       -0.162647
  34       -0.115117
  35       -0.090435
  36        0.080049
  37        1.259446
  38        1.345413
  39        1.398491
  40        1.433430
  41        1.452299
  42        1.508949
  43        1.533617
  44        1.541682
  45        1.753898
  46        1.817983
  47        2.041543
  48        2.136015
  49        2.284798
  50        2.311137
  51        2.520987
  52        2.768672
  53        2.897610
  54        3.261228
  55        3.496176
  56        3.801033
  57        6.180495
  58        6.834800
  59        7.824006
  60        8.046278
  61        8.188715
  62        8.729019
  63        9.151980
  64        9.304119
  65       10.218124
  66       10.446457
  67       10.591040
  68       11.009631
  69       11.239581
  70       11.486041
  71       11.813090
  72       12.170525
  73       12.208764
  74       12.575896
  75       12.692674
  76       13.112317
  77       13.415808
  78       13.881441
  79       14.010826
  80       14.526195
 
  0.5000000E+00  0.2500000E+00  0.2000000E+00  0.2500000E-01
   1      -68.655805
   2      -68.645411
   3      -68.632740
   4      -68.628400
   5      -68.622493
   6      -68.613564
   7      -68.606546
   8      -68.596147
   9      -68.576816
  10      -68.572900
  11      -68.559843
  12      -68.556901
  13      -12.369913
  14      -11.473498
  15      -10.937232
  16      -10.651806
  17      -10.419085
  18      -10.305371
  19       -5.796930
  20       -4.838071
  21       -2.527874
  22       -2.242685
  23       -1.871783
  24       -1.641914
  25       -1.506102
  26       -1.304773
  27       -0.901954
  28       -0.539239
  29       -0.378027
  30       -0.347355
  31       -0.223447
  32       -0.180498
  33       -0.166352
  34       -0.076435
  35       -0.026389
  36        0.080436
  37        1.187605
  38        1.361950
  39        1.395803
  40        1.440932
  41        1.463284
  42        1.505583
  43        1.517021
  44        1.585164
  45        1.737071
  46        1.818002
  47        2.036027
  48        2.236189
  49        2.269136
  50        2.363773
  51        2.486379
  52        2.669062
  53        3.054262
  54        3.411284
  55        3.729531
  56        3.863395
  57        5.932303
  58        6.610573
  59        7.351359
  60        7.942822
  61        8.064537
  62        8.724596
  63        8.903045
  64        9.140145
  65        9.841655
  66       10.326978
  67       10.558900
  68       10.928064
  69       11.220595
  70       11.422194
  71       11.749107
  72       12.008938
  73       12.491759
  74       12.825401
  75       13.206584
  76       14.187076
  77       14.712578
  78       15.144019
  79       15.908393
  80       16.564257
 
 -0.2500000E+00  0.2500000E+00  0.2000000E+00  0.2500000E-01
   1      -68.656007
   2      -68.645591
   3      -68.632826
   4      -68.628526
   5      -68.622559