 vasp.5.3.3 18Dez12 (build Nov 13 2015 09:58:40) complex                        
  
 executed on             LinuxIFC date 2017.10.18  13:08:59
 running on   48 total cores
 distrk:  each k-point on   16 cores,    3 groups
 distr:  one band on NCORES_PER_BAND=   1 cores,   16 groups


--------------------------------------------------------------------------------------------------------


 INCAR:
 POTCAR:    PAW_PBE Cu_pv 06Sep2000               
 POTCAR:    PAW_PBE Ge 05Jan2001                  
 POTCAR:    PAW_PBE S 17Jan2003                   

 ----------------------------------------------------------------------------- 
|                                                                             |
|           W    W    AA    RRRRR   N    N  II  N    N   GGGG   !!!           |
|           W    W   A  A   R    R  NN   N  II  NN   N  G    G  !!!           |
|           W    W  A    A  R    R  N N  N  II  N N  N  G       !!!           |
|           W WW W  AAAAAA  RRRRR   N  N N  II  N  N N  G  GGG   !            |
|           WW  WW  A    A  R   R   N   NN  II  N   NN  G    G                |
|           W    W  A    A  R    R  N    N  II  N    N   GGGG   !!!           |
|                                                                             |
|      For optimal performance we recommend that you set                      |
|        NPAR = 4 - approx SQRT( number of cores)                             |
|      (number of cores/NPAR must be integer)                                 |
|      This setting will greatly improve the performance of VASP for DFT.     |
|      The default NPAR=number of cores might be grossly inefficient          |
|      on modern multi-core architectures or massively parallel machines.     |
|      Do your own testing.                                                   |
|      Unfortunately you need to use the default for hybrid, GW and RPA       |
|      calculations.                                                          |
|                                                                             |
 ----------------------------------------------------------------------------- 


 ----------------------------------------------------------------------------- 
|                                                                             |
|           W    W    AA    RRRRR   N    N  II  N    N   GGGG   !!!           |
|           W    W   A  A   R    R  NN   N  II  NN   N  G    G  !!!           |
|           W    W  A    A  R    R  N N  N  II  N N  N  G       !!!           |
|           W WW W  AAAAAA  RRRRR   N  N N  II  N  N N  G  GGG   !            |
|           WW  WW  A    A  R   R   N   NN  II  N   NN  G    G                |
|           W    W  A    A  R    R  N    N  II  N    N   GGGG   !!!           |
|                                                                             |
|      You have enabled k-point parallelism (KPAR>1).                         |
|      This developmental code was originally  written by Paul Kent at ORNL,  |
|      and carefully double checked in Vienna.                                |
|      GW as well as linear response parallelism added by Martijn Marsman     |
|      and Georg Kresse.                                                      |
|      Carefully verify results versus KPAR=1.                                |
|      Report problems to Paul Kent and Vienna.                               |
|                                                                             |
 ----------------------------------------------------------------------------- 

 POTCAR:    PAW_PBE Cu_pv 06Sep2000               
   VRHFIN =Cu: d10 p1                                                           
   LEXCH  = PE                                                                  
   EATOM  =  4120.1201 eV,  302.8203 Ry                                         
                                                                                
   TITEL  = PAW_PBE Cu_pv 06Sep2000                                             
   LULTRA =        F    use ultrasoft PP ?                                      
   IUNSCR =        1    unscreen: 0-lin 1-nonlin 2-no                           
   RPACOR =    1.500    partial core radius                                     
   POMASS =   63.546; ZVAL   =   17.000    mass and valenz                      
   RCORE  =    2.000    outmost cutoff radius                                   
   RWIGS  =    2.000; RWIGS  =    1.058    wigner-seitz radius (au A)           
   ENMAX  =  368.648; ENMIN  =  276.486 eV                                      
   RCLOC  =    1.304    cutoff for local pot                                    
   LCOR   =        T    correct aug charges                                     
   LPAW   =        T    paw PP                                                  
   EAUG   =  758.233                                                            
   DEXC   =    0.000                                                            
   RMAX   =    2.046    core radius for proj-oper                               
   RAUG   =    1.300    factor for augmentation sphere                          
   RDEP   =    2.025    radius for radial grids                                 
   RDEPT  =    1.558    core radius for aug-charge                              
                                                                                
   Atomic configuration                                                         
    8 entries                                                                   
     n  l   j            E        occ.                                          
     1  0  0.50     -8850.2467   2.0000                                         
     2  0  0.50     -1062.3498   2.0000                                         
     2  1  1.50      -916.8226   6.0000                                         
     3  0  0.50      -114.6929   2.0000                                         
     3  1  1.50       -72.1325   6.0000                                         
     3  2  2.50        -5.0394  10.0000                                         
     4  0  0.50        -4.6097   1.0000                                         
     4  3  2.50        -1.3606   0.0000                                         
   Description                                                                  
     l       E           TYP  RCUT    TYP  RCUT                                 
     1    -72.1324777     23  1.700                                             
     1     -1.3605826     23  1.700                                             
     2     -5.0393776     23  2.000                                             
     2     -6.3999602     23  2.000                                             
     0     -4.6097062     23  1.800                                             
     0     14.1620818     23  1.800                                             
  local pseudopotential read in
  partial core-charges read in
  partial kinetic energy density read in
  atomic valenz-charges read in
  non local Contribution for L=           1  read in
    real space projection operators read in
  non local Contribution for L=           1  read in
    real space projection operators read in
  non local Contribution for L=           2  read in
    real space projection operators read in
  non local Contribution for L=           2  read in
    real space projection operators read in
  non local Contribution for L=           0  read in
    real space projection operators read in
  non local Contribution for L=           0  read in
    real space projection operators read in
    PAW grid and wavefunctions read in
 
   number of l-projection  operators is LMAX  =           6
   number of lm-projection operators is LMMAX =          18
 
 POTCAR:    PAW_PBE Ge 05Jan2001                  
   VRHFIN =Ge: s2p2                                                             
   LEXCH  = PE                                                                  
   EATOM  =   104.9960 eV,    7.7170 Ry                                         
                                                                                
   TITEL  = PAW_PBE Ge 05Jan2001                                                
   LULTRA =        F    use ultrasoft PP ?                                      
   IUNSCR =        1    unscreen: 0-lin 1-nonlin 2-no                           
   RPACOR =    2.170    partial core radius                                     
   POMASS =   72.610; ZVAL   =    4.000    mass and valenz                      
   RCORE  =    2.300    outmost cutoff radius                                   
   RWIGS  =    2.300; RWIGS  =    1.217    wigner-seitz radius (au A)           
   ENMAX  =  173.807; ENMIN  =  130.355 eV                                      
   ICORE  =        3    local potential                                         
   LCOR   =        T    correct aug charges                                     
   LPAW   =        T    paw PP                                                  
   EAUG   =  385.843                                                            
   DEXC   =    0.000                                                            
   RMAX   =    2.342    core radius for proj-oper                               
   RAUG   =    1.300    factor for augmentation sphere                          
   RDEP   =    2.318    radius for radial grids                                 
   RDEPT  =    2.103    core radius for aug-charge                              
                                                                                
   Atomic configuration                                                         
   10 entries                                                                   
     n  l   j            E        occ.                                          
     1  0  0.50    -10959.8463   2.0000                                         
     2  0  0.50     -1371.6056   2.0000                                         
     2  1  1.50     -1198.4791   6.0000                                         
     3  0  0.50      -168.4733   2.0000                                         
     3  1  1.50      -115.6019   6.0000                                         
     3  2  2.50       -29.3106  10.0000                                         
     4  0  0.50       -11.7309   2.0000                                         
     4  1  0.50        -3.8952   2.0000                                         
     4  2  1.50        -4.0817   0.0000                                         
     4  3  2.50        -4.0817   0.0000                                         
   Description                                                                  
     l       E           TYP  RCUT    TYP  RCUT                                 
     0    -11.7309493     23  2.300                                             
     0     -7.4578696     23  2.300                                             
     1     -3.8952261     23  2.300                                             
     1      6.1178114     23  2.300                                             
     2     -4.0817478     23  2.300                                             
     3     -1.3605826      7  2.300                                             
  local pseudopotential read in
  partial core-charges read in
  partial kinetic energy density read in
  atomic valenz-charges read in
  non local Contribution for L=           0  read in
    real space projection operators read in
  non local Contribution for L=           0  read in
    real space projection operators read in
  non local Contribution for L=           1  read in
    real space projection operators read in
  non local Contribution for L=           1  read in
    real space projection operators read in
  non local Contribution for L=           2  read in
    real space projection operators read in
    PAW grid and wavefunctions read in
 
   number of l-projection  operators is LMAX  =           5
   number of lm-projection operators is LMMAX =          13
 
 POTCAR:    PAW_PBE S 17Jan2003                   
   VRHFIN =S : s2p4                                                             
   LEXCH  = PE                                                                  
   EATOM  =   276.8230 eV,   20.3459 Ry                                         
                                                                                
   TITEL  = PAW_PBE S 17Jan2003                                                 
   LULTRA =        F    use ultrasoft PP ?                                      
   IUNSCR =        1    unscreen: 0-lin 1-nonlin 2-no                           
   RPACOR =    1.500    partial core radius                                     
   POMASS =   32.066; ZVAL   =    6.000    mass and valenz                      
   RCORE  =    1.900    outmost cutoff radius                                   
   RWIGS  =    2.200; RWIGS  =    1.164    wigner-seitz radius (au A)           
   ENMAX  =  280.000; ENMIN  =  194.016 eV                                      
   ICORE  =        2    local potential                                         
   LCOR   =        T    correct aug charges                                     
   LPAW   =        T    paw PP                                                  
   EAUG   =  335.092                                                            
   DEXC   =     .000                                                            
   RMAX   =    2.867    core radius for proj-oper                               
   RAUG   =    1.300    factor for augmentation sphere                          
   RDEP   =    1.954    radius for radial grids                                 
   QCUT   =   -4.360; QGAM   =    8.721    optimization parameters              
                                                                                
   Description                                                                  
     l     E      TYP  RCUT    TYP  RCUT                                        
     0   .000     23  1.900                                                     
     0   .000     23  1.900                                                     
     1   .000     23  1.900                                                     
     1   .000     23  1.900                                                     
     2   .000     23  1.900                                                     
  local pseudopotential read in
  partial core-charges read in
  atomic valenz-charges read in
  non local Contribution for L=           0  read in
    real space projection operators read in
  non local Contribution for L=           0  read in
    real space projection operators read in
  non local Contribution for L=           1  read in
    real space projection operators read in
  non local Contribution for L=           1  read in
    real space projection operators read in
    PAW grid and wavefunctions read in
 
   number of l-projection  operators is LMAX  =           4
   number of lm-projection operators is LMMAX =           8
 
  PAW_PBE Cu_pv 06Sep2000               :
 energy of atom  1       EATOM=-4120.1201
 kinetic energy error for atom=    0.0996 (will be added to EATOM!!)
  PAW_PBE Ge 05Jan2001                  :
 energy of atom  2       EATOM= -104.9960
 kinetic energy error for atom=    0.0003 (will be added to EATOM!!)
  PAW_PBE S 17Jan2003                   :
 energy of atom  3       EATOM= -276.8230
 kinetic energy error for atom=    0.0046 (will be added to EATOM!!)
 
 
 POSCAR: Cu Ge S                                 
  positions in direct lattice
  No initial velocities read in
 exchange correlation table for  LEXCH =        8
   RHO(1)=    0.500       N(1)  =     2000
   RHO(2)=  100.500       N(2)  =     4000
 


--------------------------------------------------------------------------------------------------------


 ion  position               nearest neighbor table
   1  0.618  0.121  0.120-   9 2.29  11 2.29  12 2.30   8 2.35
   2  0.121  0.618  0.620-  12 2.29   7 2.30   9 2.30  10 2.35
   3  0.963  0.790  0.119-  11 2.30  12 2.30   7 2.31   8 2.36
   4  0.790  0.963  0.619-   7 2.29   9 2.30  11 2.31  10 2.36
   5  0.440  0.267  0.599-   7 2.19   9 2.19  10 2.31   8 2.33
   6  0.267  0.440  0.099-  11 2.19  12 2.19   8 2.31  10 2.33
   7  0.079  0.913  0.497-   5 2.19   4 2.29   2 2.30   3 2.31
   8  0.571  0.412  0.980-   6 2.31   5 2.33   1 2.35   3 2.36
   9  0.737  0.250  0.495-   5 2.19   1 2.29   4 2.30   2 2.30
  10  0.412  0.571  0.480-   5 2.31   6 2.33   2 2.35   4 2.36
  11  0.912  0.079  0.997-   6 2.19   1 2.29   3 2.30   4 2.31
  12  0.250  0.737  0.995-   6 2.19   2 2.29   3 2.30   1 2.30
 
  Warning from LATTYP: Got some problem with cell dimensions!
  Tried to take original basis but could not verify dimensions!
  LATTYP: Found a base centered monoclinic cell.
 ALAT       =     6.4499010947
 B/A-ratio  =     1.7500516418
 C/A-ratio  =     1.9305142024
 COS(beta)  =    -0.4326083233
  
  Lattice vectors:
  
 A1 = (   3.2247960000,   5.6438300000,   0.0315720000)
 A2 = (   3.2247960000,  -5.6438300000,   0.0315720000)
 A3 = ( -10.7972380000,   0.0000000000,  -6.2018250000)


Analysis of symmetry for initial positions (statically):
=====================================================================
 Subroutine PRICEL returns:
 Original cell was already a primitive cell.
 

 Routine SETGRP: Setting up the symmetry group for a 
 base centered monoclinic supercell.


 Subroutine GETGRP returns: Found  1 space group operations
 (whereof  1 operations were pure point group operations)
 out of a pool of  4 trial point group operations.


The static configuration has the point symmetry C_1 .


Analysis of symmetry for dynamics (positions and initial velocities):
=====================================================================
 Subroutine PRICEL returns:
 Original cell was already a primitive cell.
 

 Routine SETGRP: Setting up the symmetry group for a 
 base centered monoclinic supercell.


 Subroutine GETGRP returns: Found  1 space group operations
 (whereof  1 operations were pure point group operations)
 out of a pool of  4 trial point group operations.


The dynamic configuration has the point symmetry C_1 .


 irot  :   1
 --------------------------------------------------------------------
 isymop:   1   0   0
           0   1   0
           0   0   1

 gtrans:     0.0000000     0.0000000     0.0000000

 ptrans:     0.0000000     0.0000000     0.0000000
 rotmap:
 (   1->   1)  (   2->   2)  (   3->   3)  (   4->   4)  (   5->   5) 
 (   6->   6)  (   7->   7)  (   8->   8)  (   9->   9)  (  10->  10) 
 (  11->  11)  (  12->  12) 
 
 
 KPOINTS: pymatgen 4.7.6+ generated KPOINTS with g

Automatic generation of k-mesh.
Space group operators:
 irot       det(A)        alpha          n_x          n_y          n_z        tau_x        tau_y        tau_z
    1     1.000000     0.000000     1.000000     0.000000     0.000000     0.000000     0.000000     0.000000
 
 Subroutine IBZKPT returns following result:
 ===========================================
 
 Found     42 irreducible k-points:
 
 Following reciprocal coordinates:
            Coordinates               Weight
  0.000000  0.000000  0.000000      1.000000
  0.250000  0.000000  0.000000      2.000000
  0.500000  0.000000  0.000000      1.000000
  0.000000  0.250000  0.000000      2.000000
  0.250000  0.250000  0.000000      2.000000
  0.500000  0.250000 -0.000000      2.000000
 -0.250000  0.250000  0.000000      2.000000
  0.000000  0.500000  0.000000      1.000000
  0.250000  0.500000 -0.000000      2.000000
  0.500000  0.500000  0.000000      1.000000
 -0.000000 -0.000000  0.200000      2.000000
  0.250000  0.000000  0.200000      2.000000
  0.500000  0.000000  0.200000      2.000000
 -0.250000 -0.000000  0.200000      2.000000
  0.000000  0.250000  0.200000      2.000000
  0.250000  0.250000  0.200000      2.000000
  0.500000  0.250000  0.200000      2.000000
 -0.250000  0.250000  0.200000      2.000000
  0.000000  0.500000  0.200000      2.000000
  0.250000  0.500000  0.200000      2.000000
  0.500000  0.500000  0.200000      2.000000
 -0.250000  0.500000  0.200000      2.000000
 -0.000000 -0.250000  0.200000      2.000000
  0.250000 -0.250000  0.200000      2.000000
  0.500000 -0.250000  0.200000      2.000000
 -0.250000 -0.250000  0.200000      2.000000
 -0.000000 -0.000000  0.400000      2.000000
  0.250000  0.000000  0.400000      2.000000
  0.500000  0.000000  0.400000      2.000000
 -0.250000  0.000000  0.400000      2.000000
  0.000000  0.250000  0.400000      2.000000
  0.250000  0.250000  0.400000      2.000000
  0.500000  0.250000  0.400000      2.000000
 -0.250000  0.250000  0.400000      2.000000
  0.000000  0.500000  0.400000      2.000000
  0.250000  0.500000  0.400000      2.000000
  0.500000  0.500000  0.400000      2.000000
 -0.250000  0.500000  0.400000      2.000000
  0.000000 -0.250000  0.400000      2.000000
  0.250000 -0.250000  0.400000      2.000000
  0.500000 -0.250000  0.400000      2.000000
 -0.250000 -0.250000  0.400000      2.000000
 
 Following cartesian coordinates:
            Coordinates               Weight
  0.000000  0.000000  0.000000      1.000000
  0.038631 -0.022148  0.013365      2.000000
  0.077263 -0.044296  0.026730      1.000000
  0.038631  0.022148  0.013365      2.000000
  0.077263  0.000000  0.026730      2.000000
  0.115894 -0.022148  0.040096      2.000000
  0.000000  0.044296  0.000000      2.000000
  0.077263  0.044296  0.026730      1.000000
  0.115894  0.022148  0.040096      2.000000
  0.154525  0.000000  0.053461      1.000000
 -0.000321  0.000000  0.032808      2.000000
  0.038310 -0.022148  0.046173      2.000000
  0.076941 -0.044296  0.059538      2.000000
 -0.038952  0.022148  0.019443      2.000000
  0.038310  0.022148  0.046173      2.000000
  0.076941  0.000000  0.059538      2.000000
  0.115573 -0.022148  0.072903      2.000000
 -0.000321  0.044296  0.032808      2.000000
  0.076941  0.044296  0.059538      2.000000
  0.115573  0.022148  0.072903      2.000000
  0.154204  0.000000  0.086269      2.000000
  0.038310  0.066444  0.046173      2.000000
 -0.038952 -0.022148  0.019443      2.000000
 -0.000321 -0.044296  0.032808      2.000000
  0.038310 -0.066444  0.046173      2.000000
 -0.077584  0.000000  0.006077      2.000000
 -0.000642  0.000000  0.065616      2.000000
  0.037989 -0.022148  0.078981      2.000000
  0.076620 -0.044296  0.092346      2.000000
 -0.039274  0.022148  0.052250      2.000000
  0.037989  0.022148  0.078981      2.000000
  0.076620  0.000000  0.092346      2.000000
  0.115251 -0.022148  0.105711      2.000000
 -0.000642  0.044296  0.065616      2.000000
  0.076620  0.044296  0.092346      2.000000
  0.115251  0.022148  0.105711      2.000000
  0.153883  0.000000  0.119076      2.000000
  0.037989  0.066444  0.078981      2.000000
 -0.039274 -0.022148  0.052250      2.000000
 -0.000642 -0.044296  0.065616      2.000000
  0.037989 -0.066444  0.078981      2.000000
 -0.077905  0.000000  0.038885      2.000000
 
 
 Subroutine IBZKPT_HF returns following result:
 ==============================================
 
 Found     80 k-points in 1st BZ
 the following     80 k-points will be used (e.g. in the exchange kernel)
 Following reciprocal coordinates:   # in IRBZ
  0.000000  0.000000  0.000000       1 t-inv F
  0.250000  0.000000  0.000000       2 t-inv F
  0.500000  0.000000  0.000000       3 t-inv F
  0.000000  0.250000  0.000000       4 t-inv F
  0.250000  0.250000  0.000000       5 t-inv F
  0.500000  0.250000 -0.000000       6 t-inv F
 -0.250000  0.250000  0.000000       7 t-inv F
  0.000000  0.500000  0.000000       8 t-inv F
  0.250000  0.500000 -0.000000       9 t-inv F
  0.500000  0.500000  0.000000      10 t-inv F
 -0.000000 -0.000000  0.200000      11 t-inv F
  0.250000  0.000000  0.200000      12 t-inv F
  0.500000  0.000000  0.200000      13 t-inv F
 -0.250000 -0.000000  0.200000      14 t-inv F
  0.000000  0.250000  0.200000      15 t-inv F
  0.250000  0.250000  0.200000      16 t-inv F
  0.500000  0.250000  0.200000      17 t-inv F
 -0.250000  0.250000  0.200000      18 t-inv F
  0.000000  0.500000  0.200000      19 t-inv F
  0.250000  0.500000  0.200000      20 t-inv F
  0.500000  0.500000  0.200000      21 t-inv F
 -0.250000  0.500000  0.200000      22 t-inv F
 -0.000000 -0.250000  0.200000      23 t-inv F
  0.250000 -0.250000  0.200000      24 t-inv F
  0.500000 -0.250000  0.200000      25 t-inv F
 -0.250000 -0.250000  0.200000      26 t-inv F
 -0.000000 -0.000000  0.400000      27 t-inv F
  0.250000  0.000000  0.400000      28 t-inv F
  0.500000  0.000000  0.400000      29 t-inv F
 -0.250000  0.000000  0.400000      30 t-inv F
  0.000000  0.250000  0.400000      31 t-inv F
  0.250000  0.250000  0.400000      32 t-inv F
  0.500000  0.250000  0.400000      33 t-inv F
 -0.250000  0.250000  0.400000      34 t-inv F
  0.000000  0.500000  0.400000      35 t-inv F
  0.250000  0.500000  0.400000      36 t-inv F
  0.500000  0.500000  0.400000      37 t-inv F
 -0.250000  0.500000  0.400000      38 t-inv F
  0.000000 -0.250000  0.400000      39 t-inv F
  0.250000 -0.250000  0.400000      40 t-inv F
  0.500000 -0.250000  0.400000      41 t-inv F
 -0.250000 -0.250000  0.400000      42 t-inv F
 -0.250000 -0.000000 -0.000000       2 t-inv T
 -0.000000 -0.250000 -0.000000       4 t-inv T
 -0.250000 -0.250000  0.000000       5 t-inv T
 -0.500000 -0.250000  0.000000       6 t-inv T
  0.250000 -0.250000  0.000000       7 t-inv T
 -0.250000 -0.500000  0.000000       9 t-inv T
  0.000000  0.000000 -0.200000      11 t-inv T
 -0.250000 -0.000000 -0.200000      12 t-inv T
 -0.500000 -0.000000 -0.200000      13 t-inv T
  0.250000  0.000000 -0.200000      14 t-inv T
 -0.000000 -0.250000 -0.200000      15 t-inv T
 -0.250000 -0.250000 -0.200000      16 t-inv T
 -0.500000 -0.250000 -0.200000      17 t-inv T
  0.250000 -0.250000 -0.200000      18 t-inv T
 -0.000000 -0.500000 -0.200000      19 t-inv T
 -0.250000 -0.500000 -0.200000      20 t-inv T
 -0.500000 -0.500000 -0.200000      21 t-inv T
  0.250000 -0.500000 -0.200000      22 t-inv T
  0.000000  0.250000 -0.200000      23 t-inv T
 -0.250000  0.250000 -0.200000      24 t-inv T
 -0.500000  0.250000 -0.200000      25 t-inv T
  0.250000  0.250000 -0.200000      26 t-inv T
  0.000000  0.000000 -0.400000      27 t-inv T
 -0.250000 -0.000000 -0.400000      28 t-inv T
 -0.500000 -0.000000 -0.400000      29 t-inv T
  0.250000 -0.000000 -0.400000      30 t-inv T
 -0.000000 -0.250000 -0.400000      31 t-inv T
 -0.250000 -0.250000 -0.400000      32 t-inv T
 -0.500000 -0.250000 -0.400000      33 t-inv T
  0.250000 -0.250000 -0.400000      34 t-inv T
 -0.000000 -0.500000 -0.400000      35 t-inv T
 -0.250000 -0.500000 -0.400000      36 t-inv T
 -0.500000 -0.500000 -0.400000      37 t-inv T
  0.250000 -0.500000 -0.400000      38 t-inv T
 -0.000000  0.250000 -0.400000      39 t-inv T
 -0.250000  0.250000 -0.400000      40 t-inv T
 -0.500000  0.250000 -0.400000      41 t-inv T
  0.250000  0.250000 -0.400000      42 t-inv T


--------------------------------------------------------------------------------------------------------




 Dimension of arrays:
   k-points           NKPTS =     42   k-points in BZ     NKDIM =     80   number of bands    NBANDS=     80
   number of dos      NEDOS =    301   number of ions     NIONS =     12
   non local maximal  LDIM  =      6   non local SUM 2l+1 LMDIM =     18
   total plane-waves  NPLWV =  32768
   max r-space proj   IRMAX =      1   max aug-charges    IRDMAX=   8224
   dimension x,y,z NGX =    32 NGY =   32 NGZ =   32
   dimension x,y,z NGXF=    64 NGYF=   64 NGZF=   64
   support grid    NGXF=    64 NGYF=   64 NGZF=   64
   ions per type =               4   2   6
 NGX,Y,Z   is equivalent  to a cutoff of   8.18,  8.18,  8.27 a.u.
 NGXF,Y,Z  is equivalent  to a cutoff of  16.37, 16.37, 16.55 a.u.


 I would recommend the setting:
   dimension x,y,z NGX =    32 NGY =   32 NGZ =   31
 SYSTEM =  CGS                                     
 POSCAR =  Cu Ge S                                 

 Startparameter for this run:
   NWRITE =      2    write-flag & timer
   PREC   = normal    normal or accurate (medium, high low for compatibility)
   ISTART =      1    job   : 0-new  1-cont  2-samecut
   ICHARG =      0    charge: 1-file 2-atom 10-const
   ISPIN  =      1    spin polarized calculation?
   LNONCOLLINEAR =      F non collinear calculations
   LSORBIT =      F    spin-orbit coupling
   INIWAV =      1    electr: 0-lowe 1-rand  2-diag
   LASPH  =      F    aspherical Exc in radial PAW
   METAGGA=      F    non-selfconsistent MetaGGA calc.

 Electronic Relaxation 1
   ENCUT  =  400.0 eV  29.40 Ry    5.42 a.u.  10.60 10.60 10.48*2*pi/ulx,y,z
   ENINI  =  400.0     initial cutoff
   ENAUG  =  758.2 eV  augmentation charge cutoff
   NELM   =     60;   NELMIN=  2; NELMDL=  0     # of ELM steps 
   EDIFF  = 0.1E-04   stopping-criterion for ELM
   LREAL  =      F    real-space projection
   NLSPLINE    = F    spline interpolate recip. space projectors
   LCOMPAT=      F    compatible to vasp.4.4
   GGA_COMPAT  = T    GGA compatible to vasp.4.4-vasp.4.6
   LMAXPAW     = -100 max onsite density
   LMAXMIX     =    2 max onsite mixed and CHGCAR
   VOSKOWN=      0    Vosko Wilk Nusair interpolation
   ROPT   =    0.00000   0.00000   0.00000
 Ionic relaxation
   EDIFFG = 0.1E-03   stopping-criterion for IOM
   NSW    =      0    number of steps for IOM
   NBLOCK =      1;   KBLOCK =      1    inner block; outer block 
   IBRION =     -1    ionic relax: 0-MD 1-quasi-New 2-CG
   NFREE  =      0    steps in history (QN), initial steepest desc. (CG)
   ISIF   =      0    stress and relaxation
   IWAVPR =     10    prediction:  0-non 1-charg 2-wave 3-comb
   ISYM   =      3    0-nonsym 1-usesym 2-fastsym
   LCORR  =      T    Harris-Foulkes like correction to forces

   POTIM  = 0.5000    time-step for ionic-motion
   TEIN   =    0.0    initial temperature
   TEBEG  =    0.0;   TEEND  =   0.0 temperature during run
   SMASS  =  -3.00    Nose mass-parameter (am)
   estimated Nose-frequenzy (Omega)   =  0.10E-29 period in steps =****** mass=  -0.966E-27a.u.
   SCALEE = 1.0000    scale energy and forces
   NPACO  =    256;   APACO  = 16.0  distance and # of slots for P.C.
   PSTRESS=    0.0 pullay stress

  Mass of Ions in am
   POMASS =  63.55 72.61 32.07
  Ionic Valenz
   ZVAL   =  17.00  4.00  6.00
  Atomic Wigner-Seitz radii
   RWIGS  =  -1.00 -1.00 -1.00
  virtual crystal weights 
   VCA    =   1.00  1.00  1.00
   NELECT =     112.0000    total number of electrons
   NUPDOWN=      -1.0000    fix difference up-down

 DOS related values:
   EMIN   =  10.00;   EMAX   =-10.00  energy-range for DOS
   EFERMI =   0.00
   ISMEAR =     1;   SIGMA  =   0.10  broadening in eV -4-tet -1-fermi 0-gaus

 Electronic relaxation 2 (details)
   IALGO  =     53    algorithm
   LDIAG  =      T    sub-space diagonalisation (order eigenvalues)
   LSUBROT=      T    optimize rotation matrix (better conditioning)
   TURBO    =      0    0=normal 1=particle mesh
   IRESTART =      0    0=no restart 2=restart with 2 vectors
   NREBOOT  =      0    no. of reboots
   NMIN     =      0    reboot dimension
   EREF     =   0.00    reference energy to select bands
   IMIX   =      4    mixing-type and parameters
     AMIX     =   0.40;   BMIX     =  1.00
     AMIX_MAG =   1.60;   BMIX_MAG =  1.00
     AMIN     =   0.10
     WC   =   100.;   INIMIX=   1;  MIXPRE=   1;  MAXMIX= -45

 Intra band minimization:
   WEIMIN = 0.0000     energy-eigenvalue tresh-hold
   EBREAK =  0.31E-07  absolut break condition
   DEPER  =   0.30     relativ break condition  

   TIME   =   0.40     timestep for ELM

  volume/ion in A,a.u.               =      18.49       124.79
  Fermi-wavevector in a.u.,A,eV,Ry     =   1.303450  2.463163 23.116052  1.698982
  Thomas-Fermi vector in A             =   2.434451
 
 Write flags
   LWAVE  =      T    write WAVECAR
   LCHARG =      T    write CHGCAR
   LVTOT  =      F    write LOCPOT, total local potential
   LVHAR  =      F    write LOCPOT, Hartree potential only
   LELF   =      F    write electronic localiz. function (ELF)
   LORBIT =      0    0 simple, 1 ext, 2 COOP (PROOUT)


 Dipole corrections
   LMONO  =      F    monopole corrections only (constant potential shift)
   LDIPOL =      F    correct potential (dipole corrections)
   IDIPOL =      0    1-x, 2-y, 3-z, 4-all directions 
   EPSILON=  1.0000000 bulk dielectric constant

 Exchange correlation treatment:
   GGA     =    PE    GGA type
   LEXCH   =     8    internal setting for exchange type
   VOSKOWN=      0    Vosko Wilk Nusair interpolation
   EXXOEP  =     0    0=HF, 1=EXX-LHF (local Hartree Fock) 2=EXX OEP
   LHFCALC =     T    Hartree Fock is set to
   LSYMGRAD=     F    symmetrize gradient (conserves proper symmetry)
   PRECFOCK=fast      Normal, Fast or Accurate (Low or Medium for compatibility)
   LRHFCALC=     F    long range Hartree Fock
   LRSCOR  =     F    long range correlation only (use DFT for short range part)
   LTHOMAS =     F    Thomas Fermi screening in HF
   LMODELHF=     F    short range full HF, long range fraction AEXX
   ENCUT4O =  -1.0   cutoff for four orbital integrals eV
   LMAXFOCK=     4    L truncation for augmentation on plane wave grid
   LMAXFOCKAE=  -1    L truncation for all-electron charge restoration on plane wave grid
   NMAXFOCKAE=   1    number of basis functions for all-electron charge restoration
   LFOCKAEDFT=     F  apply the AE augmentation even for DFT
   NKREDX  =     1    reduce k-point grid by
   NKREDY  =     1    reduce k-point grid by
   NKREDZ  =     1    reduce k-point grid by
   SHIFTRED=     F    shift reduced grid of Gamma
   HFKIDENT=     F    idential grid for each k-point
   ODDONLY =     F    use only odd q-grid points
   EVENONLY=     F    use only even q-grid points
   HFALPHA =   -1.0000 decay constant for conv. correction
   MCALPHA =    0.0000 extent of test-charge in conv. correction in multipole expansion
   AEXX    =    0.2500 exact exchange contribution
   HFSCREEN=    0.2000 screening length (either q_TF or 0.3 A-1)
   HFSCREENC=   0.2000 screening length for correlation (either q_TF or 0.3 A-1)
   HFRCUT  =    0.0000 spherical cutoff for potential kernel
   ALDAX   =    0.7500 LDA exchange part
   AGGAX   =    0.7500 GGA exchange part
   ALDAC   =    1.0000 LDA correlation
   AGGAC   =    1.0000 GGA correlation
   NBANDSGWLOW=     1    first orbital included in HF term
 Linear response parameters
   LEPSILON=     F    determine dielectric tensor
   LRPA    =     F    only Hartree local field effects (RPA)
   LNABLA  =     F    use nabla operator in PAW spheres
   LVEL    =     F    velocity operator in full k-point grid
   LINTERFAST=   F  fast interpolation
   KINTER  =     0    interpolate to denser k-point grid
   CSHIFT  =0.1000    complex shift for real part using Kramers Kronig
   OMEGAMAX=  -1.0    maximum frequency
   DEG_THRESHOLD= 0.2000000E-02 threshold for treating states as degnerate
   RTIME   =    0.100 relaxation time in fs

 Orbital magnetization related:
   ORBITALMAG=     F  switch on orbital magnetization
   LCHIMAG   =     F  perturbation theory with respect to B field
   DQ        =  0.001000  dq finite difference perturbation B field



--------------------------------------------------------------------------------------------------------


 Static calculation
 charge density and potential will be updated during run
 non-spin polarized calculation
 Conjugate gradient for all bands, subspace preconditioning
 perform sub-space diagonalisation
    before iterative eigenvector-optimisation
 modified Broyden-mixing scheme, WC =      100.0
 initial mixing is a Kerker type mixing with AMIX =  0.4000 and BMIX =      1.0000
 Hartree-type preconditioning will be used
 using additional bands           24
 reciprocal scheme for non local part
 use partial core corrections
 no Harris-corrections to forces 
 use gradient corrections 
 use of overlap-Matrix (Vanderbilt PP)
 Methfessel and Paxton  Order N= 1 SIGMA  =   0.10


--------------------------------------------------------------------------------------------------------


  energy-cutoff  :      400.00
  volume of cell :      221.90
      direct lattice vectors                 reciprocal lattice vectors
     3.224796000 -5.643830000  0.031572000     0.154525165 -0.088592321  0.053460880
     3.224796000  5.643830000  0.031572000     0.154525165  0.088592321  0.053460880
    -2.101946000  0.000000000  6.075537000    -0.001606004  0.000000000  0.164038877

  length of vectors
     6.500240234  6.500240234  6.428866683     0.185969598  0.185969598  0.164046738


 
 old parameters found on file WAVECAR:
  energy-cutoff  :      400.00
  volume of cell :      222.35
      direct lattice vectors                 reciprocal lattice vectors
     3.227235519 -5.642745207  0.030241751     0.154430495 -0.088609353  0.053450002
     3.227235519  5.642745207  0.030241751     0.154430495  0.088609353  0.053450002
    -2.106135241  0.000000000  6.085154262    -0.001534965  0.000000000  0.163803104

  length of vectors

 
 k-points in units of 2pi/SCALE and weight: pymatgen 4.7.6+ generated KPOINTS with g
   0.00000000  0.00000000  0.00000000       0.013
   0.03863129 -0.02214808  0.01336522       0.025
   0.07726258 -0.04429616  0.02673044       0.013
   0.03863129  0.02214808  0.01336522       0.025
   0.07726258  0.00000000  0.02673044       0.025
   0.11589387 -0.02214808  0.04009566       0.025
   0.00000000  0.04429616  0.00000000       0.025
   0.07726258  0.04429616  0.02673044       0.013
   0.11589387  0.02214808  0.04009566       0.025
   0.15452516  0.00000000  0.05346088       0.013
  -0.00032120  0.00000000  0.03280778       0.025
   0.03831009 -0.02214808  0.04617300       0.025
   0.07694138 -0.04429616  0.05953822       0.025
  -0.03895249  0.02214808  0.01944256       0.025
   0.03831009  0.02214808  0.04617300       0.025
   0.07694138  0.00000000  0.05953822       0.025
   0.11557267 -0.02214808  0.07290344       0.025
  -0.00032120  0.04429616  0.03280778       0.025
   0.07694138  0.04429616  0.05953822       0.025
   0.11557267  0.02214808  0.07290344       0.025
   0.15420396  0.00000000  0.08626865       0.025
   0.03831009  0.06644424  0.04617300       0.025
  -0.03895249 -0.02214808  0.01944256       0.025
  -0.00032120 -0.04429616  0.03280778       0.025
   0.03831009 -0.06644424  0.04617300       0.025
  -0.07758378  0.00000000  0.00607734       0.025
  -0.00064240  0.00000000  0.06561555       0.025
   0.03798889 -0.02214808  0.07898077       0.025
   0.07662018 -0.04429616  0.09234599       0.025
  -0.03927369  0.02214808  0.05225033       0.025
   0.03798889  0.02214808  0.07898077       0.025
   0.07662018  0.00000000  0.09234599       0.025
   0.11525147 -0.02214808  0.10571121       0.025
  -0.00064240  0.04429616  0.06561555       0.025
   0.07662018  0.04429616  0.09234599       0.025
   0.11525147  0.02214808  0.10571121       0.025
   0.15388276  0.00000000  0.11907643       0.025
   0.03798889  0.06644424  0.07898077       0.025
  -0.03927369 -0.02214808  0.05225033       0.025
  -0.00064240 -0.04429616  0.06561555       0.025
   0.03798889 -0.06644424  0.07898077       0.025
  -0.07790498  0.00000000  0.03888511       0.025
 
 k-points in reciprocal lattice and weights: pymatgen 4.7.6+ generated KPOINTS with g
   0.00000000  0.00000000  0.00000000       0.013
   0.25000000  0.00000000  0.00000000       0.025
   0.50000000  0.00000000  0.00000000       0.013
   0.00000000  0.25000000  0.00000000       0.025
   0.25000000  0.25000000  0.00000000       0.025
   0.50000000  0.25000000 -0.00000000       0.025
  -0.25000000  0.25000000  0.00000000       0.025
   0.00000000  0.50000000  0.00000000       0.013
   0.25000000  0.50000000 -0.00000000       0.025
   0.50000000  0.50000000  0.00000000       0.013
  -0.00000000 -0.00000000  0.20000000       0.025
   0.25000000  0.00000000  0.20000000       0.025
   0.50000000  0.00000000  0.20000000       0.025
  -0.25000000 -0.00000000  0.20000000       0.025
   0.00000000  0.25000000  0.20000000       0.025
   0.25000000  0.25000000  0.20000000       0.025
   0.50000000  0.25000000  0.20000000       0.025
  -0.25000000  0.25000000  0.20000000       0.025
   0.00000000  0.50000000  0.20000000       0.025
   0.25000000  0.50000000  0.20000000       0.025
   0.50000000  0.50000000  0.20000000       0.025
  -0.25000000  0.50000000  0.20000000       0.025
  -0.00000000 -0.25000000  0.20000000       0.025
   0.25000000 -0.25000000  0.20000000       0.025
   0.50000000 -0.25000000  0.20000000       0.025
  -0.25000000 -0.25000000  0.20000000       0.025
  -0.00000000 -0.00000000  0.40000000       0.025
   0.25000000  0.00000000  0.40000000       0.025
   0.50000000  0.00000000  0.40000000       0.025
  -0.25000000  0.00000000  0.40000000       0.025
   0.00000000  0.25000000  0.40000000       0.025
   0.25000000  0.25000000  0.40000000       0.025
   0.50000000  0.25000000  0.40000000       0.025
  -0.25000000  0.25000000  0.40000000       0.025
   0.00000000  0.50000000  0.40000000       0.025
   0.25000000  0.50000000  0.40000000       0.025
   0.50000000  0.50000000  0.40000000       0.025
  -0.25000000  0.50000000  0.40000000       0.025
   0.00000000 -0.25000000  0.40000000       0.025
   0.25000000 -0.25000000  0.40000000       0.025
   0.50000000 -0.25000000  0.40000000       0.025
  -0.25000000 -0.25000000  0.40000000       0.025
 
 position of ions in fractional coordinates (direct lattice) 
   0.61844300  0.12117100  0.11953300
   0.12117100  0.61844300  0.61953300
   0.96295700  0.79032200  0.11881300
   0.79032200  0.96295700  0.61881300
   0.43973200  0.26728100  0.59904700
   0.26728100  0.43973200  0.09904700
   0.07949800  0.91321340  0.49736300
   0.57140300  0.41236400  0.98018400
   0.73711100  0.25006200  0.49504900
   0.41236400  0.57140300  0.48018400
   0.91167500  0.07949800  0.99736300
   0.25006200  0.73711100  0.99504900
 
 position of ions in cartesian coordinates  (Angst):
   2.13385236 -2.80651863  0.74957826
   1.08287936  2.80651863  3.78734676
   5.40422860 -0.97432259  0.77720730
   4.35325560  0.97432259  3.81497580
   1.02080825 -0.97328413  3.66185403
   2.07178125  0.97328413  0.62408553
   2.15586160  4.70534801  3.05308919
   1.11215405 -0.89758908  5.98620365
   2.14286528 -2.74882176  3.03885554
   2.16312705  0.89758908  2.94843515
   1.09992756 -4.69666552  6.09080912
   1.09189228  2.74882176  6.07662404
 


--------------------------------------------------------------------------------------------------------


 k-point  1 :   0.0000 0.0000 0.0000  plane waves:    4051
 k-point  2 :   0.2500 0.0000 0.0000  plane waves:    4032
 k-point  3 :   0.5000 0.0000 0.0000  plane waves:    4030
 k-point  4 :   0.0000 0.2500 0.0000  plane waves:    4032
 k-point  5 :   0.2500 0.2500 0.0000  plane waves:    4038
 k-point  6 :   0.5000 0.2500-0.0000  plane waves:    4037
 k-point  7 :  -0.2500 0.2500 0.0000  plane waves:    4042
 k-point  8 :   0.0000 0.5000 0.0000  plane waves:    4030
 k-point  9 :   0.2500 0.5000-0.0000  plane waves:    4037
 k-point 10 :   0.5000 0.5000 0.0000  plane waves:    4026
 k-point 11 :  -0.0000-0.0000 0.2000  plane waves:    4046
 k-point 12 :   0.2500 0.0000 0.2000  plane waves:    4034
 k-point 13 :   0.5000 0.0000 0.2000  plane waves:    4025
 k-point 14 :  -0.2500-0.0000 0.2000  plane waves:    4044
 k-point 15 :   0.0000 0.2500 0.2000  plane waves:    4034
 k-point 16 :   0.2500 0.2500 0.2000  plane waves:    4017
 k-point 17 :   0.5000 0.2500 0.2000  plane waves:    4039
 k-point 18 :  -0.2500 0.2500 0.2000  plane waves:    4042
 k-point 19 :   0.0000 0.5000 0.2000  plane waves:    4025
 k-point 20 :   0.2500 0.5000 0.2000  plane waves:    4039
 k-point 21 :   0.5000 0.5000 0.2000  plane waves:    4030
 k-point 22 :  -0.2500 0.5000 0.2000  plane waves:    4030
 k-point 23 :  -0.0000-0.2500 0.2000  plane waves:    4044
 k-point 24 :   0.2500-0.2500 0.2000  plane waves:    4042
 k-point 25 :   0.5000-0.2500 0.2000  plane waves:    4030
 k-point 26 :  -0.2500-0.2500 0.2000  plane waves:    4020
 k-point 27 :  -0.0000-0.0000 0.4000  plane waves:    4027
 k-point 28 :   0.2500 0.0000 0.4000  plane waves:    4034
 k-point 29 :   0.5000 0.0000 0.4000  plane waves:    4013
 k-point 30 :  -0.2500 0.0000 0.4000  plane waves:    4042
 k-point 31 :   0.0000 0.2500 0.4000  plane waves:    4034
 k-point 32 :   0.2500 0.2500 0.4000  plane waves:    4009
 k-point 33 :   0.5000 0.2500 0.4000  plane waves:    4026
 k-point 34 :  -0.2500 0.2500 0.4000  plane waves:    4027
 k-point 35 :   0.0000 0.5000 0.4000  plane waves:    4013
 k-point 36 :   0.2500 0.5000 0.4000  plane waves:    4026
 k-point 37 :   0.5000 0.5000 0.4000  plane waves:    4037
 k-point 38 :  -0.2500 0.5000 0.4000  plane waves:    4022
 k-point 39 :   0.0000-0.2500 0.4000  plane waves:    4042
 k-point 40 :   0.2500-0.2500 0.4000  plane waves:    4027
 k-point 41 :   0.5000-0.2500 0.4000  plane waves:    4022
 k-point 42 :  -0.2500-0.2500 0.4000  plane waves:    4015

 maximum and minimum number of plane-waves per node :      4051     4009

 maximum number of plane-waves:      4051
 maximum index in each direction: 
   IXMAX=   10   IYMAX=   10   IZMAX=   10
   IXMIN=  -11   IYMIN=  -11   IZMIN=  -10

 WARNING: aliasing errors must be expected set NGX to  44 to avoid them
 WARNING: aliasing errors must be expected set NGY to  44 to avoid them
 WARNING: aliasing errors must be expected set NGZ to  42 to avoid them
 aliasing errors are usually negligible using standard VASP settings
 and one can safely disregard these warnings

 serial   3D FFT for wavefunctions
 parallel 3D FFT for charge:
    minimum data exchange during FFTs selected (reduces bandwidth)


 FFT grid for exact exchange (Hartree Fock) 
  NGX = 24; NGY = 24; NGZ = 24

 
 Radii for the augmentation spheres in the non-local exchange
 for species   1 augmentation radius   1.120 (default was   0.830)
       energy cutoff for augmentation   1600.0
 for species   2 augmentation radius   1.570 (default was   1.163)
       energy cutoff for augmentation   1600.0
 for species   3 augmentation radius   1.034 (default was   0.970)
       energy cutoff for augmentation   1600.0

 total amount of memory used by VASP on root node   151696. kBytes
========================================================================

   base      :      30000. kBytes
   nonl-proj :      74517. kBytes
   fftplans  :        702. kBytes
   grid      :       2400. kBytes
   one-center:        186. kBytes
   HF        :        194. kBytes
   nonlr-proj:       1121. kBytes
   wavefun   :      42576. kBytes
 
 Broyden mixing: mesh for mixing (old mesh)
   NGX = 21   NGY = 21   NGZ = 21
  (NGX  = 64   NGY  = 64   NGZ  = 64)
  gives a total of   9261 points

 charge density for first step will be calculated from the start-wavefunctions


--------------------------------------------------------------------------------------------------------


 Maximum index for augmentation-charges          485 (set IRDMAX)


--------------------------------------------------------------------------------------------------------


 initial charge from wavefunction
 First call to EWALD:  gamma=   0.293
 Maximum number of real-space cells 3x 3x 3
 Maximum number of reciprocal cells 3x 3x 3

 FEWALD executed in parallel
    FEWALD:  cpu time    0.00: real time    0.00


----------------------------------------- Iteration    1(   1)  ---------------------------------------


    POTLOK:  cpu time    0.06: real time    0.06
    SETDIJ:  cpu time    1.95: real time    1.95
 
    SUBROT:  cpu time    0.71: real time    0.71
    SUBROT:  cpu time    0.33: real time    0.33
    SUBROT:  cpu time    0.33: real time    0.33
    SUBROT:  cpu time    0.33: real time    0.33
    --------------------------------------------
    SUBRT+:  cpu time    1.71: real time    1.71

 Broyden mixing:
  rms(total) = 0.99114E-02    rms(broyden)= 0.99071E-02
  rms(prec ) = 0.18015E-01
  weight for this iteration     100.00

 eigenvalues of (default mixing * dielectric matrix)
  average eigenvalue GAMMA=   1.6095
  2.4495  0.8551  1.5240
 
    TRIAL :  cpu time  233.56: real time  233.36
    CORREC:  cpu time    0.00: real time    0.00
    CHARGE:  cpu time    0.06: real time    0.06
    --------------------------------------------
      LOOP:  cpu time  235.64: real time  235.44

 eigenvalue-minimisations  :     0
 total energy-change (2. order) : 0.7553206E+02  (-0.2131563E+03)
 number of electron     112.0001479 magnetization 
 augmentation part       38.9113779 magnetization 

 Free energy of the ion-electron system (eV)
  ---------------------------------------------------
  alpha Z        PSCENC =       339.31929130
  Ewald energy   TEWEN  =     -9065.38210024
  -1/2 Hartree   DENC   =     -8067.42898312
  -exchange  EXHF       =       327.45064581
  -V(xc)+E(xc)   XCENC  =       369.90457226
  PAW double counting   =     16899.71286165   -17392.52890791
  entropy T*S    EENTRO =        -0.00147583
  eigenvalues    EBANDS =     -1656.49900105
  atomic energy  EATOM  =     18320.98302006
  ---------------------------------------------------
  free energy    TOTEN  =        75.53206204 eV

  energy without entropy =       75.53353787  energy(sigma->0) =       75.53255398


--------------------------------------------------------------------------------------------------------




----------------------------------------- Iteration    1(   2)  ---------------------------------------


    POTLOK:  cpu time    0.05: real time    0.05
    SETDIJ:  cpu time    1.94: real time    1.94
 
    SUBROT:  cpu time    0.68: real time    0.68
    SUBROT:  cpu time    0.35: real time    0.35
    SUBROT:  cpu time    0.35: real time    0.35
    SUBROT:  cpu time    0.35: real time    0.35
    --------------------------------------------
    SUBRT+:  cpu time    1.75: real time    1.79

 Broyden mixing:
  rms(total) = 0.27407E-01    rms(broyden)= 0.27397E-01
  rms(prec ) = 0.50398E-01
  weight for this iteration     100.00

 eigenvalues of (default mixing * dielectric matrix)
  average eigenvalue GAMMA=   1.5472
  2.5443  1.2417  0.8556
 
    TRIAL :  cpu time  237.64: real time  237.49
    CORREC:  cpu time    0.00: real time    0.00
    CHARGE:  cpu time    0.06: real time    0.06
    --------------------------------------------
      LOOP:  cpu time  239.70: real time  239.55

 eigenvalue-minimisations  :     0
 total energy-change (2. order) :-0.8390997E+02  (-0.1468908E+03)
 number of electron     112.0001384 magnetization 
 augmentation part       35.4572825 magnetization 

 Free energy of the ion-electron system (eV)
  ---------------------------------------------------
  alpha Z        PSCENC =       339.31929130
  Ewald energy   TEWEN  =     -9065.38210024
  -1/2 Hartree   DENC   =     -8369.55130763
  -exchange  EXHF       =       338.96274825
  -V(xc)+E(xc)   XCENC  =       377.32239385
  PAW double counting   =     17401.04806033   -17940.17297746
  entropy T*S    EENTRO =        -0.00077998
  eigenvalues    EBANDS =     -1410.90555997
  atomic energy  EATOM  =     18320.98302006
  ---------------------------------------------------
  free energy    TOTEN  =        -8.37790735 eV

  energy without entropy =       -8.37712737  energy(sigma->0) =       -8.37764736


--------------------------------------------------------------------------------------------------------




----------------------------------------- Iteration    1(   3)  ---------------------------------------


    POTLOK:  cpu time    0.05: real time    0.05
    SETDIJ:  cpu time    1.98: real time    1.98
 
    SUBROT:  cpu time    0.71: real time    0.71
    SUBROT:  cpu time    0.34: real time    0.34
    SUBROT:  cpu time    0.34: real time    0.34
    SUBROT:  cpu time    0.32: real time    0.32
    --------------------------------------------
    SUBRT+:  cpu time    1.71: real time    1.72

 Broyden mixing:
  rms(total) = 0.28128E-01    rms(broyden)= 0.28117E-01
  rms(prec ) = 0.52398E-01
  weight for this iteration     100.00

 eigenvalues of (default mixing * dielectric matrix)
  average eigenvalue GAMMA=   1.7746
  1.0116  2.4994  1.8127
 
    TRIAL :  cpu time  242.81: real time  242.60
    CORREC:  cpu time    0.00: real time    0.00
    CHARGE:  cpu time    0.06: real time    0.06
    --------------------------------------------
      LOOP:  cpu time  244.90: real time  244.71

 eigenvalue-minimisations  :     0
 total energy-change (2. order) :-0.6819418E+01  (-0.2036066E+03)
 number of electron     112.0001509 magnetization 
 augmentation part       39.6829310 magnetization 

 Free energy of the ion-electron system (eV)
  ---------------------------------------------------
  alpha Z        PSCENC =       339.31929130
  Ewald energy   TEWEN  =     -9065.38210024
  -1/2 Hartree   DENC   =     -7477.65104351
  -exchange  EXHF       =       325.01098534
  -V(xc)+E(xc)   XCENC  =       357.41142175
  PAW double counting   =     15151.27770088   -15580.74932352
  entropy T*S    EENTRO =         0.00024725
  eigenvalues    EBANDS =     -2385.41649780
  atomic energy  EATOM  =     18320.98302006
  ---------------------------------------------------
  free energy    TOTEN  =       -15.19732573 eV

  energy without entropy =      -15.19757298  energy(sigma->0) =      -15.19740815


--------------------------------------------------------------------------------------------------------




----------------------------------------- Iteration    1(   4)  ---------------------------------------


    POTLOK:  cpu time    0.05: real time    0.05
    SETDIJ:  cpu time    1.96: real time    1.96
 
    SUBROT:  cpu time    0.99: real time    0.99
    SUBROT:  cpu time    0.35: real time    0.35
    SUBROT:  cpu time    0.34: real time    0.34
    SUBROT:  cpu time    0.34: real time    0.34
    SUBROT:  cpu time    0.37: real time    0.37
    --------------------------------------------
    SUBRT+:  cpu time    2.39: real time    2.39

 Broyden mixing:
  rms(total) = 0.11022E+00    rms(broyden)= 0.11003E+00
  rms(prec ) = 0.19464E+00
  weight for this iteration     100.00

 eigenvalues of (default mixing * dielectric matrix)
  average eigenvalue GAMMA=   1.2777
  2.6203  1.4167  0.6803  0.3933
 
    TRIAL :  cpu time  245.38: real time  245.16
    CORREC:  cpu time    0.00: real time    0.00
    CHARGE:  cpu time    0.07: real time    0.07
    --------------------------------------------
      LOOP:  cpu time  247.46: real time  247.24

 eigenvalue-minimisations  :     0
 total energy-change (2. order) :-0.7486473E+01  (-0.1073055E+03)
 number of electron     112.0001430 magnetization 
 augmentation part       37.2472399 magnetization 

 Free energy of the ion-electron system (eV)
  ---------------------------------------------------
  alpha Z        PSCENC =       339.31929130
  Ewald energy   TEWEN  =     -9065.38210024
  -1/2 Hartree   DENC   =     -8542.18570454
  -exchange  EXHF       =       343.00069514
  -V(xc)+E(xc)   XCENC  =       381.65015167
  PAW double counting   =     17630.76100645   -18211.34950283
  entropy T*S    EENTRO =         0.00033620
  eigenvalues    EBANDS =     -1219.48090276
  atomic energy  EATOM  =     18320.98302006
  ---------------------------------------------------
  free energy    TOTEN  =       -22.68379851 eV

  energy without entropy =      -22.68413471  energy(sigma->0) =      -22.68391058


--------------------------------------------------------------------------------------------------------




----------------------------------------- Iteration    1(   5)  ---------------------------------------


    POTLOK:  cpu time    0.05: real time    0.05
    SETDIJ:  cpu time    1.99: real time    1.99
 
    SUBROT:  cpu time    0.71: real time    0.71
    SUBROT:  cpu time    0.34: real time    0.34
    SUBROT:  cpu time    0.34: real time    0.34
    SUBROT:  cpu time    0.35: real time    0.35
    --------------------------------------------
    SUBRT+:  cpu time    1.73: real time    1.75

 Broyden mixing:
  rms(total) = 0.42924E-01    rms(broyden)= 0.42915E-01
  rms(prec ) = 0.88100E-01
  weight for this iteration     100.00

 eigenvalues of (default mixing * dielectric matrix)
  average eigenvalue GAMMA=   1.6822
  2.4639  0.9360  1.6468
 
    TRIAL :  cpu time  244.43: real time  244.23
    CORREC:  cpu time    0.00: real time    0.00
    CHARGE:  cpu time    0.05: real time    0.05
    --------------------------------------------
      LOOP:  cpu time  246.53: real time  246.33

 eigenvalue-minimisations  :     0
 total energy-change (2. order) :-0.3814381E+02  (-0.1504873E+02)
 number of electron     112.0001429 magnetization 
 augmentation part       37.2491949 magnetization 

 Free energy of the ion-electron system (eV)
  ---------------------------------------------------
  alpha Z        PSCENC =       339.31929130
  Ewald energy   TEWEN  =     -9065.38210024
  -1/2 Hartree   DENC   =     -8008.68748682
  -exchange  EXHF       =       336.41137437
  -V(xc)+E(xc)   XCENC  =       368.42046980
  PAW double counting   =     15871.45946937   -16340.91455145
  entropy T*S    EENTRO =         0.00063090
  eigenvalues    EBANDS =     -1882.43743272
  atomic energy  EATOM  =     18320.98302006
  ---------------------------------------------------
  free energy    TOTEN  =       -60.82761014 eV

  energy without entropy =      -60.82824104  energy(sigma->0) =      -60.82782044


--------------------------------------------------------------------------------------------------------




----------------------------------------- Iteration    1(   6)  ---------------------------------------


    POTLOK:  cpu time    0.10: real time    0.10
    SETDIJ:  cpu time    1.98: real time    1.98
 
    SUBROT:  cpu time    0.70: real time    0.70
    SUBROT:  cpu time    0.34: real time    0.34
    SUBROT:  cpu time    0.34: real time    0.34
    SUBROT:  cpu time    0.34: real time    0.34
    --------------------------------------------
    SUBRT+:  cpu time    1.73: real time    1.75

 Broyden mixing:
  rms(total) = 0.27345E-02    rms(broyden)= 0.27338E-02
  rms(prec ) = 0.45495E-02
  weight for this iteration     100.00

 eigenvalues of (default mixing * dielectric matrix)
  average eigenvalue GAMMA=   1.8168
  1.0161  2.5254  1.9087
 
    TRIAL :  cpu time  244.08: real time  243.89
    CORREC:  cpu time    0.00: real time    0.00
    CHARGE:  cpu time    0.05: real time    0.05
    --------------------------------------------
      LOOP:  cpu time  246.22: real time  246.05

 eigenvalue-minimisations  :     0
 total energy-change (2. order) :-0.5121955E+01  (-0.8136584E+01)
 number of electron     112.0001459 magnetization 
 augmentation part       38.2269843 magnetization 

 Free energy of the ion-electron system (eV)
  ---------------------------------------------------
  alpha Z        PSCENC =       339.31929130
  Ewald energy   TEWEN  =     -9065.38210024
  -1/2 Hartree   DENC   =     -8001.89799733
  -exchange  EXHF       =       337.17556918
  -V(xc)+E(xc)   XCENC  =       368.80512195
  PAW double counting   =     15772.86898705   -16241.87128845
  entropy T*S    EENTRO =         0.00066917
  eigenvalues    EBANDS =     -1895.95080002
  atomic energy  EATOM  =     18320.98302006
  ---------------------------------------------------
  free energy    TOTEN  =       -65.94956560 eV

  energy without entropy =      -65.95023477  energy(sigma->0) =      -65.94978866


--------------------------------------------------------------------------------------------------------




----------------------------------------- Iteration    1(   7)  ---------------------------------------


    POTLOK:  cpu time    0.05: real time    0.05
    SETDIJ:  cpu time    1.97: real time    1.97
 
    SUBROT:  cpu time    0.67: real time    0.67
    SUBROT:  cpu time    0.33: real time    0.33
    SUBROT:  cpu time    0.33: real time    0.33
    SUBROT:  cpu time    0.33: real time    0.33
    --------------------------------------------
    SUBRT+:  cpu time    1.67: real time    1.67

 Broyden mixing:
  rms(total) = 0.13137E-01    rms(broyden)= 0.13133E-01
  rms(prec ) = 0.23245E-01
  weight for this iteration     100.00

 eigenvalues of (default mixing * dielectric matrix)
  average eigenvalue GAMMA=   1.6239
  2.5023  0.8958  1.4735
 
    TRIAL :  cpu time  244.99: real time  244.77
    CORREC:  cpu time    0.00: real time    0.00
    CHARGE:  cpu time    0.05: real time    0.06
    --------------------------------------------
      LOOP:  cpu time  247.07: real time  246.87

 eigenvalue-minimisations  :     0
 total energy-change (2. order) :-0.1533536E+01  (-0.4116553E+01)
 number of electron     112.0001442 magnetization 
 augmentation part       37.7071103 magnetization 

 Free energy of the ion-electron system (eV)
  ---------------------------------------------------
  alpha Z        PSCENC =       339.31929130
  Ewald energy   TEWEN  =     -9065.38210024
  -1/2 Hartree   DENC   =     -8242.70959922
  -exchange  EXHF       =       341.62977687
  -V(xc)+E(xc)   XCENC  =       374.55724254
  PAW double counting   =     16206.59041219   -16709.81087775
  entropy T*S    EENTRO =         0.00043902
  eigenvalues    EBANDS =     -1632.66093675
  atomic energy  EATOM  =     18320.98302006
  ---------------------------------------------------
  free energy    TOTEN  =       -67.48310184 eV

  energy without entropy =      -67.48354086  energy(sigma->0) =      -67.48324818


--------------------------------------------------------------------------------------------------------




----------------------------------------- Iteration    1(   8)  ---------------------------------------


    POTLOK:  cpu time    0.05: real time    0.05
    SETDIJ:  cpu time    1.97: real time    1.97
 
    SUBROT:  cpu time    0.69: real time    0.69
    SUBROT:  cpu time    0.35: real time    0.35
    SUBROT:  cpu time    0.36: real time    0.36
    SUBROT:  cpu time    0.36: real time    0.36
    --------------------------------------------
    SUBRT+:  cpu time    1.76: real time    1.77

 Broyden mixing:
  rms(total) = 0.82890E-02    rms(broyden)= 0.82866E-02
  rms(prec ) = 0.13905E-01
  weight for this iteration     100.00

 eigenvalues of (default mixing * dielectric matrix)
  average eigenvalue GAMMA=   1.6773
  2.4563  0.9480  1.6276
 
    TRIAL :  cpu time  245.35: real time  245.14
    CORREC:  cpu time    0.00: real time    0.00
    CHARGE:  cpu time    0.08: real time    0.08
    --------------------------------------------
      LOOP:  cpu time  247.45: real time  247.24

 eigenvalue-minimisations  :     0
 total energy-change (2. order) :-0.1603759E+01  (-0.7685197E+00)
 number of electron     112.0001443 magnetization 
 augmentation part       37.7256832 magnetization 

 Free energy of the ion-electron system (eV)
  ---------------------------------------------------
  alpha Z        PSCENC =       339.31929130
  Ewald energy   TEWEN  =     -9065.38210024
  -1/2 Hartree   DENC   =     -8116.43574366
  -exchange  EXHF       =       339.53714495
  -V(xc)+E(xc)   XCENC  =       371.39221738
  PAW double counting   =     15916.58299771   -16397.92456650
  entropy T*S    EENTRO =         0.00072612
  eigenvalues    EBANDS =     -1777.15956083
  atomic energy  EATOM  =     18320.98302006
  ---------------------------------------------------
  free energy    TOTEN  =       -69.08686082 eV

  energy without entropy =      -69.08758694  energy(sigma->0) =      -69.08710286


--------------------------------------------------------------------------------------------------------




----------------------------------------- Iteration    1(   9)  ---------------------------------------


    POTLOK:  cpu time    0.05: real time    0.05
    SETDIJ:  cpu time    1.97: real time    1.96
 
    SUBROT:  cpu time    0.71: real time    0.71
    SUBROT:  cpu time    0.35: real time    0.35
    SUBROT:  cpu time    0.35: real time    0.35
    SUBROT:  cpu time    0.35: real time    0.35
    --------------------------------------------
    SUBRT+:  cpu time    1.76: real time    1.76

 Broyden mixing:
  rms(total) = 0.52284E-03    rms(broyden)= 0.52225E-03
  rms(prec ) = 0.82387E-03
  weight for this iteration     100.00

 eigenvalues of (default mixing * dielectric matrix)
  average eigenvalue GAMMA=   1.7021
  2.5249  1.0026  1.5790
 
    TRIAL :  cpu time  245.82: real time  245.60
    CORREC:  cpu time    0.00: real time    0.00
    CHARGE:  cpu time    0.06: real time    0.06
    --------------------------------------------
      LOOP:  cpu time  247.90: real time  247.68

 eigenvalue-minimisations  :     0
 total energy-change (2. order) :-0.3087658E+00  (-0.3847996E+00)
 number of electron     112.0001449 magnetization 
 augmentation part       37.9058953 magnetization 

 Free energy of the ion-electron system (eV)
  ---------------------------------------------------
  alpha Z        PSCENC =       339.31929130
  Ewald energy   TEWEN  =     -9065.38210024
  -1/2 Hartree   DENC   =     -8123.90043109
  -exchange  EXHF       =       339.60658640
  -V(xc)+E(xc)   XCENC  =       371.45193137
  PAW double counting   =     15912.63681658   -16393.88593041
  entropy T*S    EENTRO =         0.00086079
  eigenvalues    EBANDS =     -1770.22553673
  atomic energy  EATOM  =     18320.98302006
  ---------------------------------------------------
  free energy    TOTEN  =       -69.39562665 eV

  energy without entropy =      -69.39648744  energy(sigma->0) =      -69.39591358


--------------------------------------------------------------------------------------------------------




----------------------------------------- Iteration    1(  10)  ---------------------------------------


    POTLOK:  cpu time    0.10: real time    0.10
    SETDIJ:  cpu time    2.39: real time    2.39
 
    SUBROT:  cpu time    0.68: real time    0.68
    SUBROT:  cpu time    0.37: real time    0.37
    SUBROT:  cpu time    0.37: real time    0.37
    SUBROT:  cpu time    0.37: real time    0.37
    --------------------------------------------
    SUBRT+:  cpu time    1.79: real time    1.82

 Broyden mixing:
  rms(total) = 0.22780E-02    rms(broyden)= 0.22776E-02
  rms(prec ) = 0.38410E-02
  weight for this iteration     100.00

 eigenvalues of (default mixing * dielectric matrix)
  average eigenvalue GAMMA=   1.6870
  2.4753  0.9897  1.5959
 
    TRIAL :  cpu time  245.53: real time  245.35
    CORREC:  cpu time    0.00: real time    0.00
    CHARGE:  cpu time    0.07: real time    0.08
    --------------------------------------------
      LOOP:  cpu time  248.10: real time  247.92

 eigenvalue-minimisations  :     0
 total energy-change (2. order) :-0.1034713E+00  (-0.1516346E+00)
 number of electron     112.0001446 magnetization 
 augmentation part       37.8191650 magnetization 

 Free energy of the ion-electron system (eV)
  ---------------------------------------------------
  alpha Z        PSCENC =       339.31929130
  Ewald energy   TEWEN  =     -9065.38210024
  -1/2 Hartree   DENC   =     -8170.99013300
  -exchange  EXHF       =       340.40381795
  -V(xc)+E(xc)   XCENC  =       372.54216467
  PAW double counting   =     15993.95325183   -16481.90706813
  entropy T*S    EENTRO =         0.00072096
  eigenvalues    EBANDS =     -1718.42220317
  atomic energy  EATOM  =     18320.98302006
  ---------------------------------------------------
  free energy    TOTEN  =       -69.49909794 eV

  energy without entropy =      -69.49981890  energy(sigma->0) =      -69.49933826


--------------------------------------------------------------------------------------------------------




----------------------------------------- Iteration    1(  11)  ---------------------------------------


    POTLOK:  cpu time    0.05: real time    0.05
    SETDIJ:  cpu time    1.99: real time    1.98
 
    SUBROT:  cpu time    0.74: real time    0.74
    SUBROT:  cpu time    0.36: real time    0.36
    SUBROT:  cpu time    0.36: real time    0.36
    SUBROT:  cpu time    0.35: real time    0.35
    --------------------------------------------
    SUBRT+:  cpu time    1.81: real time    1.81

 Broyden mixing:
  rms(total) = 0.77440E-03    rms(broyden)= 0.77415E-03
  rms(prec ) = 0.15508E-02
  weight for this iteration     100.00

 eigenvalues of (default mixing * dielectric matrix)
  average eigenvalue GAMMA=   1.6739
  2.4942  0.9850  1.5425
 
    TRIAL :  cpu time  245.67: real time  245.45
    CORREC:  cpu time    0.00: real time    0.00
    CHARGE:  cpu time    0.09: real time    0.09
    --------------------------------------------
      LOOP:  cpu time  247.80: real time  247.60

 eigenvalue-minimisations  :     0
 total energy-change (2. order) :-0.6932956E-01  (-0.3689473E-01)
 number of electron     112.0001445 magnetization 
 augmentation part       37.7864526 magnetization 

 Free energy of the ion-electron system (eV)
  ---------------------------------------------------
  alpha Z        PSCENC =       339.31929130
  Ewald energy   TEWEN  =     -9065.38210024
  -1/2 Hartree   DENC   =     -8149.71920553
  -exchange  EXHF       =       340.07646092
  -V(xc)+E(xc)   XCENC  =       372.07107007
  PAW double counting   =     15942.22577733   -16427.15941935
  entropy T*S    EENTRO =         0.00060512
  eigenvalues    EBANDS =     -1741.98404302
  atomic energy  EATOM  =     18320.98302006
  ---------------------------------------------------
  free energy    TOTEN  =       -69.56842751 eV

  energy without entropy =      -69.56903263  energy(sigma->0) =      -69.56862921


--------------------------------------------------------------------------------------------------------




----------------------------------------- Iteration    1(  12)  ---------------------------------------


    POTLOK:  cpu time    0.05: real time    0.05
    SETDIJ:  cpu time    1.98: real time    1.98
 
    SUBROT:  cpu time    0.74: real time    0.74
    SUBROT:  cpu time    0.36: real time    0.36
    SUBROT:  cpu time    0.36: real time    0.36
    SUBROT:  cpu time    0.36: real time    0.36
    --------------------------------------------
    SUBRT+:  cpu time    1.82: real time    1.82

 Broyden mixing:
  rms(total) = 0.20608E-03    rms(broyden)= 0.20599E-03
  rms(prec ) = 0.45178E-03
  weight for this iteration     100.00

 eigenvalues of (default mixing * dielectric matrix)
  average eigenvalue GAMMA=   1.6502
  2.5057  0.9997  1.4451
 
    TRIAL :  cpu time  245.43: real time  245.21
    CORREC:  cpu time    0.00: real time    0.00
    CHARGE:  cpu time    0.09: real time    0.09
    --------------------------------------------
      LOOP:  cpu time  247.55: real time  247.34

 eigenvalue-minimisations  :     0
 total energy-change (2. order) :-0.1236832E-01  (-0.2274241E-01)
 number of electron     112.0001446 magnetization 
 augmentation part       37.8265651 magnetization 

 Free energy of the ion-electron system (eV)
  ---------------------------------------------------
  alpha Z        PSCENC =       339.31929130
  Ewald energy   TEWEN  =     -9065.38210024
  -1/2 Hartree   DENC   =     -8141.36402621
  -exchange  EXHF       =       339.96080041
  -V(xc)+E(xc)   XCENC  =       371.89677391
  PAW double counting   =     15920.52570285   -16404.37795357
  entropy T*S    EENTRO =         0.00055318
  eigenvalues    EBANDS =     -1751.14290946
  atomic energy  EATOM  =     18320.98302006
  ---------------------------------------------------
  free energy    TOTEN  =       -69.58079583 eV

  energy without entropy =      -69.58134901  energy(sigma->0) =      -69.58098023


--------------------------------------------------------------------------------------------------------




----------------------------------------- Iteration    1(  13)  ---------------------------------------


    POTLOK:  cpu time    0.05: real time    0.05
    SETDIJ:  cpu time    1.98: real time    1.97
 
    SUBROT:  cpu time    0.73: real time    0.73
    SUBROT:  cpu time    0.36: real time    0.36
    SUBROT:  cpu time    0.36: real time    0.36
    SUBROT:  cpu time    0.35: real time    0.36
    --------------------------------------------
    SUBRT+:  cpu time    1.81: real time    1.84

 Broyden mixing:
  rms(total) = 0.55339E-03    rms(broyden)= 0.55328E-03
  rms(prec ) = 0.93976E-03
  weight for this iteration     100.00

 eigenvalues of (default mixing * dielectric matrix)
  average eigenvalue GAMMA=   1.6958
  2.4800  0.9967  1.6108
 
    TRIAL :  cpu time  244.21: real time  244.03
    CORREC:  cpu time    0.00: real time    0.00
    CHARGE:  cpu time    0.09: real time    0.09
    --------------------------------------------
      LOOP:  cpu time  246.33: real time  246.14

 eigenvalue-minimisations  :     0
 total energy-change (2. order) :-0.9614365E-02  (-0.5109010E-02)
 number of electron     112.0001447 magnetization 
 augmentation part       37.8304660 magnetization 

 Free energy of the ion-electron system (eV)
  ---------------------------------------------------
  alpha Z        PSCENC =       339.31929130
  Ewald energy   TEWEN  =     -9065.38210024
  -1/2 Hartree   DENC   =     -8151.21141365
  -exchange  EXHF       =       340.13266475
  -V(xc)+E(xc)   XCENC  =       372.12979784
  PAW double counting   =     15936.71141075   -16422.04854676
  entropy T*S    EENTRO =         0.00054197
  eigenvalues    EBANDS =     -1740.22508742
  atomic energy  EATOM  =     18320.98302006
  ---------------------------------------------------
  free energy    TOTEN  =       -69.59041020 eV

  energy without entropy =      -69.59095217  energy(sigma->0) =      -69.59059085


--------------------------------------------------------------------------------------------------------




----------------------------------------- Iteration    1(  14)  ---------------------------------------


    POTLOK:  cpu time    0.06: real time    0.06
    SETDIJ:  cpu time    1.98: real time    1.98
 
    SUBROT:  cpu time    0.88: real time    0.88
    SUBROT:  cpu time    0.36: real time    0.36
    SUBROT:  cpu time    0.36: real time    0.36
    SUBROT:  cpu time    0.36: real time    0.36
    --------------------------------------------
    SUBRT+:  cpu time    1.97: real time    1.99

 Broyden mixing:
  rms(total) = 0.67846E-04    rms(broyden)= 0.67832E-04
  rms(prec ) = 0.13907E-03
  weight for this iteration     100.00

 eigenvalues of (default mixing * dielectric matrix)
  average eigenvalue GAMMA=   1.6727
  2.5155  0.9911  1.5115
 
    TRIAL :  cpu time  244.39: real time  244.18
    CORREC:  cpu time    0.00: real time    0.00
    CHARGE:  cpu time    0.08: real time    0.08
    --------------------------------------------
      LOOP:  cpu time  246.51: real time  246.32

 eigenvalue-minimisations  :     0
 total energy-change (2. order) :-0.2447027E-02  (-0.3763131E-02)
 number of electron     112.0001446 magnetization 
 augmentation part       37.8129990 magnetization 

 Free energy of the ion-electron system (eV)
  ---------------------------------------------------
  alpha Z        PSCENC =       339.31929130
  Ewald energy   TEWEN  =     -9065.38210024
  -1/2 Hartree   DENC   =     -8151.75161039
  -exchange  EXHF       =       340.13102388
  -V(xc)+E(xc)   XCENC  =       372.13935872
  PAW double counting   =     15934.70723994   -16420.20627056
  entropy T*S    EENTRO =         0.00056054
  eigenvalues    EBANDS =     -1739.53335190
  atomic energy  EATOM  =     18320.98302006
  ---------------------------------------------------
  free energy    TOTEN  =       -69.59285722 eV

  energy without entropy =      -69.59341776  energy(sigma->0) =      -69.59304407


--------------------------------------------------------------------------------------------------------




----------------------------------------- Iteration    1(  15)  ---------------------------------------


    POTLOK:  cpu time    0.20: real time    0.20
    SETDIJ:  cpu time    1.97: real time    1.97
 
    SUBROT:  cpu time    0.73: real time    0.73
    SUBROT:  cpu time    0.36: real time    0.36
    SUBROT:  cpu time    0.36: real time    0.36
    SUBROT:  cpu time    0.47: real time    0.48
    --------------------------------------------
    SUBRT+:  cpu time    1.92: real time    1.96

 Broyden mixing:
  rms(total) = 0.19419E-03    rms(broyden)= 0.19413E-03
  rms(prec ) = 0.33160E-03
  weight for this iteration     100.00

 eigenvalues of (default mixing * dielectric matrix)
  average eigenvalue GAMMA=   1.6879
  2.4719  0.9898  1.6021
 
    TRIAL :  cpu time  239.93: real time  239.76
    CORREC:  cpu time    0.00: real time    0.00
    CHARGE:  cpu time    0.08: real time    0.08
    --------------------------------------------
      LOOP:  cpu time  242.19: real time  242.02

 eigenvalue-minimisations  :     0
 total energy-change (2. order) :-0.1498573E-02  (-0.1032158E-02)
 number of electron     112.0001446 magnetization 
 augmentation part       37.8173140 magnetization 

 Free energy of the ion-electron system (eV)
  ---------------------------------------------------
  alpha Z        PSCENC =       339.31929130
  Ewald energy   TEWEN  =     -9065.38210024
  -1/2 Hartree   DENC   =     -8147.06536833
  -exchange  EXHF       =       340.04233197
  -V(xc)+E(xc)   XCENC  =       372.02860152
  PAW double counting   =     15922.71526752   -16407.60479764
  entropy T*S    EENTRO =         0.00057347
  eigenvalues    EBANDS =     -1744.63116250
  atomic energy  EATOM  =     18320.98302006
  ---------------------------------------------------
  free energy    TOTEN  =       -69.59435580 eV

  energy without entropy =      -69.59492927  energy(sigma->0) =      -69.59454695


--------------------------------------------------------------------------------------------------------




----------------------------------------- Iteration    1(  16)  ---------------------------------------


    POTLOK:  cpu time    0.05: real time    0.05
    SETDIJ:  cpu time    2.03: real time    2.02
 
    SUBROT:  cpu time    0.73: real time    0.73
    SUBROT:  cpu time    0.35: real time    0.35
    SUBROT:  cpu time    0.36: real time    0.36
    SUBROT:  cpu time    0.36: real time    0.36
    --------------------------------------------
    SUBRT+:  cpu time    1.81: real time    1.82

 Broyden mixing:
  rms(total) = 0.82942E-04    rms(broyden)= 0.82924E-04
  rms(prec ) = 0.13888E-03
  weight for this iteration     100.00

 eigenvalues of (default mixing * dielectric matrix)
  average eigenvalue GAMMA=   1.6884
  2.4861  0.9902  1.5890
 
    TRIAL :  cpu time  257.14: real time  256.92
    CORREC:  cpu time    0.00: real time    0.00
    CHARGE:  cpu time    0.08: real time    0.08
    --------------------------------------------
      LOOP:  cpu time  259.30: real time  259.09

 eigenvalue-minimisations  :     0
 total energy-change (2. order) :-0.5669782E-03  (-0.4074184E-03)
 number of electron     112.0001446 magnetization 
 augmentation part       37.8221075 magnetization 

 Free energy of the ion-electron system (eV)
  ---------------------------------------------------
  alpha Z        PSCENC =       339.31929130
  Ewald energy   TEWEN  =     -9065.38210024
  -1/2 Hartree   DENC   =     -8148.18349022
  -exchange  EXHF       =       340.06089480
  -V(xc)+E(xc)   XCENC  =       372.05572323
  PAW double counting   =     15923.58452971   -16408.66150294
  entropy T*S    EENTRO =         0.00057404
  eigenvalues    EBANDS =     -1743.37186194
  atomic energy  EATOM  =     18320.98302006
  ---------------------------------------------------
  free energy    TOTEN  =       -69.59492278 eV

[...]
     22      -2.2897      2.00000
     23      -1.9525      2.00000
     24      -1.6190      2.00000
     25      -1.2163      2.00000
     26      -1.0059      2.00000
     27      -0.9750      2.00000
     28      -0.7135      2.00000
     29      -0.5490      2.00000
     30      -0.3891      2.00000
     31      -0.2846      2.00000
     32      -0.1984      2.00000
     33      -0.1805      2.00000
     34      -0.1403      2.00000
     35      -0.0196      2.00000
     36       0.0207      2.00000
     37       1.2970      2.00000
     38       1.3093      2.00000
     39       1.3689      2.00000
     40       1.4119      2.00000
     41       1.4537      2.00000
     42       1.4679      2.00000
     43       1.5077      2.00000
     44       1.5491      2.00000
     45       1.7646      2.00000
     46       1.8953      2.00000
     47       1.9828      2.00000
     48       2.1539      2.00000
     49       2.3716      2.00000
     50       2.5758      2.00000
     51       2.7037      2.00000
     52       2.9079      2.00000
     53       3.0112      2.00000
     54       3.2200      2.00000
     55       3.4014      2.00000
     56       3.6556      2.00000
     57       6.3805     -0.00000
     58       6.5234     -0.00000
     59       7.7238      0.00000
     60       7.9021      0.00000
     61       8.2951      0.00000
     62       8.5726      0.00000
     63       9.3257      0.00000
     64       9.8456      0.00000
     65      10.0206      0.00000
     66      10.3537      0.00000
     67      10.5865      0.00000
     68      10.7871      0.00000
     69      10.9786      0.00000
     70      11.2576      0.00000
     71      11.3059      0.00000
     72      11.6991      0.00000
     73      12.2529      0.00000
     74      12.4640      0.00000
     75      13.1010      0.00000
     76      13.4813      0.00000
     77      13.8153      0.00000
     78      14.6885      0.00000
     79      14.9969      0.00000
     80      15.7148      0.00000

 k-point  40 :       0.2500   -0.2500    0.4000
  band No.  band energies     occupation 
      1     -68.6449      2.00000
      2     -68.6370      2.00000
      3     -68.6358      2.00000
      4     -68.6339      2.00000
      5     -68.6129      2.00000
      6     -68.6049      2.00000
      7     -68.5957      2.00000
      8     -68.5876      2.00000
      9     -68.5820      2.00000
     10     -68.5781      2.00000
     11     -68.5654      2.00000
     12     -68.5612      2.00000
     13     -12.2222      2.00000
     14     -11.8212      2.00000
     15     -10.8219      2.00000
     16     -10.6714      2.00000
     17     -10.3522      2.00000
     18     -10.2796      2.00000
     19      -5.4454      2.00000
     20      -5.1166      2.00000
     21      -2.4310      2.00000
     22      -2.1543      2.00000
     23      -2.0179      2.00000
     24      -1.5261      2.00000
     25      -1.3546      2.00000
     26      -1.1659      2.00000
     27      -0.9352      2.00000
     28      -0.8132      2.00000
     29      -0.5819      2.00000
     30      -0.5365      2.00000
     31      -0.2811      2.00000
     32      -0.2366      2.00000
     33      -0.1349      2.00000
     34      -0.0900      2.00000
     35      -0.0213      2.00000
     36       0.0334      2.00000
     37       1.3145      2.00000
     38       1.3476      2.00000
     39       1.3645      2.00000
     40       1.3996      2.00000
     41       1.4507      2.00000
     42       1.4819      2.00000
     43       1.4990      2.00000
     44       1.5656      2.00000
     45       1.8010      2.00000
     46       1.8470      2.00000
     47       1.9604      2.00000
     48       2.1088      2.00000
     49       2.2959      2.00000
     50       2.5318      2.00000
     51       2.6387      2.00000
     52       2.7682      2.00000
     53       2.9280      2.00000
     54       3.1641      2.00000
     55       3.3014      2.00000
     56       3.5726      2.00000
     57       6.5654     -0.00000
     58       6.7225     -0.00000
     59       7.9671      0.00000
     60       8.0080      0.00000
     61       8.7302      0.00000
     62       9.0935      0.00000
     63       9.4579      0.00000
     64       9.8301      0.00000
     65      10.3017      0.00000
     66      10.3650      0.00000
     67      10.7772      0.00000
     68      10.8460      0.00000
     69      11.1156      0.00000
     70      11.2721      0.00000
     71      11.3683      0.00000
     72      11.6206      0.00000
     73      12.0468      0.00000
     74      12.2911      0.00000
     75      12.6511      0.00000
     76      13.1200      0.00000
     77      13.2783      0.00000
     78      14.2406      0.00000
     79      15.6348      0.00000
     80      15.8398      0.00000

 k-point  41 :       0.5000   -0.2500    0.4000
  band No.  band energies     occupation 
      1     -68.6448      2.00000
      2     -68.6368      2.00000
      3     -68.6357      2.00000
      4     -68.6337      2.00000
      5     -68.6129      2.00000
      6     -68.6049      2.00000
      7     -68.5955      2.00000
      8     -68.5874      2.00000
      9     -68.5820      2.00000
     10     -68.5781      2.00000
     11     -68.5653      2.00000
     12     -68.5612      2.00000
     13     -12.0817      2.00000
     14     -11.7784      2.00000
     15     -10.8479      2.00000
     16     -10.7583      2.00000
     17     -10.5356      2.00000
     18     -10.3181      2.00000
     19      -5.4176      2.00000
     20      -4.9399      2.00000
     21      -2.4009      2.00000
     22      -2.1326      2.00000
     23      -1.8638      2.00000
     24      -1.7235      2.00000
     25      -1.4476      2.00000
     26      -1.1222      2.00000
     27      -0.8839      2.00000
     28      -0.6461      2.00000
     29      -0.6006      2.00000
     30      -0.4522      2.00000
     31      -0.2581      2.00000
     32      -0.1829      2.00000
     33      -0.1201      2.00000
     34      -0.0545      2.00000
     35      -0.0188      2.00000
     36       0.0238      2.00000
     37       1.2629      2.00000
     38       1.3172      2.00000
     39       1.4112      2.00000
     40       1.4403      2.00000
     41       1.4845      2.00000
     42       1.4924      2.00000
     43       1.5140      2.00000
     44       1.5750      2.00000
     45       1.7606      2.00000
     46       1.8414      2.00000
     47       2.1177      2.00000
     48       2.1840      2.00000
     49       2.3667      2.00000
     50       2.4606      2.00000
     51       2.4921      2.00000
     52       2.6954      2.00000
     53       2.8229      2.00000
     54       3.0873      2.00000
     55       3.2913      2.00000
     56       3.5247      2.00000
     57       6.5038     -0.00000
     58       6.5856     -0.00000
     59       7.4570      0.00000
     60       7.7227      0.00000
     61       8.5891      0.00000
     62       8.7464      0.00000
     63       9.3045      0.00000
     64       9.5319      0.00000
     65       9.9521      0.00000
     66      10.1837      0.00000
     67      10.6784      0.00000
     68      11.1110      0.00000
     69      11.2538      0.00000
     70      11.5697      0.00000
     71      11.7063      0.00000
     72      11.8933      0.00000
     73      12.3011      0.00000
     74      12.6616      0.00000
     75      13.0089      0.00000
     76      13.2296      0.00000
     77      13.6661      0.00000
     78      14.0646      0.00000
     79      14.3969      0.00000
     80      16.5118      0.00000

 k-point  42 :      -0.2500   -0.2500    0.4000
  band No.  band energies     occupation 
      1     -68.6450      2.00000
      2     -68.6369      2.00000
      3     -68.6357      2.00000
      4     -68.6337      2.00000
      5     -68.6129      2.00000
      6     -68.6050      2.00000
      7     -68.5955      2.00000
      8     -68.5874      2.00000
      9     -68.5820      2.00000
     10     -68.5781      2.00000
     11     -68.5655      2.00000
     12     -68.5613      2.00000
     13     -12.1809      2.00000
     14     -11.7084      2.00000
     15     -10.7185      2.00000
     16     -10.6940      2.00000
     17     -10.5885      2.00000
     18     -10.3928      2.00000
     19      -5.4450      2.00000
     20      -5.0724      2.00000
     21      -2.5077      2.00000
     22      -2.3822      2.00000
     23      -1.9654      2.00000
     24      -1.3661      2.00000
     25      -1.3329      2.00000
     26      -1.0562      2.00000
     27      -0.8327      2.00000
     28      -0.7669      2.00000
     29      -0.4222      2.00000
     30      -0.3359      2.00000
     31      -0.2706      2.00000
     32      -0.2099      2.00000
     33      -0.1421      2.00000
     34      -0.1362      2.00000
     35      -0.0118      2.00000
     36       0.0283      2.00000
     37       1.1745      2.00000
     38       1.3720      2.00000
     39       1.3981      2.00000
     40       1.4533      2.00000
     41       1.4564      2.00000
     42       1.4986      2.00000
     43       1.5175      2.00000
     44       1.5524      2.00000
     45       1.7434      2.00000
     46       1.8222      2.00000
     47       1.9769      2.00000
     48       2.2292      2.00000
     49       2.3970      2.00000
     50       2.6094      2.00000
     51       2.6549      2.00000
     52       2.9141      2.00000
     53       3.0696      2.00000
     54       3.1149      2.00000
     55       3.2870      2.00000
     56       3.5826      2.00000
     57       6.2957     -0.00000
     58       6.3814     -0.00000
     59       7.3626      0.00000
     60       7.5232      0.00000
     61       8.3093      0.00000
     62       8.3360      0.00000
     63       9.1029      0.00000
     64       9.3588      0.00000
     65       9.7168      0.00000
     66       9.9502      0.00000
     67      10.5264      0.00000
     68      10.9877      0.00000
     69      11.4255      0.00000
     70      11.5673      0.00000
     71      12.0226      0.00000
     72      12.2775      0.00000
     73      12.4285      0.00000
     74      12.4735      0.00000
     75      13.0339      0.00000
     76      13.1558      0.00000
     77      14.1416      0.00000
     78      14.4320      0.00000
     79      15.1601      0.00000
     80      15.8618      0.00000


--------------------------------------------------------------------------------------------------------


 soft charge-density along one line, spin component           1
         0         1         2         3         4         5         6         7         8         9
 total charge-density along one line
 
 pseudopotential strength for first ion, spin component:           1
-65.423   0.002   0.006   7.363   0.000  -0.003   0.001   0.007
  0.002 -65.393  -0.005   0.000   7.353   0.001  -0.001  -0.024
  0.006  -0.005 -65.384  -0.003   0.001   7.349  -0.037  -0.001
  7.363   0.000  -0.003   6.111   0.000   0.001   0.002  -0.003
  0.000   7.353   0.001   0.000   6.113  -0.000   0.000   0.007
 -0.003   0.001   7.349   0.001  -0.000   6.114   0.009   0.000
  0.001  -0.001  -0.037   0.002   0.000   0.009  -2.979  -0.003
  0.007  -0.024  -0.001  -0.003   0.007   0.000  -0.003  -2.984
  0.022   0.043   0.009  -0.005  -0.008  -0.003  -0.003   0.008
 -0.001  -0.017   0.007   0.000   0.005  -0.003   0.004   0.007
  0.025   0.000  -0.034  -0.007  -0.000   0.007  -0.000   0.007
  0.001  -0.001  -0.036   0.002   0.000   0.008  -3.626  -0.003
  0.007  -0.023  -0.001  -0.003   0.007   0.000  -0.003  -3.631
  0.022   0.042   0.009  -0.005  -0.008  -0.002  -0.003   0.008
 -0.001  -0.017   0.007   0.000   0.004  -0.003   0.004   0.007
  0.025   0.000  -0.034  -0.007  -0.000   0.006  -0.000   0.007
  0.007  -0.005   0.004  -0.001   0.001  -0.001  -0.002   0.000
  0.015  -0.010   0.009  -0.002   0.001  -0.002  -0.003   0.001
 total augmentation occupancy for first ion, spin component:           1
  2.000  -0.000   0.000  -0.003  -0.000   0.000   0.007  -0.005   0.001  -0.001  -0.005  -0.007   0.005  -0.001   0.001   0.004
 -0.000   2.000  -0.000  -0.000  -0.003   0.000  -0.001   0.005   0.004   0.001   0.000   0.001  -0.005  -0.005  -0.001  -0.000
  0.000  -0.000   2.000   0.000   0.000  -0.003  -0.000  -0.000  -0.001  -0.005  -0.004   0.001   0.000   0.001   0.005   0.005
 -0.003  -0.000   0.000   0.095   0.006  -0.005  -0.334   0.233  -0.074   0.011   0.017   0.281  -0.197   0.058  -0.007  -0.011
 -0.000  -0.003   0.000   0.006   0.102   0.001   0.020  -0.048  -0.445   0.015   0.011  -0.013   0.037   0.377  -0.011  -0.009
  0.000   0.000  -0.003  -0.005   0.001   0.099   0.098  -0.002  -0.014   0.236   0.354  -0.077   0.001   0.011  -0.202  -0.297
  0.007  -0.001  -0.000  -0.334   0.020   0.098   4.008  -0.793   0.097   0.216   0.147  -1.736   0.744  -0.089  -0.182  -0.142
 -0.005   0.005  -0.000   0.233  -0.048  -0.002  -0.793   3.511   0.292   0.158   0.297   0.743  -1.270  -0.215  -0.114  -0.206
  0.001   0.004  -0.001  -0.074  -0.445  -0.014   0.097   0.292   4.691  -0.041  -0.116  -0.089  -0.216  -2.400   0.035   0.086
 -0.001   0.001  -0.005   0.011   0.015   0.236   0.216   0.158  -0.041   3.635   0.798  -0.182  -0.114   0.035  -1.354  -0.759
 -0.005   0.000  -0.004   0.017   0.011   0.354   0.147   0.297  -0.116   0.798   3.995  -0.142  -0.206   0.086  -0.760  -1.741
 -0.007   0.001   0.001   0.281  -0.013  -0.077  -1.736   0.743  -0.089  -0.182  -0.142   1.442  -0.696   0.082   0.154   0.136
  0.005  -0.005   0.000  -0.197   0.037   0.001   0.744  -1.270  -0.216  -0.114  -0.206  -0.696   1.006   0.154   0.079   0.132
 -0.001  -0.005   0.001   0.058   0.377   0.011  -0.089  -0.215  -2.400   0.035   0.086   0.082   0.154   2.083  -0.029  -0.062
  0.001  -0.001   0.005  -0.007  -0.011  -0.202  -0.182  -0.114   0.035  -1.354  -0.760   0.154   0.079  -0.029   1.059   0.721
  0.004  -0.000   0.005  -0.011  -0.009  -0.297  -0.142  -0.206   0.086  -0.759  -1.741   0.136   0.132  -0.062   0.721   1.461
 -0.024   0.016  -0.013  -0.020   0.011  -0.006   0.080  -0.100  -0.023  -0.006   0.025  -0.063   0.088   0.035   0.006   0.005
  0.012  -0.008   0.006   0.001  -0.000  -0.000  -0.008   0.003  -0.004   0.004  -0.019   0.004  -0.005  -0.002  -0.001   0.003


------------------------ aborting loop because EDIFF is reached ----------------------------------------


    FORLOC:  cpu time    0.01: real time    0.01
    FORHF :  cpu time  502.44: real time  502.03
    FORNL :  cpu time    0.40: real time    0.40
    FORCOR:  cpu time    2.07: real time    2.07

 VOLUME and BASIS-vectors are now :
 -----------------------------------------------------------------------------
  energy-cutoff  :      400.00
  volume of cell :      221.90
      direct lattice vectors                 reciprocal lattice vectors
     3.224796000 -5.643830000  0.031572000     0.154525165 -0.088592321  0.053460880
     3.224796000  5.643830000  0.031572000     0.154525165  0.088592321  0.053460880
    -2.101946000  0.000000000  6.075537000    -0.001606004  0.000000000  0.164038877

  length of vectors
     6.500240234  6.500240234  6.428866683     0.185969598  0.185969598  0.164046738


 FORCES acting on ions:
    Electron-Ion                     Ewald-Force                    Non-Local-Force
 -----------------------------------------------------------------------------------------------
   -.145E+02 -.974E+02 0.115E+02   0.133E+02 0.950E+02 -.992E+01   0.102E+01 0.211E+01 -.141E+01
   -.157E+02 0.950E+02 0.125E+02   0.144E+02 -.927E+02 -.109E+02   0.109E+01 -.202E+01 -.144E+01
   0.259E+02 -.160E+02 0.442E+01   -.226E+02 0.158E+02 -.318E+01   -.285E+01 0.151E+00 -.108E+01
   0.268E+02 0.161E+02 0.391E+01   -.235E+02 -.159E+02 -.263E+01   -.286E+01 -.153E+00 -.111E+01
   -.113E+02 -.313E+02 -.113E+02   0.106E+02 0.299E+02 0.101E+02   0.733E+00 0.133E+01 0.115E+01
   -.110E+02 0.315E+02 -.112E+02   0.103E+02 -.301E+02 0.101E+02   0.684E+00 -.134E+01 0.113E+01
   -.135E+03 -.748E+01 -.496E+02   0.132E+03 0.752E+01 0.487E+02   0.271E+01 -.930E-01 0.724E+00
   0.702E+02 -.126E+03 0.961E+02   -.685E+02 0.123E+03 -.940E+02   -.155E+01 0.230E+01 -.187E+01
   0.665E+02 -.133E+03 -.498E+02   -.650E+02 0.130E+03 0.488E+02   -.135E+01 0.220E+01 0.872E+00
   0.701E+02 0.126E+03 0.962E+02   -.684E+02 -.123E+03 -.941E+02   -.154E+01 -.228E+01 -.187E+01
   -.135E+03 0.983E+01 -.491E+02   0.132E+03 -.987E+01 0.483E+02   0.279E+01 0.365E-01 0.729E+00
   0.666E+02 0.133E+03 -.497E+02   -.651E+02 -.130E+03 0.487E+02   -.136E+01 -.217E+01 0.872E+00
 -----------------------------------------------------------------------------------------------
   0.273E+01 -.494E-01 0.375E+01   -.142E-13 -.853E-13 -.497E-13   -.249E+01 0.624E-01 -.332E+01
 
 
 POSITION                                       TOTAL-FORCE (eV/Angst)
 -----------------------------------------------------------------------------------
      2.13385     -2.80652      0.74958        -0.001974     -0.001520      0.000500
      1.08288      2.80652      3.78735         0.009690      0.024475     -0.010681
      5.40423     -0.97432      0.77721         0.003096     -0.002117     -0.001987
      4.35326      0.97432      3.81498        -0.004653      0.015871      0.007595
      1.02081     -0.97328      3.66185         0.051632      0.011273      0.015520
      2.07178      0.97328      0.62409        -0.000650     -0.008424      0.001810
      2.15586      4.70535      3.05309        -0.069404     -0.069230     -0.011182
      1.11215     -0.89759      5.98620         0.001299     -0.006899      0.003730
      2.14287     -2.74882      3.03886        -0.000307      0.013186     -0.001034
      2.16313      0.89759      2.94844         0.009533      0.017274      0.000198
      1.09993     -4.69667      6.09081         0.002494      0.003004     -0.003083
      1.09189      2.74882      6.07662        -0.000756      0.003108     -0.001388
 -----------------------------------------------------------------------------------
    total drift:                               -0.058989     -0.001131     -0.054070


--------------------------------------------------------------------------------------------------------



  FREE ENERGIE OF THE ION-ELECTRON SYSTEM (eV)
  ---------------------------------------------------
  free  energy   TOTEN  =       -69.59526658 eV

  energy  without entropy=      -69.59583423  energy(sigma->0) =      -69.59545580
 


--------------------------------------------------------------------------------------------------------


    POTLOK:  cpu time    2.10: real time    2.12


--------------------------------------------------------------------------------------------------------


 writing wavefunctions
     LOOP+:  cpu time 5742.51: real time 5740.93
    4ORBIT:  cpu time    0.00: real time    0.00

 total amount of memory used by VASP on root node   155701. kBytes
========================================================================

   base      :      30000. kBytes
   nonl-proj :      74517. kBytes
   fftplans  :        702. kBytes
   grid      :       2400. kBytes
   one-center:        186. kBytes
   HF        :        194. kBytes
   nonlr-proj:       5126. kBytes
   wavefun   :      42576. kBytes
 
  
  
 General timing and accounting informations for this job:
 ========================================================
  
                  Total CPU time used (sec):     5778.875
                            User time (sec):     5777.814
                          System time (sec):        1.062
                         Elapsed time (sec):     5778.289
  
                   Maximum memory used (kb):      298680.
                   Average memory used (kb):           0.
  
                          Minor page faults:        78908
                          Major page faults:            1
                 Voluntary context switches:         3791
