<?xml version="1.0" encoding="ISO-8859-1"?>
<modeling>
 <generator>
  <i name="program" type="string">vasp </i>
  <i name="version" type="string">5.3.3  </i>
  <i name="subversion" type="string">18Dez12 (build Nov 13 2015 09:58:40) complex                          parallel </i>
  <i name="platform" type="string">LinuxIFC </i>
  <i name="date" type="string">2017 10 18 </i>
  <i name="time" type="string">13:08:59 </i>
 </generator>
 <incar>
  <i type="string" name="SYSTEM"> CGS</i>
  <i type="string" name="PREC">normal</i>
  <i type="string" name="ALGO"> D</i>
  <i type="logical" name="LDIAG"> T  </i>
  <i name="EDIFF">      0.00001000</i>
  <i name="ENCUT">    400.00000000</i>
  <i name="TIME">      0.40000000</i>
  <i type="int" name="ISMEAR">     1</i>
  <i name="SIGMA">      0.10000000</i>
  <i type="logical" name="LHFCALC"> T  </i>
  <i type="string" name="GGA"> PE</i>
  <i name="HFSCREEN">      0.20000000</i>
  <i name="AEXX">      0.25000000</i>
  <i type="string" name="PRECFOCK">fast</i>
 </incar>
 <kpoints>
  <generation param="Gamma">
   <v type="int" name="divisions">       4        4        5 </v>
   <v name="usershift">      0.00000000       0.00000000       0.00000000 </v>
   <v name="genvec1">      0.25000000       0.00000000       0.00000000 </v>
   <v name="genvec2">      0.00000000       0.25000000       0.00000000 </v>
   <v name="genvec3">      0.00000000       0.00000000       0.20000000 </v>
   <v name="shift">      0.00000000       0.00000000       0.00000000 </v>
  </generation>
  <varray name="kpointlist" >
   <v>       0.00000000       0.00000000       0.00000000 </v>
   <v>       0.25000000       0.00000000       0.00000000 </v>
   <v>       0.50000000       0.00000000       0.00000000 </v>
   <v>       0.00000000       0.25000000       0.00000000 </v>
   <v>       0.25000000       0.25000000       0.00000000 </v>
   <v>       0.50000000       0.25000000      -0.00000000 </v>
   <v>      -0.25000000       0.25000000       0.00000000 </v>
   <v>       0.00000000       0.50000000       0.00000000 </v>
   <v>       0.25000000       0.50000000      -0.00000000 </v>
   <v>       0.50000000       0.50000000       0.00000000 </v>
   <v>      -0.00000000      -0.00000000       0.20000000 </v>
   <v>       0.25000000       0.00000000       0.20000000 </v>
   <v>       0.50000000       0.00000000       0.20000000 </v>
   <v>      -0.25000000      -0.00000000       0.20000000 </v>
   <v>       0.00000000       0.25000000       0.20000000 </v>
   <v>       0.25000000       0.25000000       0.20000000 </v>
   <v>       0.50000000       0.25000000       0.20000000 </v>
   <v>      -0.25000000       0.25000000       0.20000000 </v>
   <v>       0.00000000       0.50000000       0.20000000 </v>
   <v>       0.25000000       0.50000000       0.20000000 </v>
   <v>       0.50000000       0.50000000       0.20000000 </v>
   <v>      -0.25000000       0.50000000       0.20000000 </v>
   <v>      -0.00000000      -0.25000000       0.20000000 </v>
   <v>       0.25000000      -0.25000000       0.20000000 </v>
   <v>       0.50000000      -0.25000000       0.20000000 </v>
   <v>      -0.25000000      -0.25000000       0.20000000 </v>
   <v>      -0.00000000      -0.00000000       0.40000000 </v>
   <v>       0.25000000       0.00000000       0.40000000 </v>
   <v>       0.50000000       0.00000000       0.40000000 </v>
   <v>      -0.25000000       0.00000000       0.40000000 </v>
   <v>       0.00000000       0.25000000       0.40000000 </v>
   <v>       0.25000000       0.25000000       0.40000000 </v>
   <v>       0.50000000       0.25000000       0.40000000 </v>
   <v>      -0.25000000       0.25000000       0.40000000 </v>
   <v>       0.00000000       0.50000000       0.40000000 </v>
   <v>       0.25000000       0.50000000       0.40000000 </v>
   <v>       0.50000000       0.50000000       0.40000000 </v>
   <v>      -0.25000000       0.50000000       0.40000000 </v>
   <v>       0.00000000      -0.25000000       0.40000000 </v>
   <v>       0.25000000      -0.25000000       0.40000000 </v>
   <v>       0.50000000      -0.25000000       0.40000000 </v>
   <v>      -0.25000000      -0.25000000       0.40000000 </v>
  </varray>
  <varray name="weights" >
   <v>       0.01250000 </v>
   <v>       0.02500000 </v>
   <v>       0.01250000 </v>
   <v>       0.02500000 </v>
   <v>       0.02500000 </v>
   <v>       0.02500000 </v>
   <v>       0.02500000 </v>
   <v>       0.01250000 </v>
   <v>       0.02500000 </v>
   <v>       0.01250000 </v>
   <v>       0.02500000 </v>
   <v>       0.02500000 </v>
   <v>       0.02500000 </v>
   <v>       0.02500000 </v>
   <v>       0.02500000 </v>
   <v>       0.02500000 </v>
   <v>       0.02500000 </v>
   <v>       0.02500000 </v>
   <v>       0.02500000 </v>
   <v>       0.02500000 </v>
   <v>       0.02500000 </v>
   <v>       0.02500000 </v>
   <v>       0.02500000 </v>
   <v>       0.02500000 </v>
   <v>       0.02500000 </v>
   <v>       0.02500000 </v>
   <v>       0.02500000 </v>
   <v>       0.02500000 </v>
   <v>       0.02500000 </v>
   <v>       0.02500000 </v>
   <v>       0.02500000 </v>
   <v>       0.02500000 </v>
   <v>       0.02500000 </v>
   <v>       0.02500000 </v>
   <v>       0.02500000 </v>
   <v>       0.02500000 </v>
   <v>       0.02500000 </v>
   <v>       0.02500000 </v>
   <v>       0.02500000 </v>
   <v>       0.02500000 </v>
   <v>       0.02500000 </v>
   <v>       0.02500000 </v>
  </varray>
 </kpoints>
 <parameters>
  <separator name="general" >
   <i type="string" name="SYSTEM">CGS</i>
   <i type="logical" name="LCOMPAT"> F  </i>
  </separator>
  <separator name="electronic" >
   <i type="string" name="PREC">normal</i>
   <i name="ENMAX">    400.00000000</i>
   <i name="ENAUG">    758.23300000</i>
   <i name="EDIFF">      0.00001000</i>
   <i type="int" name="IALGO">    53</i>
   <i type="int" name="IWAVPR">    10</i>
   <i type="int" name="NBANDS">    80</i>
   <i name="NELECT">    112.00000000</i>
   <i type="int" name="TURBO">     0</i>
   <i type="int" name="IRESTART">     0</i>
   <i type="int" name="NREBOOT">     0</i>
   <i type="int" name="NMIN">     0</i>
   <i name="EREF">      0.00000000</i>
   <separator name="electronic smearing" >
    <i type="int" name="ISMEAR">     1</i>
    <i name="SIGMA">      0.10000000</i>
    <i name="KSPACING">      0.50000000</i>
    <i type="logical" name="KGAMMA"> T  </i>
   </separator>
   <separator name="electronic projectors" >
    <i type="logical" name="LREAL"> F  </i>
    <v name="ROPT">      0.00000000      0.00000000      0.00000000</v>
    <i type="int" name="LMAXPAW">  -100</i>
    <i type="int" name="LMAXMIX">     2</i>
    <i type="logical" name="NLSPLINE"> F  </i>
   </separator>
   <separator name="electronic startup" >
    <i type="int" name="ISTART">     1</i>
    <i type="int" name="ICHARG">     0</i>
    <i type="int" name="INIWAV">     1</i>
   </separator>
   <separator name="electronic spin" >
    <i type="int" name="ISPIN">     1</i>
    <i type="logical" name="LNONCOLLINEAR"> F  </i>
    <v name="MAGMOM">      1.00000000      1.00000000      1.00000000      1.00000000      1.00000000      1.00000000      1.00000000      1.00000000      1.00000000      1.00000000      1.00000000      1.00000000</v>
    <i name="NUPDOWN">     -1.00000000</i>
    <i type="logical" name="LSORBIT"> F  </i>
    <v name="SAXIS">      0.00000000      0.00000000      1.00000000</v>
    <i type="logical" name="LSPIRAL"> F  </i>
    <v name="QSPIRAL">      0.00000000      0.00000000      0.00000000</v>
    <i type="logical" name="LZEROZ"> F  </i>
   </separator>
   <separator name="electronic exchange-correlation" >
    <i type="logical" name="LASPH"> F  </i>
    <i type="logical" name="LMETAGGA"> F  </i>
   </separator>
   <separator name="electronic convergence" >
    <i type="int" name="NELM">    60</i>
    <i type="int" name="NELMDL">     0</i>
    <i type="int" name="NELMIN">     2</i>
    <i name="ENINI">    400.00000000</i>
    <separator name="electronic convergence detail" >
     <i type="logical" name="LDIAG"> T  </i>
     <i type="logical" name="LSUBROT"> T  </i>
     <i name="WEIMIN">      0.00000000</i>
     <i name="EBREAK">      0.00000003</i>
     <i name="DEPER">      0.30000000</i>
     <i type="int" name="NRMM">     4</i>
     <i name="TIME">      0.40000000</i>
    </separator>
   </separator>
   <separator name="electronic mixer" >
    <i name="AMIX">      0.40000000</i>
    <i name="BMIX">      1.00000000</i>
    <i name="AMIN">      0.10000000</i>
    <i name="AMIX_MAG">      1.60000000</i>
    <i name="BMIX_MAG">      1.00000000</i>
    <separator name="electronic mixer details" >
     <i type="int" name="IMIX">     4</i>
     <i type="int" name="MAXMIX">   -45</i>
     <i name="WC">    100.00000000</i>
     <i type="int" name="INIMIX">     1</i>
     <i type="int" name="MIXPRE">     1</i>
     <i type="int" name="MREMOVE">     5</i>
    </separator>
   </separator>
   <separator name="electronic dipolcorrection" >
    <i type="logical" name="LDIPOL"> F  </i>
    <i type="logical" name="LMONO"> F  </i>
    <i type="int" name="IDIPOL">     0</i>
    <i name="EPSILON">      1.00000000</i>
    <v name="DIPOL">   -100.00000000   -100.00000000   -100.00000000</v>
    <i name="EFIELD">      0.00000000</i>
   </separator>
  </separator>
  <separator name="grids" >
   <i type="int" name="NGX">    32</i>
   <i type="int" name="NGY">    32</i>
   <i type="int" name="NGZ">    32</i>
   <i type="int" name="NGXF">    64</i>
   <i type="int" name="NGYF">    64</i>
   <i type="int" name="NGZF">    64</i>
   <i type="logical" name="ADDGRID"> F  </i>
  </separator>
  <separator name="ionic" >
   <i type="int" name="NSW">     0</i>
   <i type="int" name="IBRION">    -1</i>
   <i type="int" name="ISIF">     0</i>
   <i name="PSTRESS">      0.00000000</i>
   <i name="EDIFFG">      0.00010000</i>
   <i type="int" name="NFREE">     0</i>
   <i name="POTIM">      0.50000000</i>
   <i name="SMASS">     -3.00000000</i>
   <i name="SCALEE">      1.00000000</i>
  </separator>
  <separator name="ionic md" >
   <i name="TEBEG">      0.00010000</i>
   <i name="TEEND">      0.00010000</i>
   <i type="int" name="NBLOCK">     1</i>
   <i type="int" name="KBLOCK">     1</i>
   <i type="int" name="NPACO">   256</i>
   <i name="APACO">     16.00000000</i>
  </separator>
  <separator name="symmetry" >
   <i type="int" name="ISYM">     3</i>
   <i name="SYMPREC">      0.00001000</i>
  </separator>
  <separator name="dos" >
   <i type="logical" name="LORBIT"> F  </i>
   <v name="RWIGS">     -1.00000000     -1.00000000     -1.00000000</v>
   <i type="int" name="NEDOS">   301</i>
   <i name="EMIN">     10.00000000</i>
   <i name="EMAX">    -10.00000000</i>
   <i name="EFERMI">      0.00000000</i>
  </separator>
  <separator name="writing" >
   <i type="int" name="NWRITE">     2</i>
   <i type="logical" name="LWAVE"> T  </i>
   <i type="logical" name="LCHARG"> T  </i>
   <i type="logical" name="LPARD"> F  </i>
   <i type="logical" name="LVTOT"> F  </i>
   <i type="logical" name="LVHAR"> F  </i>
   <i type="logical" name="LELF"> F  </i>
   <i type="logical" name="LOPTICS"> F  </i>
   <v name="STM">      0.00000000      0.00000000      0.00000000      0.00000000      0.00000000      0.00000000      0.00000000</v>
  </separator>
  <separator name="performance" >
   <i type="int" name="NPAR">    16</i>
   <i type="int" name="NSIM">     4</i>
   <i type="int" name="NBLK">    -1</i>
   <i type="logical" name="LPLANE"> T  </i>
   <i type="logical" name="LSCALAPACK"> T  </i>
   <i type="logical" name="LSCAAWARE"> F  </i>
   <i type="logical" name="LSCALU"> F  </i>
   <i type="logical" name="LASYNC"> F  </i>
   <i type="logical" name="LORBITALREAL"> F  </i>
  </separator>
  <separator name="miscellaneous" >
   <i type="int" name="IDIOT">     3</i>
   <i type="logical" name="LMUSIC"> F  </i>
   <v name="POMASS">     63.54600000     72.61000000     32.06600000</v>
   <v name="DARWINR">      0.00000000      0.00000000      0.00000000</v>
   <v name="DARWINV">      1.00000000      1.00000000      1.00000000</v>
   <i type="logical" name="LCORR"> T  </i>
  </separator>
  <i type="logical" name="GGA_COMPAT"> T  </i>
  <i type="logical" name="LBERRY"> F  </i>
  <i type="int" name="ICORELEVEL">     0</i>
  <i type="logical" name="LDAU"> F  </i>
  <i type="int" name="I_CONSTRAINED_M">     0</i>
  <separator name="electronic exchange-correlation" >
   <i type="string" name="GGA">PE</i>
   <i type="int" name="VOSKOWN">     0</i>
   <i type="logical" name="LHFCALC"> T  </i>
   <i type="string" name="PRECFOCK">fast</i>
   <i type="logical" name="LSYMGRAD"> F  </i>
   <i type="logical" name="LHFONE"> F  </i>
   <i type="logical" name="LRHFCALC"> F  </i>
   <i type="logical" name="LTHOMAS"> F  </i>
   <i type="logical" name="LMODELHF"> F  </i>
   <i name="ENCUT4O">     -1.00000000</i>
   <i type="int" name="EXXOEP">     0</i>
   <i type="int" name="FOURORBIT">     0</i>
   <i name="AEXX">      0.25000000</i>
   <i name="HFALPHA">     -1.00000000</i>
   <i name="MCALPHA">      0.00000000</i>
   <i name="ALDAX">      0.75000000</i>
   <i name="AGGAX">      0.75000000</i>
   <i name="ALDAC">      1.00000000</i>
   <i name="AGGAC">      1.00000000</i>
   <i type="int" name="NKREDX">     1</i>
   <i type="int" name="NKREDY">     1</i>
   <i type="int" name="NKREDZ">     1</i>
   <i type="logical" name="SHIFTRED"> F  </i>
   <i type="logical" name="ODDONLY"> F  </i>
   <i type="logical" name="EVENONLY"> F  </i>
   <i type="int" name="LMAXFOCK">     4</i>
   <i type="int" name="NMAXFOCKAE">     1</i>
   <i type="logical" name="LFOCKAEDFT"> F  </i>
   <i name="HFSCREEN">      0.20000000</i>
   <i name="HFSCREENC">      0.20000000</i>
   <i type="int" name="NBANDSGWLOW">     1</i>
  </separator>
  <separator name="vdW DFT" >
   <i type="logical" name="LUSE_VDW"> F  </i>
   <i name="Zab_VDW">     -0.84910000</i>
   <i name="PARAM1">      0.12340000</i>
   <i name="PARAM2">      1.00000000</i>
   <i name="PARAM3">      0.00000000</i>
  </separator>
  <separator name="model GW" >
   <i type="int" name="MODEL_GW">     0</i>
   <i name="MODEL_EPS0">     11.09505304</i>
   <i name="MODEL_ALPHA">      1.00000000</i>
  </separator>
  <separator name="linear response parameters" >
   <i type="logical" name="LEPSILON"> F  </i>
   <i type="logical" name="LRPA"> F  </i>
   <i type="logical" name="LNABLA"> F  </i>
   <i type="logical" name="LVEL"> F  </i>
   <i type="int" name="KINTER">     0</i>
   <i name="CSHIFT">      0.10000000</i>
   <i name="OMEGAMAX">     -1.00000000</i>
   <i name="DEG_THRESHOLD">      0.00200000</i>
  </separator>
  <separator name="orbital magnetization" >
   <i type="logical" name="NUCIND"> F  </i>
   <v name="MAGPOS">      0.00000000      0.00000000      0.00000000</v>
   <i type="logical" name="LNICSALL"> T  </i>
   <i type="logical" name="ORBITALMAG"> F  </i>
   <i type="logical" name="LMAGBLOCH"> F  </i>
   <i type="logical" name="LCHIMAG"> F  </i>
   <i type="logical" name="LGAUGE"> T  </i>
   <i type="int" name="MAGATOM">     0</i>
   <v name="MAGDIPOL">      0.00000000      0.00000000      0.00000000</v>
   <v name="AVECCONST">      0.00000000      0.00000000      0.00000000</v>
  </separator>
  <separator name="response functions" >
   <i type="logical" name="LADDER"> F  </i>
   <i type="logical" name="LFXC"> F  </i>
   <i type="logical" name="LHARTREE"> T  </i>
   <i type="int" name="IBSE">     0</i>
   <i type="logical" name="LTCTE"> F  </i>
   <i type="logical" name="LTETE"> F  </i>
   <i type="logical" name="LTRIPLET"> F  </i>
   <i type="logical" name="LFXCEPS"> F  </i>
   <i type="logical" name="L2ORDER"> F  </i>
   <i type="logical" name="LUSEW"> F  </i>
   <i name="ENCUTGW">     -2.00000000</i>
   <i name="ENCUTGWSOFT">     -2.00000000</i>
   <i name="ENCUTLF">     -1.00000000</i>
   <i type="int" name="LMAXMP2">    -1</i>
   <i name="SCISSOR">      0.00000000</i>
   <i type="int" name="NOMEGA">     0</i>
   <i type="int" name="NOMEGAR">     0</i>
   <i type="int" name="NBANDSGW">    -1</i>
   <i type="int" name="NBANDSO">    -1</i>
   <i type="int" name="NBANDSV">    -1</i>
   <i type="int" name="NELM">     1</i>
   <i type="int" name="DIM">     3</i>
   <i type="int" name="ANTIRES">     0</i>
   <i name="OMEGAMAX">    -30.00000000</i>
   <i name="OMEGATL">   -200.00000000</i>
   <i type="int" name="OMEGAGRID">     0</i>
   <i name="CSHIFT">     -0.10000000</i>
   <i type="logical" name="SELFENERGY"> F  </i>
   <i type="logical" name="LSPECTRAL"> F  </i>
   <i type="logical" name="ODDONLYGW"> F  </i>
   <i type="logical" name="EVENONLYGW"> F  </i>
   <i type="int" name="NKREDLFX">     1</i>
   <i type="int" name="NKREDLFY">     1</i>
   <i type="int" name="NKREDLFZ">     1</i>
   <i type="int" name="MAXMEM">  1800</i>
   <i type="int" name="TELESCOPE">     0</i>
  </separator>
 </parameters>
 <atominfo>
  <atoms>      12 </atoms>
  <types>       3 </types>
  <array name="atoms" >
   <dimension dim="1">ion</dimension>
   <field type="string">element</field>
   <field type="int">atomtype</field>
   <set>
    <rc><c>Cu</c><c>   1</c></rc>
    <rc><c>Cu</c><c>   1</c></rc>
    <rc><c>Cu</c><c>   1</c></rc>
    <rc><c>Cu</c><c>   1</c></rc>
    <rc><c>Ge</c><c>   2</c></rc>
    <rc><c>Ge</c><c>   2</c></rc>
    <rc><c>S </c><c>   3</c></rc>
    <rc><c>S </c><c>   3</c></rc>
    <rc><c>S </c><c>   3</c></rc>
    <rc><c>S </c><c>   3</c></rc>
    <rc><c>S </c><c>   3</c></rc>
    <rc><c>S </c><c>   3</c></rc>
   </set>
  </array>
  <array name="atomtypes" >
   <dimension dim="1">type</dimension>
   <field type="int">atomspertype</field>
   <field type="string">element</field>
   <field>mass</field>
   <field>valence</field>
   <field type="string">pseudopotential</field>
   <set>
    <rc><c>   4</c><c>Cu</c><c>     63.54600000</c><c>     17.00000000</c><c>  PAW_PBE Cu_pv 06Sep2000               </c></rc>
    <rc><c>   2</c><c>Ge</c><c>     72.61000000</c><c>      4.00000000</c><c>  PAW_PBE Ge 05Jan2001                  </c></rc>
    <rc><c>   6</c><c>S </c><c>     32.06600000</c><c>      6.00000000</c><c>  PAW_PBE S 17Jan2003                   </c></rc>
   </set>
  </array>
 </atominfo>
 <structure name="initialpos" >
  <crystal>
   <varray name="basis" >
    <v>       3.22479600      -5.64383000       0.03157200 </v>
    <v>       3.22479600       5.64383000       0.03157200 </v>
    <v>      -2.10194600       0.00000000       6.07553700 </v>
   </varray>
   <i name="volume">    221.90106089 </i>
   <varray name="rec_basis" >
    <v>       0.15452516      -0.08859232       0.05346088 </v>
    <v>       0.15452516       0.08859232       0.05346088 </v>
    <v>      -0.00160600       0.00000000       0.16403888 </v>
   </varray>
  </crystal>
  <varray name="positions" >
   <v>       0.61844300       0.12117100       0.11953300 </v>
   <v>       0.12117100       0.61844300       0.61953300 </v>
   <v>       0.96295700       0.79032200       0.11881300 </v>
   <v>       0.79032200       0.96295700       0.61881300 </v>
   <v>       0.43973200       0.26728100       0.59904700 </v>
   <v>       0.26728100       0.43973200       0.09904700 </v>
   <v>       0.07949800       0.91321340       0.49736300 </v>
   <v>       0.57140300       0.41236400       0.98018400 </v>
   <v>       0.73711100       0.25006200       0.49504900 </v>
   <v>       0.41236400       0.57140300       0.48018400 </v>
   <v>       0.91167500       0.07949800       0.99736300 </v>
   <v>       0.25006200       0.73711100       0.99504900 </v>
  </varray>
 </structure>
 <calculation>
  <scstep>
   <time name="total">  235.64  235.44</time>
   <energy>
    <i name="alphaZ">    339.31929130 </i>
    <i name="ewald">  -9065.38210024 </i>
    <i name="hartreedc">  -8067.42898312 </i>
    <i name="XCdc">    369.90457226 </i>
    <i name="pawpsdc">  16899.71286165 </i>
    <i name="pawaedc"> -17392.52890791 </i>
    <i name="eentropy">     -0.00147583 </i>
    <i name="bandstr">  -1656.49900105 </i>
    <i name="atom">  18320.98302006 </i>
    <i name="e_fr_energy">     75.53206204 </i>
    <i name="e_wo_entrp">     75.53353787 </i>
    <i name="e_0_energy">     75.53255398 </i>
   </energy>
  </scstep>
  <scstep>
   <time name="total">  239.70  239.55</time>
   <energy>
    <i name="e_fr_energy">     -8.37790735 </i>
    <i name="e_wo_entrp">     -8.37712737 </i>
    <i name="e_0_energy">     -8.37764736 </i>
   </energy>
  </scstep>
  <scstep>
   <time name="total">  244.90  244.71</time>
   <energy>
    <i name="e_fr_energy">    -15.19732573 </i>
    <i name="e_wo_entrp">    -15.19757298 </i>
    <i name="e_0_energy">    -15.19740815 </i>
   </energy>
  </scstep>
  <scstep>
   <time name="total">  247.46  247.24</time>
   <energy>
    <i name="e_fr_energy">    -22.68379851 </i>
    <i name="e_wo_entrp">    -22.68413471 </i>
    <i name="e_0_energy">    -22.68391058 </i>
   </energy>
  </scstep>
  <scstep>
   <time name="total">  246.53  246.33</time>
   <energy>
    <i name="e_fr_energy">    -60.82761014 </i>
    <i name="e_wo_entrp">    -60.82824104 </i>
    <i name="e_0_energy">    -60.82782044 </i>
   </energy>
  </scstep>
  <scstep>
   <time name="total">  246.22  246.05</time>
   <energy>
    <i name="e_fr_energy">    -65.94956560 </i>
    <i name="e_wo_entrp">    -65.95023477 </i>
    <i name="e_0_energy">    -65.94978866 </i>
   </energy>
  </scstep>
  <scstep>
   <time name="total">  247.07  246.87</time>
   <energy>
    <i name="e_fr_energy">    -67.48310184 </i>
    <i name="e_wo_entrp">    -67.48354086 </i>
    <i name="e_0_energy">    -67.48324818 </i>
   </energy>
  </scstep>
  <scstep>
   <time name="total">  247.45  247.24</time>
   <energy>
    <i name="e_fr_energy">    -69.08686082 </i>
    <i name="e_wo_entrp">    -69.08758694 </i>
    <i name="e_0_energy">    -69.08710286 </i>
   </energy>
  </scstep>
  <scstep>
   <time name="total">  247.90  247.68</time>
   <energy>
    <i name="e_fr_energy">    -69.39562665 </i>
    <i name="e_wo_entrp">    -69.39648744 </i>
    <i name="e_0_energy">    -69.39591358 </i>
   </energy>
  </scstep>
  <scstep>
   <time name="total">  248.10  247.92</time>
   <energy>
    <i name="e_fr_energy">    -69.49909794 </i>
    <i name="e_wo_entrp">    -69.49981890 </i>
    <i name="e_0_energy">    -69.49933826 </i>
   </energy>
  </scstep>
  <scstep>
   <time name="total">  247.80  247.60</time>
   <energy>
    <i name="e_fr_energy">    -69.56842751 </i>
    <i name="e_wo_entrp">    -69.56903263 </i>
    <i name="e_0_energy">    -69.56862921 </i>
   </energy>
  </scstep>
  <scstep>
   <time name="total">  247.55  247.34</time>
   <energy>
    <i name="e_fr_energy">    -69.58079583 </i>
    <i name="e_wo_entrp">    -69.58134901 </i>
    <i name="e_0_energy">    -69.58098023 </i>
   </energy>
  </scstep>
  <scstep>
   <time name="total">  246.33  246.14</time>
   <energy>
    <i name="e_fr_energy">    -69.59041020 </i>
    <i name="e_wo_entrp">    -69.59095217 </i>
    <i name="e_0_energy">    -69.59059085 </i>
   </energy>
  </scstep>
  <scstep>
   <time name="total">  246.51  246.32</time>
   <energy>
    <i name="e_fr_energy">    -69.59285722 </i>
    <i name="e_wo_entrp">    -69.59341776 </i>
    <i name="e_0_energy">    -69.59304407 </i>
   </energy>
  </scstep>
  <scstep>
   <time name="total">  242.19  242.02</time>
   <energy>
    <i name="e_fr_energy">    -69.59435580 </i>
    <i name="e_wo_entrp">    -69.59492927 </i>
    <i name="e_0_energy">    -69.59454695 </i>
   </energy>
  </scstep>
  <scstep>
   <time name="total">  259.30  259.09</time>
   <energy>
    <i name="e_fr_energy">    -69.59492278 </i>
    <i name="e_wo_entrp">    -69.59549682 </i>
    <i name="e_0_energy">    -69.59511412 </i>
   </energy>
  </scstep>
  <scstep>
   <time name="total">  259.43  259.35</time>
   <energy>
    <i name="e_fr_energy">    -69.59509486 </i>
    <i name="e_wo_entrp">    -69.59566582 </i>
    <i name="e_0_energy">    -69.59528518 </i>
   </energy>
  </scstep>
  <scstep>
   <time name="total">  259.08  259.05</time>
   <energy>
    <i name="e_fr_energy">    -69.59521109 </i>
    <i name="e_wo_entrp">    -69.59577906 </i>
    <i name="e_0_energy">    -69.59540042 </i>
   </energy>
  </scstep>
  <scstep>
   <time name="total">  258.50  258.86</time>
   <energy>
    <i name="e_fr_energy">    -69.59523969 </i>
    <i name="e_wo_entrp">    -69.59580630 </i>
    <i name="e_0_energy">    -69.59542856 </i>
   </energy>
  </scstep>
  <scstep>
   <time name="total">  258.94  258.79</time>
   <energy>
    <i name="e_fr_energy">    -69.59525928 </i>
    <i name="e_wo_entrp">    -69.59582631 </i>
    <i name="e_0_energy">    -69.59544829 </i>
   </energy>
  </scstep>
  <scstep>
   <time name="total">  258.08  257.91</time>
   <energy>
    <i name="alphaZ">    339.31929130 </i>
    <i name="ewald">  -9065.38210024 </i>
    <i name="hartreedc">  -8148.77363326 </i>
    <i name="XCdc">    372.07123909 </i>
    <i name="pawpsdc">  15922.18788144 </i>
    <i name="pawaedc"> -16407.36513896 </i>
    <i name="eentropy">      0.00056765 </i>
    <i name="bandstr">  -1742.70887859 </i>
    <i name="atom">  18320.98302006 </i>
    <i name="e_fr_energy">    -69.59526658 </i>
    <i name="e_wo_entrp">    -69.59583423 </i>
    <i name="e_0_energy">    -69.59545580 </i>
   </energy>
  </scstep>
  <structure>
   <crystal>
    <varray name="basis" >
     <v>       3.22479600      -5.64383000       0.03157200 </v>
     <v>       3.22479600       5.64383000       0.03157200 </v>
     <v>      -2.10194600       0.00000000       6.07553700 </v>
    </varray>
    <i name="volume">    221.90106089 </i>
    <varray name="rec_basis" >
     <v>       0.15452516      -0.08859232       0.05346088 </v>
     <v>       0.15452516       0.08859232       0.05346088 </v>
     <v>      -0.00160600       0.00000000       0.16403888 </v>
    </varray>
   </crystal>
   <varray name="positions" >
    <v>       0.61844300       0.12117100       0.11953300 </v>
    <v>       0.12117100       0.61844300       0.61953300 </v>
    <v>       0.96295700       0.79032200       0.11881300 </v>
    <v>       0.79032200       0.96295700       0.61881300 </v>
    <v>       0.43973200       0.26728100       0.59904700 </v>
    <v>       0.26728100       0.43973200       0.09904700 </v>
    <v>       0.07949800       0.91321340       0.49736300 </v>
    <v>       0.57140300       0.41236400       0.98018400 </v>
    <v>       0.73711100       0.25006200       0.49504900 </v>
    <v>       0.41236400       0.57140300       0.48018400 </v>
    <v>       0.91167500       0.07949800       0.99736300 </v>
    <v>       0.25006200       0.73711100       0.99504900 </v>
   </varray>
  </structure>
  <varray name="forces" >
   <v>      -0.00197438      -0.00152033       0.00050050 </v>
   <v>       0.00969018       0.02447508      -0.01068060 </v>
   <v>       0.00309565      -0.00211731      -0.00198705 </v>
   <v>      -0.00465307       0.01587065       0.00759534 </v>
   <v>       0.05163159       0.01127337       0.01552023 </v>
   <v>      -0.00064989      -0.00842382       0.00181032 </v>
   <v>      -0.06940429      -0.06922973      -0.01118152 </v>
   <v>       0.00129946      -0.00689902       0.00372998 </v>
   <v>      -0.00030673       0.01318575      -0.00103427 </v>
   <v>       0.00953341       0.01727361       0.00019808 </v>
   <v>       0.00249397       0.00300367      -0.00308314 </v>
   <v>      -0.00075590       0.00310809      -0.00138787 </v>
  </varray>
  <energy>
   <i name="e_fr_energy">    -69.59526658 </i>
   <i name="e_wo_entrp">    -69.59545580 </i>
   <i name="e_0_energy">      0.00056765 </i>
  </energy>
  <time name="totalsc"> 5742.51 5740.93</time>
  <eigenvalues>
   <array>
    <dimension dim="1">band</dimension>
    <dimension dim="2">kpoint</dimension>
    <dimension dim="3">spin</dimension>
    <field>eigene</field>
    <field>occ</field>
    <set>
     <set comment="spin 1">
      <set comment="kpoint 1">
       <r>  -68.6451    1.0000 </r>
       <r>  -68.6373    1.0000 </r>
       <r>  -68.6358    1.0000 </r>
       <r>  -68.6339    1.0000 </r>
       <r>  -68.6131    1.0000 </r>
       <r>  -68.6051    1.0000 </r>
       <r>  -68.5957    1.0000 </r>
       <r>  -68.5876    1.0000 </r>
       <r>  -68.5821    1.0000 </r>
       <r>  -68.5782    1.0000 </r>
       <r>  -68.5656    1.0000 </r>
       <r>  -68.5614    1.0000 </r>
       <r>  -12.7230    1.0000 </r>
       <r>  -11.1331    1.0000 </r>
       <r>  -10.9171    1.0000 </r>
       <r>  -10.6035    1.0000 </r>
       <r>  -10.2549    1.0000 </r>
       <r>  -10.2358    1.0000 </r>
       <r>   -5.9838    1.0000 </r>
       <r>   -4.9851    1.0000 </r>
       <r>   -2.7623    1.0000 </r>
       <r>   -2.2089    1.0000 </r>
       <r>   -2.0714    1.0000 </r>
       <r>   -1.9208    1.0000 </r>
       <r>   -1.5792    1.0000 </r>
       <r>   -0.9793    1.0000 </r>
       <r>   -0.9529    1.0000 </r>
       <r>   -0.6838    1.0000 </r>
       <r>   -0.4007    1.0000 </r>
       <r>   -0.2734    1.0000 </r>
       <r>   -0.2610    1.0000 </r>
       <r>   -0.2356    1.0000 </r>
       <r>   -0.1884    1.0000 </r>
       <r>   -0.1538    1.0000 </r>
       <r>   -0.0424    1.0000 </r>
       <r>    0.0341    1.0000 </r>
       <r>    1.3514    1.0000 </r>
       <r>    1.3648    1.0000 </r>
       <r>    1.4153    1.0000 </r>
       <r>    1.4563    1.0000 </r>
       <r>    1.4709    1.0000 </r>
       <r>    1.4740    1.0000 </r>
       <r>    1.5209    1.0000 </r>
       <r>    1.5324    1.0000 </r>
       <r>    1.5768    1.0000 </r>
       <r>    1.7119    1.0000 </r>
       <r>    1.8931    1.0000 </r>
       <r>    1.9307    1.0000 </r>
       <r>    2.0580    1.0000 </r>
       <r>    2.6486    1.0000 </r>
       <r>    2.7297    1.0000 </r>
       <r>    3.0931    1.0000 </r>
       <r>    3.2153    1.0000 </r>
       <r>    4.0049    1.0049 </r>
       <r>    4.0359    1.0131 </r>
       <r>    4.1708    0.8611 </r>
       <r>    5.5405   -0.0000 </r>
       <r>    6.3648   -0.0000 </r>
       <r>    7.6273    0.0000 </r>
       <r>    7.9894    0.0000 </r>
       <r>    8.6163    0.0000 </r>
       <r>    8.7930    0.0000 </r>
       <r>    9.5690    0.0000 </r>
       <r>    9.7446    0.0000 </r>
       <r>    9.8184    0.0000 </r>
       <r>   10.4202    0.0000 </r>
       <r>   10.5856    0.0000 </r>
       <r>   10.6906    0.0000 </r>
       <r>   10.7169    0.0000 </r>
       <r>   11.2861    0.0000 </r>
       <r>   11.7028    0.0000 </r>
       <r>   12.3836    0.0000 </r>
       <r>   12.4528    0.0000 </r>
       <r>   12.7294    0.0000 </r>
       <r>   13.3270    0.0000 </r>
       <r>   13.3851    0.0000 </r>
       <r>   13.8307    0.0000 </r>
       <r>   13.8884    0.0000 </r>
       <r>   14.1412    0.0000 </r>
       <r>   14.1769    0.0000 </r>
      </set>
      <set comment="kpoint 2">
       <r>  -68.6451    1.0000 </r>
       <r>  -68.6372    1.0000 </r>
       <r>  -68.6357    1.0000 </r>
       <r>  -68.6339    1.0000 </r>
       <r>  -68.6130    1.0000 </r>
       <r>  -68.6050    1.0000 </r>
       <r>  -68.5957    1.0000 </r>
       <r>  -68.5877    1.0000 </r>
       <r>  -68.5821    1.0000 </r>
       <r>  -68.5782    1.0000 </r>
       <r>  -68.5655    1.0000 </r>
       <r>  -68.5614    1.0000 </r>
       <r>  -12.5980    1.0000 </r>
       <r>  -11.1299    1.0000 </r>
       <r>  -10.9822    1.0000 </r>
       <r>  -10.6806    1.0000 </r>
       <r>  -10.3677    1.0000 </r>
       <r>  -10.2784    1.0000 </r>
       <r>   -5.9317    1.0000 </r>
       <r>   -4.7739    1.0000 </r>
       <r>   -2.6468    1.0000 </r>
       <r>   -2.2517    1.0000 </r>
       <r>   -2.0879    1.0000 </r>
       <r>   -1.6894    1.0000 </r>
       <r>   -1.3474    1.0000 </r>
       <r>   -1.0006    1.0000 </r>
       <r>   -0.7698    1.0000 </r>
       <r>   -0.6200    1.0000 </r>
       <r>   -0.5531    1.0000 </r>
       <r>   -0.4391    1.0000 </r>
       <r>   -0.3601    1.0000 </r>
       <r>   -0.2392    1.0000 </r>
       <r>   -0.1892    1.0000 </r>
       <r>   -0.1689    1.0000 </r>
       <r>   -0.0477    1.0000 </r>
       <r>    0.0423    1.0000 </r>
       <r>    1.2803    1.0000 </r>
       <r>    1.3354    1.0000 </r>
       <r>    1.3554    1.0000 </r>
       <r>    1.3936    1.0000 </r>
       <r>    1.4284    1.0000 </r>
       <r>    1.4726    1.0000 </r>
       <r>    1.4986    1.0000 </r>
       <r>    1.5308    1.0000 </r>
       <r>    1.7248    1.0000 </r>
       <r>    1.8617    1.0000 </r>
       <r>    2.0556    1.0000 </r>
       <r>    2.0956    1.0000 </r>
       <r>    2.2316    1.0000 </r>
       <r>    2.4136    1.0000 </r>
       <r>    2.5548    1.0000 </r>
       <r>    2.8262    1.0000 </r>
       <r>    2.9469    1.0000 </r>
       <r>    3.2436    1.0000 </r>
       <r>    3.6599    1.0000 </r>
       <r>    4.0390    1.0144 </r>
       <r>    6.1726   -0.0000 </r>
       <r>    6.9133   -0.0000 </r>
       <r>    8.1379    0.0000 </r>
       <r>    8.2705    0.0000 </r>
       <r>    8.5943    0.0000 </r>
       <r>    9.0130    0.0000 </r>
       <r>    9.2424    0.0000 </r>
       <r>    9.5318    0.0000 </r>
       <r>    9.8695    0.0000 </r>
       <r>   10.3737    0.0000 </r>
       <r>   10.6352    0.0000 </r>
       <r>   10.8151    0.0000 </r>
       <r>   10.9392    0.0000 </r>
       <r>   11.1874    0.0000 </r>
       <r>   11.6556    0.0000 </r>
       <r>   11.7678    0.0000 </r>
       <r>   12.1190    0.0000 </r>
       <r>   12.4470    0.0000 </r>
       <r>   12.6164    0.0000 </r>
       <r>   13.0041    0.0000 </r>
       <r>   13.5069    0.0000 </r>
       <r>   13.8751    0.0000 </r>
       <r>   14.2128    0.0000 </r>
       <r>   14.7108    0.0000 </r>
      </set>
      <set comment="kpoint 3">
       <r>  -68.6449    1.0000 </r>
       <r>  -68.6372    1.0000 </r>
       <r>  -68.6356    1.0000 </r>
       <r>  -68.6338    1.0000 </r>
       <r>  -68.6130    1.0000 </r>
       <r>  -68.6050    1.0000 </r>
       <r>  -68.5957    1.0000 </r>
       <r>  -68.5876    1.0000 </r>
       <r>  -68.5821    1.0000 </r>
       <r>  -68.5781    1.0000 </r>
       <r>  -68.5654    1.0000 </r>
       <r>  -68.5612    1.0000 </r>
       <r>  -12.4386    1.0000 </r>
       <r>  -11.2498    1.0000 </r>
       <r>  -10.9570    1.0000 </r>
       <r>  -10.7718    1.0000 </r>
       <r>  -10.4280    1.0000 </r>
       <r>  -10.3578    1.0000 </r>
       <r>   -5.8689    1.0000 </r>
       <r>   -4.5480    1.0000 </r>
       <r>   -2.4933    1.0000 </r>
       <r>   -2.2471    1.0000 </r>
       <r>   -1.9469    1.0000 </r>
       <r>   -1.4676    1.0000 </r>
       <r>   -1.2250    1.0000 </r>
       <r>   -1.1044    1.0000 </r>
       <r>   -0.9011    1.0000 </r>
       <r>   -0.8670    1.0000 </r>
       <r>   -0.5991    1.0000 </r>
       <r>   -0.5337    1.0000 </r>
       <r>   -0.2704    1.0000 </r>
       <r>   -0.2036    1.0000 </r>
       <r>   -0.2017    1.0000 </r>
       <r>   -0.1440    1.0000 </r>
       <r>   -0.0314    1.0000 </r>
       <r>    0.0855    1.0000 </r>
       <r>    1.2544    1.0000 </r>
       <r>    1.3287    1.0000 </r>
       <r>    1.3492    1.0000 </r>
       <r>    1.3977    1.0000 </r>
       <r>    1.4726    1.0000 </r>
       <r>    1.4771    1.0000 </r>
       <r>    1.5008    1.0000 </r>
       <r>    1.5526    1.0000 </r>
       <r>    1.7533    1.0000 </r>
       <r>    1.7911    1.0000 </r>
       <r>    1.9675    1.0000 </r>
       <r>    2.1475    1.0000 </r>
       <r>    2.3214    1.0000 </r>
       <r>    2.3639    1.0000 </r>
       <r>    2.5554    1.0000 </r>
       <r>    2.6706    1.0000 </r>
       <r>    2.9366    1.0000 </r>
       <r>    3.0789    1.0000 </r>
       <r>    3.2498    1.0000 </r>
       <r>    3.8615    1.0000 </r>
       <r>    6.3873   -0.0000 </r>
       <r>    7.1033    0.0000 </r>
       <r>    7.9816    0.0000 </r>
       <r>    8.2044    0.0000 </r>
       <r>    8.5185    0.0000 </r>
       <r>    8.8248    0.0000 </r>
       <r>    9.3279    0.0000 </r>
       <r>    9.8899    0.0000 </r>
       <r>   10.0159    0.0000 </r>
       <r>   10.5184    0.0000 </r>
       <r>   10.6890    0.0000 </r>
       <r>   10.7965    0.0000 </r>
       <r>   11.1381    0.0000 </r>
       <r>   11.4098    0.0000 </r>
       <r>   11.6008    0.0000 </r>
       <r>   11.7747    0.0000 </r>
       <r>   11.9480    0.0000 </r>
       <r>   12.5081    0.0000 </r>
       <r>   12.7796    0.0000 </r>
       <r>   13.0020    0.0000 </r>
       <r>   13.3909    0.0000 </r>
       <r>   13.5392    0.0000 </r>
       <r>   13.9395    0.0000 </r>
       <r>   14.2683    0.0000 </r>
      </set>
      <set comment="kpoint 4">
       <r>  -68.6451    1.0000 </r>
       <r>  -68.6373    1.0000 </r>
       <r>  -68.6358    1.0000 </r>
       <r>  -68.6339    1.0000 </r>
       <r>  -68.6130    1.0000 </r>
       <r>  -68.6050    1.0000 </r>
       <r>  -68.5957    1.0000 </r>
       <r>  -68.5876    1.0000 </r>
       <r>  -68.5821    1.0000 </r>
       <r>  -68.5782    1.0000 </r>
       <r>  -68.5655    1.0000 </r>
       <r>  -68.5614    1.0000 </r>
       <r>  -12.5980    1.0000 </r>
       <r>  -11.1320    1.0000 </r>
       <r>  -10.9819    1.0000 </r>
       <r>  -10.6774    1.0000 </r>
       <r>  -10.3663    1.0000 </r>
       <r>  -10.2807    1.0000 </r>
       <r>   -5.9324    1.0000 </r>
       <r>   -4.7747    1.0000 </r>
       <r>   -2.6471    1.0000 </r>
       <r>   -2.2522    1.0000 </r>
       <r>   -2.0875    1.0000 </r>
       <r>   -1.6901    1.0000 </r>
       <r>   -1.3448    1.0000 </r>
       <r>   -1.0015    1.0000 </r>
       <r>   -0.7699    1.0000 </r>
       <r>   -0.6190    1.0000 </r>
       <r>   -0.5533    1.0000 </r>
       <r>   -0.4356    1.0000 </r>
       <r>   -0.3611    1.0000 </r>
       <r>   -0.2390    1.0000 </r>
       <r>   -0.1923    1.0000 </r>
       <r>   -0.1696    1.0000 </r>
       <r>   -0.0466    1.0000 </r>
       <r>    0.0423    1.0000 </r>
       <r>    1.2811    1.0000 </r>
       <r>    1.3359    1.0000 </r>
       <r>    1.3548    1.0000 </r>
       <r>    1.3928    1.0000 </r>
       <r>    1.4294    1.0000 </r>
       <r>    1.4733    1.0000 </r>
       <r>    1.4987    1.0000 </r>
       <r>    1.5313    1.0000 </r>
       <r>    1.7259    1.0000 </r>
       <r>    1.8599    1.0000 </r>
       <r>    2.0559    1.0000 </r>
       <r>    2.0953    1.0000 </r>
       <r>    2.2322    1.0000 </r>
       <r>    2.4135    1.0000 </r>
       <r>    2.5554    1.0000 </r>
       <r>    2.8239    1.0000 </r>
       <r>    2.9467    1.0000 </r>
       <r>    3.2427    1.0000 </r>
       <r>    3.6626    1.0000 </r>
       <r>    4.0380    1.0140 </r>
       <r>    6.1717   -0.0000 </r>
       <r>    6.9126   -0.0000 </r>
       <r>    8.1370    0.0000 </r>
       <r>    8.2696    0.0000 </r>
       <r>    8.5943    0.0000 </r>
       <r>    9.0139    0.0000 </r>
       <r>    9.2411    0.0000 </r>
       <r>    9.5402    0.0000 </r>
       <r>    9.8644    0.0000 </r>
       <r>   10.3752    0.0000 </r>
       <r>   10.6298    0.0000 </r>
       <r>   10.8144    0.0000 </r>
       <r>   10.9430    0.0000 </r>
       <r>   11.1893    0.0000 </r>
       <r>   11.6514    0.0000 </r>
       <r>   11.7702    0.0000 </r>
       <r>   12.1158    0.0000 </r>
       <r>   12.4414    0.0000 </r>
       <r>   12.6180    0.0000 </r>
       <r>   13.0063    0.0000 </r>
       <r>   13.5167    0.0000 </r>
       <r>   13.9038    0.0000 </r>
       <r>   14.2679    0.0000 </r>
       <r>   14.8285    0.0000 </r>
      </set>
      <set comment="kpoint 5">
       <r>  -68.6451    1.0000 </r>
       <r>  -68.6371    1.0000 </r>
       <r>  -68.6358    1.0000 </r>
       <r>  -68.6338    1.0000 </r>
       <r>  -68.6131    1.0000 </r>
       <r>  -68.6051    1.0000 </r>
       <r>  -68.5956    1.0000 </r>
       <r>  -68.5875    1.0000 </r>
       <r>  -68.5822    1.0000 </r>
       <r>  -68.5783    1.0000 </r>
       <r>  -68.5656    1.0000 </r>
       <r>  -68.5614    1.0000 </r>
       <r>  -12.4425    1.0000 </r>
       <r>  -11.1935    1.0000 </r>
       <r>  -10.9434    1.0000 </r>
       <r>  -10.8808    1.0000 </r>
       <r>  -10.3919    1.0000 </r>
       <r>  -10.3515    1.0000 </r>
       <r>   -5.8748    1.0000 </r>
       <r>   -4.5223    1.0000 </r>
       <r>   -2.4193    1.0000 </r>
       <r>   -2.2455    1.0000 </r>
       <r>   -1.7941    1.0000 </r>
       <r>   -1.6814    1.0000 </r>
       <r>   -1.3566    1.0000 </r>
       <r>   -1.3002    1.0000 </r>
       <r>   -1.0829    1.0000 </r>
       <r>   -0.6834    1.0000 </r>
       <r>   -0.5247    1.0000 </r>
       <r>   -0.2945    1.0000 </r>
       <r>   -0.2805    1.0000 </r>
       <r>   -0.2227    1.0000 </r>
       <r>   -0.1865    1.0000 </r>
       <r>   -0.1265    1.0000 </r>
       <r>   -0.0910    1.0000 </r>
       <r>    0.0834    1.0000 </r>
       <r>    1.2944    1.0000 </r>
       <r>    1.3116    1.0000 </r>
       <r>    1.4165    1.0000 </r>
       <r>    1.4283    1.0000 </r>
       <r>    1.4650    1.0000 </r>
       <r>    1.4828    1.0000 </r>
       <r>    1.4947    1.0000 </r>
       <r>    1.5692    1.0000 </r>
       <r>    1.6722    1.0000 </r>
       <r>    1.8821    1.0000 </r>
       <r>    1.9394    1.0000 </r>
       <r>    2.1353    1.0000 </r>
       <r>    2.2797    1.0000 </r>
       <r>    2.3201    1.0000 </r>
       <r>    2.5619    1.0000 </r>
       <r>    2.6520    1.0000 </r>
       <r>    2.9021    1.0000 </r>
       <r>    2.9444    1.0000 </r>
       <r>    3.6962    1.0000 </r>
       <r>    3.8306    1.0000 </r>
       <r>    6.1732   -0.0000 </r>
       <r>    6.9973    0.0000 </r>
       <r>    8.0083    0.0000 </r>
       <r>    8.3251    0.0000 </r>
       <r>    8.4398    0.0000 </r>
       <r>    8.5707    0.0000 </r>
       <r>    9.1454    0.0000 </r>
       <r>    9.2526    0.0000 </r>
       <r>   10.3606    0.0000 </r>
       <r>   10.4948    0.0000 </r>
       <r>   10.9184    0.0000 </r>
       <r>   11.1861    0.0000 </r>
       <r>   11.3263    0.0000 </r>
       <r>   11.5541    0.0000 </r>
       <r>   11.8155    0.0000 </r>
       <r>   11.9597    0.0000 </r>
       <r>   12.3178    0.0000 </r>
       <r>   12.5029    0.0000 </r>
       <r>   12.7159    0.0000 </r>
       <r>   12.9063    0.0000 </r>
       <r>   13.3365    0.0000 </r>
       <r>   13.4475    0.0000 </r>
       <r>   14.2592    0.0000 </r>
       <r>   14.3634    0.0000 </r>
      </set>
      <set comment="kpoint 6">
       <r>  -68.6448    1.0000 </r>
       <r>  -68.6371    1.0000 </r>
       <r>  -68.6357    1.0000 </r>
       <r>  -68.6339    1.0000 </r>
       <r>  -68.6129    1.0000 </r>
       <r>  -68.6049    1.0000 </r>
       <r>  -68.5957    1.0000 </r>
       <r>  -68.5876    1.0000 </r>
       <r>  -68.5820    1.0000 </r>
       <r>  -68.5781    1.0000 </r>
       <r>  -68.5654    1.0000 </r>
       <r>  -68.5612    1.0000 </r>
       <r>  -12.4430    1.0000 </r>
       <r>  -11.3551    1.0000 </r>
       <r>  -10.9381    1.0000 </r>
       <r>  -10.7421    1.0000 </r>
       <r>  -10.3902    1.0000 </r>
       <r>  -10.2734    1.0000 </r>
       <r>   -5.9459    1.0000 </r>
       <r>   -4.6428    1.0000 </r>
       <r>   -2.3927    1.0000 </r>
       <r>   -2.2273    1.0000 </r>
       <r>   -2.0571    1.0000 </r>
       <r>   -1.6403    1.0000 </r>
       <r>   -1.3618    1.0000 </r>
       <r>   -1.2822    1.0000 </r>
       <r>   -1.0270    1.0000 </r>
       <r>   -0.5112    1.0000 </r>
       <r>   -0.4866    1.0000 </r>
       <r>   -0.3254    1.0000 </r>
       <r>   -0.2816    1.0000 </r>
       <r>   -0.2146    1.0000 </r>
       <r>   -0.1505    1.0000 </r>
       <r>   -0.1317    1.0000 </r>
       <r>   -0.0101    1.0000 </r>
       <r>    0.1133    1.0000 </r>
       <r>    1.2476    1.0000 </r>
       <r>    1.3158    1.0000 </r>
       <r>    1.3842    1.0000 </r>
       <r>    1.4373    1.0000 </r>
       <r>    1.4632    1.0000 </r>
       <r>    1.4927    1.0000 </r>
       <r>    1.4963    1.0000 </r>
       <r>    1.5500    1.0000 </r>
       <r>    1.7507    1.0000 </r>
       <r>    1.8276    1.0000 </r>
       <r>    1.9221    1.0000 </r>
       <r>    2.1334    1.0000 </r>
       <r>    2.2230    1.0000 </r>
       <r>    2.3855    1.0000 </r>
       <r>    2.5611    1.0000 </r>
       <r>    2.7900    1.0000 </r>
       <r>    2.9764    1.0000 </r>
       <r>    3.3103    1.0000 </r>
       <r>    3.6042    1.0000 </r>
       <r>    3.7489    1.0000 </r>
       <r>    6.0896   -0.0000 </r>
       <r>    6.9476   -0.0000 </r>
       <r>    7.6113    0.0000 </r>
       <r>    8.0743    0.0000 </r>
       <r>    8.4090    0.0000 </r>
       <r>    8.6145    0.0000 </r>
       <r>    8.9836    0.0000 </r>
       <r>    9.1579    0.0000 </r>
       <r>   10.0839    0.0000 </r>
       <r>   10.3337    0.0000 </r>
       <r>   10.7364    0.0000 </r>
       <r>   11.1048    0.0000 </r>
       <r>   11.4621    0.0000 </r>
       <r>   11.5947    0.0000 </r>
       <r>   11.7981    0.0000 </r>
       <r>   12.0880    0.0000 </r>
       <r>   12.4772    0.0000 </r>
       <r>   12.9197    0.0000 </r>
       <r>   13.0345    0.0000 </r>
       <r>   13.8377    0.0000 </r>
       <r>   14.1894    0.0000 </r>
       <r>   14.6560    0.0000 </r>
       <r>   15.4400    0.0000 </r>
       <r>   15.6430    0.0000 </r>
      </set>
      <set comment="kpoint 7">
       <r>  -68.6451    1.0000 </r>
       <r>  -68.6372    1.0000 </r>
       <r>  -68.6358    1.0000 </r>
       <r>  -68.6339    1.0000 </r>
       <r>  -68.6129    1.0000 </r>
       <r>  -68.6050    1.0000 </r>
       <r>  -68.5957    1.0000 </r>
       <r>  -68.5876    1.0000 </r>
       <r>  -68.5820    1.0000 </r>
       <r>  -68.5781    1.0000 </r>
       <r>  -68.5655    1.0000 </r>
       <r>  -68.5614    1.0000 </r>
       <r>  -12.6011    1.0000 </r>
       <r>  -11.2537    1.0000 </r>
       <r>  -10.9914    1.0000 </r>
       <r>  -10.5722    1.0000 </r>
       <r>  -10.3680    1.0000 </r>
       <r>  -10.1828    1.0000 </r>
       <r>   -6.0087    1.0000 </r>
       <r>   -4.8959    1.0000 </r>
       <r>   -2.6482    1.0000 </r>
       <r>   -2.3141    1.0000 </r>
       <r>   -1.9722    1.0000 </r>
       <r>   -1.6472    1.0000 </r>
       <r>   -1.4954    1.0000 </r>
       <r>   -1.1833    1.0000 </r>
       <r>   -0.7913    1.0000 </r>
       <r>   -0.5841    1.0000 </r>
       <r>   -0.4428    1.0000 </r>
       <r>   -0.3344    1.0000 </r>
       <r>   -0.2921    1.0000 </r>
       <r>   -0.2319    1.0000 </r>
       <r>   -0.1741    1.0000 </r>
       <r>   -0.1317    1.0000 </r>
       <r>   -0.0080    1.0000 </r>
       <r>    0.0711    1.0000 </r>
       <r>    1.2606    1.0000 </r>
       <r>    1.3213    1.0000 </r>
       <r>    1.3678    1.0000 </r>
       <r>    1.4232    1.0000 </r>
       <r>    1.4298    1.0000 </r>
       <r>    1.4760    1.0000 </r>
       <r>    1.5035    1.0000 </r>
       <r>    1.5466    1.0000 </r>
       <r>    1.7265    1.0000 </r>
       <r>    1.8128    1.0000 </r>
       <r>    1.9947    1.0000 </r>
       <r>    2.0721    1.0000 </r>
       <r>    2.4163    1.0000 </r>
       <r>    2.4647    1.0000 </r>
       <r>    2.5290    1.0000 </r>
       <r>    2.8705    1.0000 </r>
       <r>    3.1427    1.0000 </r>
       <r>    3.2267    1.0000 </r>
       <r>    3.7832    1.0000 </r>
       <r>    4.0684    1.0273 </r>
       <r>    5.9813   -0.0000 </r>
       <r>    6.6953   -0.0000 </r>
       <r>    7.5339    0.0000 </r>
       <r>    8.2264    0.0000 </r>
       <r>    8.6178    0.0000 </r>
       <r>    8.9123    0.0000 </r>
       <r>    9.3106    0.0000 </r>
       <r>    9.4339    0.0000 </r>
       <r>    9.8043    0.0000 </r>
       <r>   10.2703    0.0000 </r>
       <r>   10.5424    0.0000 </r>
       <r>   10.8321    0.0000 </r>
       <r>   10.9733    0.0000 </r>
       <r>   11.3756    0.0000 </r>
       <r>   11.4747    0.0000 </r>
       <r>   11.7302    0.0000 </r>
       <r>   12.1014    0.0000 </r>
       <r>   12.6607    0.0000 </r>
       <r>   12.9429    0.0000 </r>
       <r>   13.1042    0.0000 </r>
       <r>   13.3518    0.0000 </r>
       <r>   13.5193    0.0000 </r>
       <r>   14.4805    0.0000 </r>
       <r>   14.7532    0.0000 </r>
      </set>
      <set comment="kpoint 8">
       <r>  -68.6449    1.0000 </r>
       <r>  -68.6372    1.0000 </r>
       <r>  -68.6356    1.0000 </r>
       <r>  -68.6338    1.0000 </r>
       <r>  -68.6130    1.0000 </r>
       <r>  -68.6050    1.0000 </r>
       <r>  -68.5957    1.0000 </r>
       <r>  -68.5876    1.0000 </r>
       <r>  -68.5820    1.0000 </r>
       <r>  -68.5782    1.0000 </r>
       <r>  -68.5654    1.0000 </r>
       <r>  -68.5612    1.0000 </r>
       <r>  -12.4387    1.0000 </r>
       <r>  -11.2538    1.0000 </r>
       <r>  -10.9570    1.0000 </r>
       <r>  -10.7643    1.0000 </r>
       <r>  -10.4270    1.0000 </r>
       <r>  -10.3614    1.0000 </r>
       <r>   -5.8704    1.0000 </r>
       <r>   -4.5501    1.0000 </r>
       <r>   -2.4948    1.0000 </r>
       <r>   -2.2451    1.0000 </r>
       <r>   -1.9452    1.0000 </r>
       <r>   -1.4641    1.0000 </r>
       <r>   -1.2272    1.0000 </r>
       <r>   -1.1035    1.0000 </r>
       <r>   -0.9039    1.0000 </r>
       <r>   -0.8653    1.0000 </r>
       <r>   -0.5996    1.0000 </r>
       <r>   -0.5336    1.0000 </r>
       <r>   -0.2734    1.0000 </r>
       <r>   -0.2043    1.0000 </r>
       <r>   -0.2010    1.0000 </r>
       <r>   -0.1434    1.0000 </r>
       <r>   -0.0262    1.0000 </r>
       <r>    0.0831    1.0000 </r>
       <r>    1.2555    1.0000 </r>
       <r>    1.3281    1.0000 </r>
       <r>    1.3483    1.0000 </r>
       <r>    1.3998    1.0000 </r>
       <r>    1.4708    1.0000 </r>
       <r>    1.4782    1.0000 </r>
       <r>    1.5013    1.0000 </r>
       <r>    1.5541    1.0000 </r>
       <r>    1.7552    1.0000 </r>
       <r>    1.7920    1.0000 </r>
       <r>    1.9670    1.0000 </r>
       <r>    2.1471    1.0000 </r>
       <r>    2.3204    1.0000 </r>
       <r>    2.3621    1.0000 </r>
       <r>    2.5582    1.0000 </r>
       <r>    2.6709    1.0000 </r>
       <r>    2.9330    1.0000 </r>
       <r>    3.0798    1.0000 </r>
       <r>    3.2500    1.0000 </r>
       <r>    3.8587    1.0000 </r>
       <r>    6.3865   -0.0000 </r>
       <r>    7.1085    0.0000 </r>
       <r>    7.9846    0.0000 </r>
       <r>    8.2053    0.0000 </r>
       <r>    8.5116    0.0000 </r>
       <r>    8.8205    0.0000 </r>
       <r>    9.3343    0.0000 </r>
       <r>    9.8875    0.0000 </r>
       <r>   10.0088    0.0000 </r>
       <r>   10.5175    0.0000 </r>
       <r>   10.6904    0.0000 </r>
       <r>   10.7948    0.0000 </r>
       <r>   11.1331    0.0000 </r>
       <r>   11.4066    0.0000 </r>
       <r>   11.6093    0.0000 </r>
       <r>   11.7776    0.0000 </r>
       <r>   11.9437    0.0000 </r>
       <r>   12.5055    0.0000 </r>
       <r>   12.8244    0.0000 </r>
       <r>   13.0312    0.0000 </r>
       <r>   13.5535    0.0000 </r>
       <r>   13.6870    0.0000 </r>
       <r>   14.5524    0.0000 </r>
       <r>   15.2503    0.0000 </r>
      </set>
      <set comment="kpoint 9">
       <r>  -68.6449    1.0000 </r>
       <r>  -68.6371    1.0000 </r>
       <r>  -68.6357    1.0000 </r>
       <r>  -68.6339    1.0000 </r>
       <r>  -68.6129    1.0000 </r>
       <r>  -68.6050    1.0000 </r>
       <r>  -68.5957    1.0000 </r>
       <r>  -68.5876    1.0000 </r>
       <r>  -68.5820    1.0000 </r>
       <r>  -68.5781    1.0000 </r>
       <r>  -68.5654    1.0000 </r>
       <r>  -68.5612    1.0000 </r>
       <r>  -12.4431    1.0000 </r>
       <r>  -11.3561    1.0000 </r>
       <r>  -10.9386    1.0000 </r>
       <r>  -10.7398    1.0000 </r>
       <r>  -10.3894    1.0000 </r>
       <r>  -10.2747    1.0000 </r>
       <r>   -5.9466    1.0000 </r>
       <r>   -4.6436    1.0000 </r>
       <r>   -2.3933    1.0000 </r>
       <r>   -2.2265    1.0000 </r>
       <r>   -2.0582    1.0000 </r>
       <r>   -1.6407    1.0000 </r>
       <r>   -1.3631    1.0000 </r>
       <r>   -1.2814    1.0000 </r>
       <r>   -1.0237    1.0000 </r>
       <r>   -0.5086    1.0000 </r>
       <r>   -0.4817    1.0000 </r>
       <r>   -0.3329    1.0000 </r>
       <r>   -0.2807    1.0000 </r>
       <r>   -0.2145    1.0000 </r>
       <r>   -0.1528    1.0000 </r>
       <r>   -0.1331    1.0000 </r>
       <r>   -0.0072    1.0000 </r>
       <r>    0.1130    1.0000 </r>
       <r>    1.2473    1.0000 </r>
       <r>    1.3177    1.0000 </r>
       <r>    1.3830    1.0000 </r>
       <r>    1.4385    1.0000 </r>
       <r>    1.4640    1.0000 </r>
       <r>    1.4919    1.0000 </r>
       <r>    1.4984    1.0000 </r>
       <r>    1.5490    1.0000 </r>
       <r>    1.7498    1.0000 </r>
       <r>    1.8285    1.0000 </r>
       <r>    1.9219    1.0000 </r>
       <r>    2.1342    1.0000 </r>
       <r>    2.2220    1.0000 </r>
       <r>    2.3856    1.0000 </r>
       <r>    2.5602    1.0000 </r>
       <r>    2.7879    1.0000 </r>
       <r>    2.9780    1.0000 </r>
       <r>    3.3124    1.0000 </r>
       <r>    3.6042    1.0000 </r>
       <r>    3.7461    1.0000 </r>
       <r>    6.0891   -0.0000 </r>
       <r>    6.9464   -0.0000 </r>
       <r>    7.6121    0.0000 </r>
       <r>    8.0714    0.0000 </r>
       <r>    8.4109    0.0000 </r>
       <r>    8.6176    0.0000 </r>
       <r>    8.9869    0.0000 </r>
       <r>    9.1530    0.0000 </r>
       <r>   10.0843    0.0000 </r>
       <r>   10.3345    0.0000 </r>
       <r>   10.7332    0.0000 </r>
       <r>   11.1087    0.0000 </r>
       <r>   11.4623    0.0000 </r>
       <r>   11.5747    0.0000 </r>
       <r>   11.7835    0.0000 </r>
       <r>   12.0282    0.0000 </r>
       <r>   12.5130    0.0000 </r>
       <r>   12.6791    0.0000 </r>
       <r>   12.9220    0.0000 </r>
       <r>   13.2093    0.0000 </r>
       <r>   14.2342    0.0000 </r>
       <r>   14.7677    0.0000 </r>
       <r>   15.2528    0.0000 </r>
       <r>   15.9099    0.0000 </r>
      </set>
      <set comment="kpoint 10">
       <r>  -68.6447    1.0000 </r>
       <r>  -68.6369    1.0000 </r>
       <r>  -68.6355    1.0000 </r>
       <r>  -68.6337    1.0000 </r>
       <r>  -68.6128    1.0000 </r>
       <r>  -68.6048    1.0000 </r>
       <r>  -68.5955    1.0000 </r>
       <r>  -68.5874    1.0000 </r>
       <r>  -68.5819    1.0000 </r>
       <r>  -68.5780    1.0000 </r>
       <r>  -68.5652    1.0000 </r>
       <r>  -68.5610    1.0000 </r>
       <r>  -12.4353    1.0000 </r>
       <r>  -11.5022    1.0000 </r>
       <r>  -10.9137    1.0000 </r>
       <r>  -10.6204    1.0000 </r>
       <r>  -10.3985    1.0000 </r>
       <r>  -10.2027    1.0000 </r>
       <r>   -6.0245    1.0000 </r>
       <r>   -4.8114    1.0000 </r>
       <r>   -2.3142    1.0000 </r>
       <r>   -2.2653    1.0000 </r>
       <r>   -2.0926    1.0000 </r>
       <r>   -1.7013    1.0000 </r>
       <r>   -1.2464    1.0000 </r>
       <r>   -1.1135    1.0000 </r>
       <r>   -0.8396    1.0000 </r>
       <r>   -0.7842    1.0000 </r>
       <r>   -0.7251    1.0000 </r>
       <r>   -0.2414    1.0000 </r>
       <r>   -0.1975    1.0000 </r>
       <r>   -0.1796    1.0000 </r>
       <r>   -0.1521    1.0000 </r>
       <r>   -0.0396    1.0000 </r>
       <r>   -0.0010    1.0000 </r>
       <r>    0.1825    1.0000 </r>
       <r>    1.2654    1.0000 </r>
       <r>    1.3200    1.0000 </r>
       <r>    1.3764    1.0000 </r>
       <r>    1.4134    1.0000 </r>
       <r>    1.4332    1.0000 </r>
       <r>    1.4951    1.0000 </r>
       <r>    1.5096    1.0000 </r>
       <r>    1.5524    1.0000 </r>
       <r>    1.7868    1.0000 </r>
       <r>    1.8478    1.0000 </r>
       <r>    1.9970    1.0000 </r>
       <r>    2.1512    1.0000 </r>
       <r>    2.2507    1.0000 </r>
       <r>    2.3381    1.0000 </r>
       <r>    2.5594    1.0000 </r>
       <r>    2.7595    1.0000 </r>
       <r>    2.7741    1.0000 </r>
       <r>    3.3690    1.0000 </r>
       <r>    3.7628    1.0000 </r>
       <r>    4.0066    1.0053 </r>
       <r>    5.8561   -0.0000 </r>
       <r>    6.7701   -0.0000 </r>
       <r>    7.0861    0.0000 </r>
       <r>    8.4144    0.0000 </r>
       <r>    8.5673    0.0000 </r>
       <r>    8.7677    0.0000 </r>
       <r>    9.1497    0.0000 </r>
       <r>    9.2421    0.0000 </r>
       <r>    9.9536    0.0000 </r>
       <r>   10.2831    0.0000 </r>
       <r>   10.7248    0.0000 </r>
       <r>   10.8282    0.0000 </r>
       <r>   10.8809    0.0000 </r>
       <r>   11.2701    0.0000 </r>
       <r>   11.7562    0.0000 </r>
       <r>   11.9164    0.0000 </r>
       <r>   11.9711    0.0000 </r>
       <r>   12.3592    0.0000 </r>
       <r>   12.5421    0.0000 </r>
       <r>   13.4531    0.0000 </r>
       <r>   14.2902    0.0000 </r>
       <r>   14.6734    0.0000 </r>
       <r>   16.7471    0.0000 </r>
       <r>   16.7564    0.0000 </r>
      </set>
      <set comment="kpoint 11">
       <r>  -68.6451    1.0000 </r>
       <r>  -68.6373    1.0000 </r>
       <r>  -68.6358    1.0000 </r>
       <r>  -68.6339    1.0000 </r>
       <r>  -68.6130    1.0000 </r>
       <r>  -68.6050    1.0000 </r>
       <r>  -68.5957    1.0000 </r>
       <r>  -68.5877    1.0000 </r>
       <r>  -68.5821    1.0000 </r>
       <r>  -68.5782    1.0000 </r>
       <r>  -68.5656    1.0000 </r>
       <r>  -68.5614    1.0000 </r>
       <r>  -12.6198    1.0000 </r>
       <r>  -11.4278    1.0000 </r>
       <r>  -10.7793    1.0000 </r>
       <r>  -10.6087    1.0000 </r>
       <r>  -10.2535    1.0000 </r>
       <r>  -10.2380    1.0000 </r>
       <r>   -5.8304    1.0000 </r>
       <r>   -5.0481    1.0000 </r>
       <r>   -2.6018    1.0000 </r>
       <r>   -2.3733    1.0000 </r>
       <r>   -1.9612    1.0000 </r>
       <r>   -1.7751    1.0000 </r>
       <r>   -1.4460    1.0000 </r>
       <r>   -1.1264    1.0000 </r>
       <r>   -1.0615    1.0000 </r>
       <r>   -0.7711    1.0000 </r>
       <r>   -0.4707    1.0000 </r>
       <r>   -0.2917    1.0000 </r>
       <r>   -0.2373    1.0000 </r>
       <r>   -0.2333    1.0000 </r>
       <r>   -0.1897    1.0000 </r>
       <r>   -0.1464    1.0000 </r>
       <r>   -0.0198    1.0000 </r>
       <r>    0.0264    1.0000 </r>
       <r>    1.3341    1.0000 </r>
       <r>    1.3832    1.0000 </r>
       <r>    1.4189    1.0000 </r>
       <r>    1.4404    1.0000 </r>
       <r>    1.4641    1.0000 </r>
       <r>    1.4662    1.0000 </r>
       <r>    1.5146    1.0000 </r>
       <r>    1.5451    1.0000 </r>
       <r>    1.6342    1.0000 </r>
       <r>    1.7584    1.0000 </r>
       <r>    1.7886    1.0000 </r>
       <r>    1.9515    1.0000 </r>
       <r>    2.0881    1.0000 </r>
       <r>    2.6603    1.0000 </r>
       <r>    2.7175    1.0000 </r>
       <r>    3.1969    1.0000 </r>
       <r>    3.2508    1.0000 </r>
       <r>    3.5193    1.0000 </r>
       <r>    3.8939    1.0000 </r>
       <r>    3.9748    1.0015 </r>
       <r>    6.0484   -0.0000 </r>
       <r>    6.4233   -0.0000 </r>
       <r>    7.8267    0.0000 </r>
       <r>    7.9066    0.0000 </r>
       <r>    8.3645    0.0000 </r>
       <r>    8.8210    0.0000 </r>
       <r>    9.7789    0.0000 </r>
       <r>    9.7973    0.0000 </r>
       <r>   10.0608    0.0000 </r>
       <r>   10.5906    0.0000 </r>
       <r>   10.6438    0.0000 </r>
       <r>   10.8158    0.0000 </r>
       <r>   10.8519    0.0000 </r>
       <r>   11.4929    0.0000 </r>
       <r>   11.5549    0.0000 </r>
       <r>   12.0281    0.0000 </r>
       <r>   12.5789    0.0000 </r>
       <r>   12.7720    0.0000 </r>
       <r>   12.9074    0.0000 </r>
       <r>   13.2051    0.0000 </r>
       <r>   13.5387    0.0000 </r>
       <r>   13.8232    0.0000 </r>
       <r>   14.1948    0.0000 </r>
       <r>   14.7108    0.0000 </r>
      </set>
      <set comment="kpoint 12">
       <r>  -68.6450    1.0000 </r>
       <r>  -68.6372    1.0000 </r>
       <r>  -68.6357    1.0000 </r>
       <r>  -68.6339    1.0000 </r>
       <r>  -68.6131    1.0000 </r>
       <r>  -68.6051    1.0000 </r>
       <r>  -68.5957    1.0000 </r>
       <r>  -68.5876    1.0000 </r>
       <r>  -68.5821    1.0000 </r>
       <r>  -68.5782    1.0000 </r>
       <r>  -68.5655    1.0000 </r>
       <r>  -68.5613    1.0000 </r>
       <r>  -12.4607    1.0000 </r>
       <r>  -11.4689    1.0000 </r>
       <r>  -10.8645    1.0000 </r>
       <r>  -10.6922    1.0000 </r>
       <r>  -10.3748    1.0000 </r>
       <r>  -10.2469    1.0000 </r>
       <r>   -5.7654    1.0000 </r>
       <r>   -4.8044    1.0000 </r>
       <r>   -2.4451    1.0000 </r>
       <r>   -2.2349    1.0000 </r>
       <r>   -1.8499    1.0000 </r>
       <r>   -1.7153    1.0000 </r>
       <r>   -1.4357    1.0000 </r>
       <r>   -1.1890    1.0000 </r>
       <r>   -0.8916    1.0000 </r>
       <r>   -0.7429    1.0000 </r>
       <r>   -0.6072    1.0000 </r>
       <r>   -0.5207    1.0000 </r>
       <r>   -0.3098    1.0000 </r>
       <r>   -0.2430    1.0000 </r>
       <r>   -0.1698    1.0000 </r>
       <r>   -0.1219    1.0000 </r>
       <r>   -0.0537    1.0000 </r>
       <r>    0.0629    1.0000 </r>
       <r>    1.3041    1.0000 </r>
       <r>    1.3379    1.0000 </r>
       <r>    1.3707    1.0000 </r>
       <r>    1.4296    1.0000 </r>
       <r>    1.4467    1.0000 </r>
       <r>    1.4819    1.0000 </r>
       <r>    1.5211    1.0000 </r>
       <r>    1.5473    1.0000 </r>
       <r>    1.6419    1.0000 </r>
       <r>    1.8710    1.0000 </r>
       <r>    1.9788    1.0000 </r>
       <r>    2.0479    1.0000 </r>
       <r>    2.1953    1.0000 </r>
       <r>    2.4760    1.0000 </r>
       <r>    2.5945    1.0000 </r>
       <r>    2.8399    1.0000 </r>
       <r>    2.9633    1.0000 </r>
       <r>    3.1329    1.0000 </r>
       <r>    3.5659    1.0000 </r>
       <r>    3.7242    1.0000 </r>
       <r>    6.4447   -0.0000 </r>
       <r>    6.9637    0.0000 </r>
       <r>    8.1725    0.0000 </r>
       <r>    8.2469    0.0000 </r>
       <r>    8.8351    0.0000 </r>
       <r>    9.1293    0.0000 </r>
       <r>    9.4699    0.0000 </r>
       <r>    9.7940    0.0000 </r>
       <r>   10.0847    0.0000 </r>
       <r>   10.3029    0.0000 </r>
       <r>   10.7425    0.0000 </r>
       <r>   11.0765    0.0000 </r>
       <r>   11.2862    0.0000 </r>
       <r>   11.4220    0.0000 </r>
       <r>   11.6326    0.0000 </r>
       <r>   11.7269    0.0000 </r>
       <r>   12.0821    0.0000 </r>
       <r>   12.2650    0.0000 </r>
       <r>   12.5383    0.0000 </r>
       <r>   12.6624    0.0000 </r>
       <r>   12.9549    0.0000 </r>
       <r>   13.0572    0.0000 </r>
       <r>   13.6411    0.0000 </r>
       <r>   14.6915    0.0000 </r>
      </set>
      <set comment="kpoint 13">
       <r>  -68.6448    1.0000 </r>
       <r>  -68.6370    1.0000 </r>
       <r>  -68.6357    1.0000 </r>
       <r>  -68.6338    1.0000 </r>
       <r>  -68.6129    1.0000 </r>
       <r>  -68.6049    1.0000 </r>
       <r>  -68.5956    1.0000 </r>
       <r>  -68.5875    1.0000 </r>
       <r>  -68.5820    1.0000 </r>
       <r>  -68.5781    1.0000 </r>
       <r>  -68.5654    1.0000 </r>
       <r>  -68.5613    1.0000 </r>
       <r>  -12.3583    1.0000 </r>
       <r>  -11.4150    1.0000 </r>
       <r>  -10.9537    1.0000 </r>
       <r>  -10.6894    1.0000 </r>
       <r>  -10.4797    1.0000 </r>
       <r>  -10.3343    1.0000 </r>
       <r>   -5.7501    1.0000 </r>
       <r>   -4.7218    1.0000 </r>
       <r>   -2.5228    1.0000 </r>
       <r>   -2.1865    1.0000 </r>
       <r>   -1.9545    1.0000 </r>
       <r>   -1.5369    1.0000 </r>
       <r>   -1.3020    1.0000 </r>
       <r>   -1.0991    1.0000 </r>
       <r>   -0.8710    1.0000 </r>
       <r>   -0.7561    1.0000 </r>
       <r>   -0.5488    1.0000 </r>
       <r>   -0.4443    1.0000 </r>
       <r>   -0.2876    1.0000 </r>
       <r>   -0.1804    1.0000 </r>
       <r>   -0.1407    1.0000 </r>
       <r>   -0.1075    1.0000 </r>
       <r>   -0.0458    1.0000 </r>
       <r>    0.0268    1.0000 </r>
       <r>    1.2734    1.0000 </r>
       <r>    1.2988    1.0000 </r>
       <r>    1.3537    1.0000 </r>
       <r>    1.4285    1.0000 </r>
       <r>    1.4532    1.0000 </r>
       <r>    1.4820    1.0000 </r>
       <r>    1.5006    1.0000 </r>
       <r>    1.5872    1.0000 </r>
       <r>    1.7197    1.0000 </r>
       <r>    1.9320    1.0000 </r>
       <r>    2.0758    1.0000 </r>
       <r>    2.1470    1.0000 </r>
       <r>    2.2678    1.0000 </r>
       <r>    2.4037    1.0000 </r>
       <r>    2.5698    1.0000 </r>
       <r>    2.5971    1.0000 </r>
       <r>    2.8973    1.0000 </r>
       <r>    3.0102    1.0000 </r>
       <r>    3.3599    1.0000 </r>
       <r>    3.8988    1.0000 </r>
       <r>    6.3691   -0.0000 </r>
       <r>    6.9020   -0.0000 </r>
       <r>    7.5730    0.0000 </r>
       <r>    8.0851    0.0000 </r>
       <r>    8.5481    0.0000 </r>
       <r>    8.8000    0.0000 </r>
       <r>    9.2777    0.0000 </r>
       <r>    9.6336    0.0000 </r>
       <r>    9.9304    0.0000 </r>
       <r>   10.2798    0.0000 </r>
       <r>   10.6633    0.0000 </r>
       <r>   10.9277    0.0000 </r>
       <r>   10.9708    0.0000 </r>
       <r>   11.2808    0.0000 </r>
       <r>   11.5176    0.0000 </r>
       <r>   11.7864    0.0000 </r>
       <r>   12.2491    0.0000 </r>
       <r>   12.5578    0.0000 </r>
       <r>   13.0910    0.0000 </r>
       <r>   13.5284    0.0000 </r>
       <r>   14.2955    0.0000 </r>
       <r>   14.6204    0.0000 </r>
       <r>   15.1184    0.0000 </r>
       <r>   16.2652    0.0000 </r>
      </set>
      <set comment="kpoint 14">
       <r>  -68.6451    1.0000 </r>
       <r>  -68.6372    1.0000 </r>
       <r>  -68.6358    1.0000 </r>
       <r>  -68.6339    1.0000 </r>
       <r>  -68.6130    1.0000 </r>
       <r>  -68.6050    1.0000 </r>
       <r>  -68.5957    1.0000 </r>
       <r>  -68.5876    1.0000 </r>
       <r>  -68.5821    1.0000 </r>
       <r>  -68.5782    1.0000 </r>
       <r>  -68.5656    1.0000 </r>
       <r>  -68.5614    1.0000 </r>
       <r>  -12.5434    1.0000 </r>
       <r>  -11.3394    1.0000 </r>
       <r>  -10.8738    1.0000 </r>
       <r>  -10.6089    1.0000 </r>
       <r>  -10.4015    1.0000 </r>
       <r>  -10.2831    1.0000 </r>
       <r>   -5.8235    1.0000 </r>
       <r>   -4.9754    1.0000 </r>
       <r>   -2.6667    1.0000 </r>
       <r>   -2.4535    1.0000 </r>
       <r>   -2.0386    1.0000 </r>
       <r>   -1.5774    1.0000 </r>
       <r>   -1.1730    1.0000 </r>
       <r>   -0.9850    1.0000 </r>
       <r>   -0.7934    1.0000 </r>
       <r>   -0.6519    1.0000 </r>
       <r>   -0.5164    1.0000 </r>
       <r>   -0.3919    1.0000 </r>
       <r>   -0.2681    1.0000 </r>
       <r>   -0.2527    1.0000 </r>
       <r>   -0.1909    1.0000 </r>
       <r>   -0.1421    1.0000 </r>
       <r>   -0.0468    1.0000 </r>
       <r>    0.0163    1.0000 </r>
       <r>    1.2910    1.0000 </r>
       <r>    1.3108    1.0000 </r>
       <r>    1.3884    1.0000 </r>
       <r>    1.4098    1.0000 </r>
       <r>    1.4353    1.0000 </r>
       <r>    1.4579    1.0000 </r>
       <r>    1.4931    1.0000 </r>
       <r>    1.5659    1.0000 </r>
       <r>    1.6887    1.0000 </r>
       <r>    1.9170    1.0000 </r>
       <r>    1.9861    1.0000 </r>
       <r>    2.1456    1.0000 </r>
       <r>    2.3343    1.0000 </r>
       <r>    2.5640    1.0000 </r>
       <r>    2.6169    1.0000 </r>
       <r>    2.8294    1.0000 </r>
       <r>    2.9729    1.0000 </r>
       <r>    3.2478    1.0000 </r>
       <r>    3.6818    1.0000 </r>
       <r>    3.9434    1.0003 </r>
       <r>    6.1818   -0.0000 </r>
       <r>    6.6436   -0.0000 </r>
       <r>    7.7667    0.0000 </r>
       <r>    7.9745    0.0000 </r>
       <r>    8.2168    0.0000 </r>
       <r>    8.5621    0.0000 </r>
       <r>    9.3800    0.0000 </r>
       <r>    9.5779    0.0000 </r>
       <r>    9.9072    0.0000 </r>
       <r>   10.2485    0.0000 </r>
       <r>   10.5484    0.0000 </r>
       <r>   10.7888    0.0000 </r>
       <r>   10.8436    0.0000 </r>
       <r>   11.0672    0.0000 </r>
       <r>   11.5655    0.0000 </r>
       <r>   12.0217    0.0000 </r>
       <r>   12.5254    0.0000 </r>
       <r>   12.7450    0.0000 </r>
       <r>   12.9584    0.0000 </r>
       <r>   13.3083    0.0000 </r>
       <r>   13.4120    0.0000 </r>
       <r>   13.7433    0.0000 </r>
       <r>   13.8483    0.0000 </r>
       <r>   14.7240    0.0000 </r>
      </set>
      <set comment="kpoint 15">
       <r>  -68.6450    1.0000 </r>
       <r>  -68.6372    1.0000 </r>
       <r>  -68.6357    1.0000 </r>
       <r>  -68.6339    1.0000 </r>
       <r>  -68.6131    1.0000 </r>
       <r>  -68.6051    1.0000 </r>
       <r>  -68.5957    1.0000 </r>
       <r>  -68.5876    1.0000 </r>
       <r>  -68.5821    1.0000 </r>
       <r>  -68.5782    1.0000 </r>
       <r>  -68.5655    1.0000 </r>
       <r>  -68.5613    1.0000 </r>
       <r>  -12.4607    1.0000 </r>
       <r>  -11.4695    1.0000 </r>
       <r>  -10.8654    1.0000 </r>
       <r>  -10.6900    1.0000 </r>
       <r>  -10.3738    1.0000 </r>
       <r>  -10.2481    1.0000 </r>
       <r>   -5.7663    1.0000 </r>
       <r>   -4.8053    1.0000 </r>
       <r>   -2.4454    1.0000 </r>
       <r>   -2.2344    1.0000 </r>
       <r>   -1.8491    1.0000 </r>
       <r>   -1.7155    1.0000 </r>
       <r>   -1.4324    1.0000 </r>
       <r>   -1.1915    1.0000 </r>
       <r>   -0.8917    1.0000 </r>
       <r>   -0.7439    1.0000 </r>
       <r>   -0.6045    1.0000 </r>
       <r>   -0.5204    1.0000 </r>
       <r>   -0.3127    1.0000 </r>
       <r>   -0.2431    1.0000 </r>
       <r>   -0.1721    1.0000 </r>
       <r>   -0.1219    1.0000 </r>
       <r>   -0.0529    1.0000 </r>
       <r>    0.0649    1.0000 </r>
       <r>    1.3020    1.0000 </r>
       <r>    1.3374    1.0000 </r>
       <r>    1.3705    1.0000 </r>
       <r>    1.4310    1.0000 </r>
       <r>    1.4486    1.0000 </r>
       <r>    1.4809    1.0000 </r>
       <r>    1.5222    1.0000 </r>
       <r>    1.5469    1.0000 </r>
       <r>    1.6421    1.0000 </r>
       <r>    1.8722    1.0000 </r>
       <r>    1.9779    1.0000 </r>
       <r>    2.0481    1.0000 </r>
       <r>    2.1967    1.0000 </r>
       <r>    2.4761    1.0000 </r>
       <r>    2.5954    1.0000 </r>
       <r>    2.8405    1.0000 </r>
       <r>    2.9633    1.0000 </r>
       <r>    3.1314    1.0000 </r>
       <r>    3.5666    1.0000 </r>
       <r>    3.7228    1.0000 </r>
       <r>    6.4429   -0.0000 </r>
       <r>    6.9636    0.0000 </r>
       <r>    8.1709    0.0000 </r>
       <r>    8.2516    0.0000 </r>
       <r>    8.8343    0.0000 </r>
       <r>    9.1266    0.0000 </r>
       <r>    9.4636    0.0000 </r>
       <r>    9.8029    0.0000 </r>
       <r>   10.0845    0.0000 </r>
       <r>   10.3006    0.0000 </r>
       <r>   10.7420    0.0000 </r>
       <r>   11.0748    0.0000 </r>
       <r>   11.2902    0.0000 </r>
       <r>   11.4187    0.0000 </r>
       <r>   11.6303    0.0000 </r>
       <r>   11.7218    0.0000 </r>
       <r>   12.0799    0.0000 </r>
       <r>   12.2708    0.0000 </r>
       <r>   12.5433    0.0000 </r>
       <r>   12.6568    0.0000 </r>
       <r>   12.9547    0.0000 </r>
       <r>   13.0604    0.0000 </r>
       <r>   13.6564    0.0000 </r>
       <r>   14.6958    0.0000 </r>
      </set>
      <set comment="kpoint 16">
       <r>  -68.6450    1.0000 </r>
       <r>  -68.6371    1.0000 </r>
       <r>  -68.6356    1.0000 </r>
       <r>  -68.6337    1.0000 </r>
       <r>  -68.6129    1.0000 </r>
       <r>  -68.6049    1.0000 </r>
       <r>  -68.5956    1.0000 </r>
       <r>  -68.5875    1.0000 </r>
       <r>  -68.5820    1.0000 </r>
       <r>  -68.5781    1.0000 </r>
       <r>  -68.5654    1.0000 </r>
       <r>  -68.5612    1.0000 </r>
       <r>  -12.3290    1.0000 </r>
       <r>  -11.4775    1.0000 </r>
       <r>  -10.8664    1.0000 </r>
       <r>  -10.8567    1.0000 </r>
       <r>  -10.4087    1.0000 </r>
       <r>  -10.2879    1.0000 </r>
       <r>   -5.7472    1.0000 </r>
       <r>   -4.6920    1.0000 </r>
       <r>   -2.2427    1.0000 </r>
       <r>   -2.1391    1.0000 </r>
       <r>   -1.9293    1.0000 </r>
       <r>   -1.8498    1.0000 </r>
       <r>   -1.4541    1.0000 </r>
       <r>   -1.3973    1.0000 </r>
       <r>   -1.0428    1.0000 </r>
       <r>   -0.5198    1.0000 </r>
       <r>   -0.4601    1.0000 </r>
       <r>   -0.3484    1.0000 </r>
       <r>   -0.2493    1.0000 </r>
       <r>   -0.2173    1.0000 </r>
       <r>   -0.1595    1.0000 </r>
       <r>   -0.1110    1.0000 </r>
       <r>   -0.0876    1.0000 </r>
       <r>    0.0823    1.0000 </r>
       <r>    1.2632    1.0000 </r>
       <r>    1.3488    1.0000 </r>
       <r>    1.3962    1.0000 </r>
       <r>    1.4366    1.0000 </r>
       <r>    1.4532    1.0000 </r>
       <r>    1.5110    1.0000 </r>
       <r>    1.5362    1.0000 </r>
       <r>    1.5475    1.0000 </r>
       <r>    1.7519    1.0000 </r>
       <r>    1.8194    1.0000 </r>
       <r>    2.0404    1.0000 </r>
       <r>    2.1356    1.0000 </r>
       <r>    2.2850    1.0000 </r>
       <r>    2.3095    1.0000 </r>
       <r>    2.5228    1.0000 </r>
       <r>    2.7678    1.0000 </r>
       <r>    2.8995    1.0000 </r>
       <r>    3.2625    1.0000 </r>
       <r>    3.4955    1.0000 </r>
       <r>    3.7995    1.0000 </r>
       <r>    6.1858   -0.0000 </r>
       <r>    6.8473   -0.0000 </r>
       <r>    7.8260    0.0000 </r>
       <r>    8.0450    0.0000 </r>
       <r>    8.1912    0.0000 </r>
       <r>    8.7279    0.0000 </r>
       <r>    9.1565    0.0000 </r>
       <r>    9.3070    0.0000 </r>
       <r>   10.2209    0.0000 </r>
       <r>   10.4393    0.0000 </r>
       <r>   10.5905    0.0000 </r>
       <r>   11.0059    0.0000 </r>
       <r>   11.2438    0.0000 </r>
       <r>   11.4850    0.0000 </r>
       <r>   11.8137    0.0000 </r>
       <r>   12.1720    0.0000 </r>
       <r>   12.2049    0.0000 </r>
       <r>   12.5753    0.0000 </r>
       <r>   12.6922    0.0000 </r>
       <r>   13.1070    0.0000 </r>
       <r>   13.4159    0.0000 </r>
       <r>   13.8849    0.0000 </r>
       <r>   14.0052    0.0000 </r>
       <r>   14.5310    0.0000 </r>
      </set>
      <set comment="kpoint 17">
       <r>  -68.6448    1.0000 </r>
       <r>  -68.6370    1.0000 </r>
       <r>  -68.6356    1.0000 </r>
       <r>  -68.6339    1.0000 </r>
       <r>  -68.6129    1.0000 </r>
       <r>  -68.6050    1.0000 </r>
       <r>  -68.5957    1.0000 </r>
       <r>  -68.5875    1.0000 </r>
       <r>  -68.5820    1.0000 </r>
       <r>  -68.5782    1.0000 </r>
       <r>  -68.5654    1.0000 </r>
       <r>  -68.5612    1.0000 </r>
       <r>  -12.3759    1.0000 </r>
       <r>  -11.4751    1.0000 </r>
       <r>  -10.9367    1.0000 </r>
       <r>  -10.6567    1.0000 </r>
       <r>  -10.4215    1.0000 </r>
       <r>  -10.3059    1.0000 </r>
       <r>   -5.7992    1.0000 </r>
       <r>   -4.8366    1.0000 </r>
       <r>   -2.5278    1.0000 </r>
       <r>   -2.2448    1.0000 </r>
       <r>   -1.8710    1.0000 </r>
       <r>   -1.6439    1.0000 </r>
       <r>   -1.5050    1.0000 </r>
       <r>   -1.3090    1.0000 </r>
       <r>   -0.9046    1.0000 </r>
       <r>   -0.5308    1.0000 </r>
       <r>   -0.3769    1.0000 </r>
       <r>   -0.3517    1.0000 </r>
       <r>   -0.2222    1.0000 </r>
       <r>   -0.1790    1.0000 </r>
       <r>   -0.1579    1.0000 </r>
       <r>   -0.0751    1.0000 </r>
       <r>   -0.0251    1.0000 </r>
       <r>    0.0796    1.0000 </r>
       <r>    1.1904    1.0000 </r>
       <r>    1.3653    1.0000 </r>
       <r>    1.3994    1.0000 </r>
       <r>    1.4425    1.0000 </r>
       <r>    1.4636    1.0000 </r>
       <r>    1.5078    1.0000 </r>
       <r>    1.5218    1.0000 </r>
       <r>    1.5846    1.0000 </r>
       <r>    1.7406    1.0000 </r>
       <r>    1.8181    1.0000 </r>
       <r>    2.0360    1.0000 </r>
       <r>    2.2361    1.0000 </r>
       <r>    2.2692    1.0000 </r>
       <r>    2.3635    1.0000 </r>
       <r>    2.4864    1.0000 </r>
       <r>    2.6712    1.0000 </r>
       <r>    3.0512    1.0000 </r>
       <r>    3.4104    1.0000 </r>
       <r>    3.7290    1.0000 </r>
       <r>    3.8639    1.0000 </r>
       <r>    5.9352   -0.0000 </r>
       <r>    6.6197   -0.0000 </r>
       <r>    7.3529    0.0000 </r>
       <r>    7.9416    0.0000 </r>
       <r>    8.0687    0.0000 </r>
       <r>    8.7295    0.0000 </r>
       <r>    8.9064    0.0000 </r>
       <r>    9.1364    0.0000 </r>
       <r>    9.8426    0.0000 </r>
       <r>   10.3270    0.0000 </r>
       <r>   10.5556    0.0000 </r>
       <r>   10.9285    0.0000 </r>
       <r>   11.2259    0.0000 </r>
       <r>   11.4158    0.0000 </r>
       <r>   11.7473    0.0000 </r>
       <r>   12.0035    0.0000 </r>
       <r>   12.4951    0.0000 </r>
       <r>   12.8384    0.0000 </r>
       <r>   13.2102    0.0000 </r>
       <r>   14.1836    0.0000 </r>
       <r>   14.7036    0.0000 </r>
       <r>   15.1524    0.0000 </r>
       <r>   15.9151    0.0000 </r>
       <r>   16.5617    0.0000 </r>
      </set>
      <set comment="kpoint 18">
       <r>  -68.6450    1.0000 </r>
       <r>  -68.6373    1.0000 </r>
       <r>  -68.6357    1.0000 </r>
       <r>  -68.6339    1.0000 </r>
       <r>  -68.6130    1.0000 </r>
       <r>  -68.6050    1.0000 </r>
       <r>  -68.5958    1.0000 </r>
       <r>  -68.5877    1.0000 </r>
       <r>  -68.5820    1.0000 </r>
       <r>  -68.5782    1.0000 </r>
       <r>  -68.5655    1.0000 </r>
       <r>  -68.5613    1.0000 </r>
       <r>  -12.5021    1.0000 </r>
       <r>  -11.4276    1.0000 </r>
       <r>  -10.9482    1.0000 </r>
       <r>  -10.5829    1.0000 </r>
       <r>  -10.3768    1.0000 </r>
       <r>  -10.2102    1.0000 </r>
       <r>   -5.8275    1.0000 </r>
       <r>   -4.9412    1.0000 </r>
       <r>   -2.5729    1.0000 </r>
       <r>   -2.3665    1.0000 </r>
       <r>   -1.9183    1.0000 </r>
       <r>   -1.5950    1.0000 </r>
       <r>   -1.4169    1.0000 </r>
       <r>   -1.1210    1.0000 </r>
       <r>   -0.8160    1.0000 </r>
       <r>   -0.6763    1.0000 </r>
       <r>   -0.5325    1.0000 </r>
       <r>   -0.4667    1.0000 </r>
       <r>   -0.2537    1.0000 </r>
       <r>   -0.1977    1.0000 </r>
       <r>   -0.1655    1.0000 </r>
       <r>   -0.1174    1.0000 </r>
       <r>   -0.0354    1.0000 </r>
       <r>    0.0608    1.0000 </r>
       <r>    1.2809    1.0000 </r>
       <r>    1.3252    1.0000 </r>
       <r>    1.3447    1.0000 </r>
       <r>    1.4352    1.0000 </r>
       <r>    1.4532    1.0000 </r>
       <r>    1.4709    1.0000 </r>
       <r>    1.4940    1.0000 </r>
       <r>    1.5568    1.0000 </r>
       <r>    1.7272    1.0000 </r>
       <r>    1.8431    1.0000 </r>
       <r>    1.9705    1.0000 </r>
       <r>    2.0982    1.0000 </r>
       <r>    2.3363    1.0000 </r>
       <r>    2.4494    1.0000 </r>
       <r>    2.5428    1.0000 </r>
       <r>    2.8496    1.0000 </r>
       <r>    3.0516    1.0000 </r>
       <r>    3.2625    1.0000 </r>
       <r>    3.6723    1.0000 </r>
       <r>    3.7804    1.0000 </r>
       <r>    6.2643   -0.0000 </r>
       <r>    6.8063   -0.0000 </r>
       <r>    7.8128    0.0000 </r>
       <r>    8.1400    0.0000 </r>
       <r>    8.3410    0.0000 </r>
       <r>    8.9316    0.0000 </r>
       <r>    9.3399    0.0000 </r>
[...]
       <r>   11.7063    0.0000 </r>
       <r>   11.8933    0.0000 </r>
       <r>   12.3011    0.0000 </r>
       <r>   12.6616    0.0000 </r>
       <r>   13.0089    0.0000 </r>
       <r>   13.2296    0.0000 </r>
       <r>   13.6661    0.0000 </r>
       <r>   14.0646    0.0000 </r>
       <r>   14.3969    0.0000 </r>
       <r>   16.5118    0.0000 </r>
      </set>
      <set comment="kpoint 42">
       <r>  -68.6450    1.0000 </r>
       <r>  -68.6369    1.0000 </r>
       <r>  -68.6357    1.0000 </r>
       <r>  -68.6337    1.0000 </r>
       <r>  -68.6129    1.0000 </r>
       <r>  -68.6050    1.0000 </r>
       <r>  -68.5955    1.0000 </r>
       <r>  -68.5874    1.0000 </r>
       <r>  -68.5820    1.0000 </r>
       <r>  -68.5781    1.0000 </r>
       <r>  -68.5655    1.0000 </r>
       <r>  -68.5613    1.0000 </r>
       <r>  -12.1809    1.0000 </r>
       <r>  -11.7084    1.0000 </r>
       <r>  -10.7185    1.0000 </r>
       <r>  -10.6940    1.0000 </r>
       <r>  -10.5885    1.0000 </r>
       <r>  -10.3928    1.0000 </r>
       <r>   -5.4450    1.0000 </r>
       <r>   -5.0724    1.0000 </r>
       <r>   -2.5077    1.0000 </r>
       <r>   -2.3822    1.0000 </r>
       <r>   -1.9654    1.0000 </r>
       <r>   -1.3661    1.0000 </r>
       <r>   -1.3329    1.0000 </r>
       <r>   -1.0562    1.0000 </r>
       <r>   -0.8327    1.0000 </r>
       <r>   -0.7669    1.0000 </r>
       <r>   -0.4222    1.0000 </r>
       <r>   -0.3359    1.0000 </r>
       <r>   -0.2706    1.0000 </r>
       <r>   -0.2099    1.0000 </r>
       <r>   -0.1421    1.0000 </r>
       <r>   -0.1362    1.0000 </r>
       <r>   -0.0118    1.0000 </r>
       <r>    0.0283    1.0000 </r>
       <r>    1.1745    1.0000 </r>
       <r>    1.3720    1.0000 </r>
       <r>    1.3981    1.0000 </r>
       <r>    1.4533    1.0000 </r>
       <r>    1.4564    1.0000 </r>
       <r>    1.4986    1.0000 </r>
       <r>    1.5175    1.0000 </r>
       <r>    1.5524    1.0000 </r>
       <r>    1.7434    1.0000 </r>
       <r>    1.8222    1.0000 </r>
       <r>    1.9769    1.0000 </r>
       <r>    2.2292    1.0000 </r>
       <r>    2.3970    1.0000 </r>
       <r>    2.6094    1.0000 </r>
       <r>    2.6549    1.0000 </r>
       <r>    2.9141    1.0000 </r>
       <r>    3.0696    1.0000 </r>
       <r>    3.1149    1.0000 </r>
       <r>    3.2870    1.0000 </r>
       <r>    3.5826    1.0000 </r>
       <r>    6.2957   -0.0000 </r>
       <r>    6.3814   -0.0000 </r>
       <r>    7.3626    0.0000 </r>
       <r>    7.5232    0.0000 </r>
       <r>    8.3093    0.0000 </r>
       <r>    8.3360    0.0000 </r>
       <r>    9.1029    0.0000 </r>
       <r>    9.3588    0.0000 </r>
       <r>    9.7168    0.0000 </r>
       <r>    9.9502    0.0000 </r>
       <r>   10.5264    0.0000 </r>
       <r>   10.9877    0.0000 </r>
       <r>   11.4255    0.0000 </r>
       <r>   11.5673    0.0000 </r>
       <r>   12.0226    0.0000 </r>
       <r>   12.2775    0.0000 </r>
       <r>   12.4285    0.0000 </r>
       <r>   12.4735    0.0000 </r>
       <r>   13.0339    0.0000 </r>
       <r>   13.1558    0.0000 </r>
       <r>   14.1416    0.0000 </r>
       <r>   14.4320    0.0000 </r>
       <r>   15.1601    0.0000 </r>
       <r>   15.8618    0.0000 </r>
      </set>
     </set>
    </set>
   </array>
  </eigenvalues>
  <separator name="orbital magnetization" >
   <v name="MAGDIPOLOUT">      0.00000000      0.00000000      0.00000000</v>
  </separator>
  <dos>
   <i name="efermi">      4.21918625 </i>
   <total>
    <array>
     <dimension dim="1">gridpoints</dimension>
     <dimension dim="2">spin</dimension>
     <field>energy</field>
     <field>total</field>
     <field>integrated</field>
     <set>
      <set comment="spin 1">
       <r>   -72.8301     0.0000     0.0000 </r>
       <r>   -72.5238     0.0000     0.0000 </r>
       <r>   -72.2174     0.0000     0.0000 </r>
       <r>   -71.9110     0.0000     0.0000 </r>
       <r>   -71.6046     0.0000     0.0000 </r>
       <r>   -71.2982     0.0000     0.0000 </r>
       <r>   -70.9918     0.0000     0.0000 </r>
       <r>   -70.6855     0.0000     0.0000 </r>
       <r>   -70.3791     0.0000     0.0000 </r>
       <r>   -70.0727     0.0000     0.0000 </r>
       <r>   -69.7663     0.0000     0.0000 </r>
       <r>   -69.4599    -0.0000    -0.0000 </r>
       <r>   -69.1536    -0.0000    -0.0000 </r>
       <r>   -68.8472    -0.2014    -0.0617 </r>
       <r>   -68.5408    70.1743    21.4384 </r>
       <r>   -68.2344     8.3613    24.0001 </r>
       <r>   -67.9280    -0.0003    24.0000 </r>
       <r>   -67.6217     0.0000    24.0000 </r>
       <r>   -67.3153     0.0000    24.0000 </r>
       <r>   -67.0089     0.0000    24.0000 </r>
       <r>   -66.7025     0.0000    24.0000 </r>
       <r>   -66.3961     0.0000    24.0000 </r>
       <r>   -66.0898     0.0000    24.0000 </r>
       <r>   -65.7834     0.0000    24.0000 </r>
       <r>   -65.4770     0.0000    24.0000 </r>
       <r>   -65.1706     0.0000    24.0000 </r>
       <r>   -64.8642     0.0000    24.0000 </r>
       <r>   -64.5578     0.0000    24.0000 </r>
       <r>   -64.2515     0.0000    24.0000 </r>
       <r>   -63.9451     0.0000    24.0000 </r>
       <r>   -63.6387     0.0000    24.0000 </r>
       <r>   -63.3323     0.0000    24.0000 </r>
       <r>   -63.0259     0.0000    24.0000 </r>
       <r>   -62.7196     0.0000    24.0000 </r>
       <r>   -62.4132     0.0000    24.0000 </r>
       <r>   -62.1068     0.0000    24.0000 </r>
       <r>   -61.8004     0.0000    24.0000 </r>
       <r>   -61.4940     0.0000    24.0000 </r>
       <r>   -61.1877     0.0000    24.0000 </r>
       <r>   -60.8813     0.0000    24.0000 </r>
       <r>   -60.5749     0.0000    24.0000 </r>
       <r>   -60.2685     0.0000    24.0000 </r>
       <r>   -59.9621     0.0000    24.0000 </r>
       <r>   -59.6557     0.0000    24.0000 </r>
       <r>   -59.3494     0.0000    24.0000 </r>
       <r>   -59.0430     0.0000    24.0000 </r>
       <r>   -58.7366     0.0000    24.0000 </r>
       <r>   -58.4302     0.0000    24.0000 </r>
       <r>   -58.1238     0.0000    24.0000 </r>
       <r>   -57.8175     0.0000    24.0000 </r>
       <r>   -57.5111     0.0000    24.0000 </r>
       <r>   -57.2047     0.0000    24.0000 </r>
       <r>   -56.8983     0.0000    24.0000 </r>
       <r>   -56.5919     0.0000    24.0000 </r>
       <r>   -56.2856     0.0000    24.0000 </r>
       <r>   -55.9792     0.0000    24.0000 </r>
       <r>   -55.6728     0.0000    24.0000 </r>
       <r>   -55.3664     0.0000    24.0000 </r>
       <r>   -55.0600     0.0000    24.0000 </r>
       <r>   -54.7537     0.0000    24.0000 </r>
       <r>   -54.4473     0.0000    24.0000 </r>
       <r>   -54.1409     0.0000    24.0000 </r>
       <r>   -53.8345     0.0000    24.0000 </r>
       <r>   -53.5281     0.0000    24.0000 </r>
       <r>   -53.2217     0.0000    24.0000 </r>
       <r>   -52.9154     0.0000    24.0000 </r>
       <r>   -52.6090     0.0000    24.0000 </r>
       <r>   -52.3026     0.0000    24.0000 </r>
       <r>   -51.9962     0.0000    24.0000 </r>
       <r>   -51.6898     0.0000    24.0000 </r>
       <r>   -51.3835     0.0000    24.0000 </r>
       <r>   -51.0771     0.0000    24.0000 </r>
       <r>   -50.7707     0.0000    24.0000 </r>
       <r>   -50.4643     0.0000    24.0000 </r>
       <r>   -50.1579     0.0000    24.0000 </r>
       <r>   -49.8516     0.0000    24.0000 </r>
       <r>   -49.5452     0.0000    24.0000 </r>
       <r>   -49.2388     0.0000    24.0000 </r>
       <r>   -48.9324     0.0000    24.0000 </r>
       <r>   -48.6260     0.0000    24.0000 </r>
       <r>   -48.3197     0.0000    24.0000 </r>
       <r>   -48.0133     0.0000    24.0000 </r>
       <r>   -47.7069     0.0000    24.0000 </r>
       <r>   -47.4005     0.0000    24.0000 </r>
       <r>   -47.0941     0.0000    24.0000 </r>
       <r>   -46.7877     0.0000    24.0000 </r>
       <r>   -46.4814     0.0000    24.0000 </r>
       <r>   -46.1750     0.0000    24.0000 </r>
       <r>   -45.8686     0.0000    24.0000 </r>
       <r>   -45.5622     0.0000    24.0000 </r>
       <r>   -45.2558     0.0000    24.0000 </r>
       <r>   -44.9495     0.0000    24.0000 </r>
       <r>   -44.6431     0.0000    24.0000 </r>
       <r>   -44.3367     0.0000    24.0000 </r>
       <r>   -44.0303     0.0000    24.0000 </r>
       <r>   -43.7239     0.0000    24.0000 </r>
       <r>   -43.4176     0.0000    24.0000 </r>
       <r>   -43.1112     0.0000    24.0000 </r>
       <r>   -42.8048     0.0000    24.0000 </r>
       <r>   -42.4984     0.0000    24.0000 </r>
       <r>   -42.1920     0.0000    24.0000 </r>
       <r>   -41.8856     0.0000    24.0000 </r>
       <r>   -41.5793     0.0000    24.0000 </r>
       <r>   -41.2729     0.0000    24.0000 </r>
       <r>   -40.9665     0.0000    24.0000 </r>
       <r>   -40.6601     0.0000    24.0000 </r>
       <r>   -40.3537     0.0000    24.0000 </r>
       <r>   -40.0474     0.0000    24.0000 </r>
       <r>   -39.7410     0.0000    24.0000 </r>
       <r>   -39.4346     0.0000    24.0000 </r>
       <r>   -39.1282     0.0000    24.0000 </r>
       <r>   -38.8218     0.0000    24.0000 </r>
       <r>   -38.5155     0.0000    24.0000 </r>
       <r>   -38.2091     0.0000    24.0000 </r>
       <r>   -37.9027     0.0000    24.0000 </r>
       <r>   -37.5963     0.0000    24.0000 </r>
       <r>   -37.2899     0.0000    24.0000 </r>
       <r>   -36.9836     0.0000    24.0000 </r>
       <r>   -36.6772     0.0000    24.0000 </r>
       <r>   -36.3708     0.0000    24.0000 </r>
       <r>   -36.0644     0.0000    24.0000 </r>
       <r>   -35.7580     0.0000    24.0000 </r>
       <r>   -35.4516     0.0000    24.0000 </r>
       <r>   -35.1453     0.0000    24.0000 </r>
       <r>   -34.8389     0.0000    24.0000 </r>
       <r>   -34.5325     0.0000    24.0000 </r>
       <r>   -34.2261     0.0000    24.0000 </r>
       <r>   -33.9197     0.0000    24.0000 </r>
       <r>   -33.6134     0.0000    24.0000 </r>
       <r>   -33.3070     0.0000    24.0000 </r>
       <r>   -33.0006     0.0000    24.0000 </r>
       <r>   -32.6942     0.0000    24.0000 </r>
       <r>   -32.3878     0.0000    24.0000 </r>
       <r>   -32.0815     0.0000    24.0000 </r>
       <r>   -31.7751     0.0000    24.0000 </r>
       <r>   -31.4687     0.0000    24.0000 </r>
       <r>   -31.1623     0.0000    24.0000 </r>
       <r>   -30.8559     0.0000    24.0000 </r>
       <r>   -30.5496     0.0000    24.0000 </r>
       <r>   -30.2432     0.0000    24.0000 </r>
       <r>   -29.9368     0.0000    24.0000 </r>
       <r>   -29.6304     0.0000    24.0000 </r>
       <r>   -29.3240     0.0000    24.0000 </r>
       <r>   -29.0176     0.0000    24.0000 </r>
       <r>   -28.7113     0.0000    24.0000 </r>
       <r>   -28.4049     0.0000    24.0000 </r>
       <r>   -28.0985     0.0000    24.0000 </r>
       <r>   -27.7921     0.0000    24.0000 </r>
       <r>   -27.4857     0.0000    24.0000 </r>
       <r>   -27.1794     0.0000    24.0000 </r>
       <r>   -26.8730     0.0000    24.0000 </r>
       <r>   -26.5666     0.0000    24.0000 </r>
       <r>   -26.2602     0.0000    24.0000 </r>
       <r>   -25.9538     0.0000    24.0000 </r>
       <r>   -25.6475     0.0000    24.0000 </r>
       <r>   -25.3411     0.0000    24.0000 </r>
       <r>   -25.0347     0.0000    24.0000 </r>
       <r>   -24.7283     0.0000    24.0000 </r>
       <r>   -24.4219     0.0000    24.0000 </r>
       <r>   -24.1155     0.0000    24.0000 </r>
       <r>   -23.8092     0.0000    24.0000 </r>
       <r>   -23.5028     0.0000    24.0000 </r>
       <r>   -23.1964     0.0000    24.0000 </r>
       <r>   -22.8900     0.0000    24.0000 </r>
       <r>   -22.5836     0.0000    24.0000 </r>
       <r>   -22.2773     0.0000    24.0000 </r>
       <r>   -21.9709     0.0000    24.0000 </r>
       <r>   -21.6645     0.0000    24.0000 </r>
       <r>   -21.3581     0.0000    24.0000 </r>
       <r>   -21.0517     0.0000    24.0000 </r>
       <r>   -20.7454     0.0000    24.0000 </r>
       <r>   -20.4390     0.0000    24.0000 </r>
       <r>   -20.1326     0.0000    24.0000 </r>
       <r>   -19.8262     0.0000    24.0000 </r>
       <r>   -19.5198     0.0000    24.0000 </r>
       <r>   -19.2135     0.0000    24.0000 </r>
       <r>   -18.9071     0.0000    24.0000 </r>
       <r>   -18.6007     0.0000    24.0000 </r>
       <r>   -18.2943     0.0000    24.0000 </r>
       <r>   -17.9879     0.0000    24.0000 </r>
       <r>   -17.6815     0.0000    24.0000 </r>
       <r>   -17.3752     0.0000    24.0000 </r>
       <r>   -17.0688     0.0000    24.0000 </r>
       <r>   -16.7624     0.0000    24.0000 </r>
       <r>   -16.4560     0.0000    24.0000 </r>
       <r>   -16.1496     0.0000    24.0000 </r>
       <r>   -15.8433     0.0000    24.0000 </r>
       <r>   -15.5369     0.0000    24.0000 </r>
       <r>   -15.2305     0.0000    24.0000 </r>
       <r>   -14.9241     0.0000    24.0000 </r>
       <r>   -14.6177     0.0000    24.0000 </r>
       <r>   -14.3114     0.0000    24.0000 </r>
       <r>   -14.0050     0.0000    24.0000 </r>
       <r>   -13.6986    -0.0000    24.0000 </r>
       <r>   -13.3922    -0.0000    24.0000 </r>
       <r>   -13.0858    -0.0000    24.0000 </r>
       <r>   -12.7795    -0.0037    23.9989 </r>
       <r>   -12.4731     1.5728    24.4807 </r>
       <r>   -12.1667     3.5684    25.5740 </r>
       <r>   -11.8603     1.9011    26.1565 </r>
       <r>   -11.5539     2.1355    26.8108 </r>
       <r>   -11.2475     3.1974    27.7904 </r>
       <r>   -10.9412     2.5284    28.5650 </r>
       <r>   -10.6348     9.3484    31.4292 </r>
       <r>   -10.3284     9.4278    34.3177 </r>
       <r>   -10.0220     5.5075    36.0051 </r>
       <r>    -9.7156    -0.0167    36.0000 </r>
       <r>    -9.4093    -0.0000    36.0000 </r>
       <r>    -9.1029     0.0000    36.0000 </r>
       <r>    -8.7965     0.0000    36.0000 </r>
       <r>    -8.4901     0.0000    36.0000 </r>
       <r>    -8.1837     0.0000    36.0000 </r>
       <r>    -7.8774     0.0000    36.0000 </r>
       <r>    -7.5710     0.0000    36.0000 </r>
       <r>    -7.2646     0.0000    36.0000 </r>
       <r>    -6.9582    -0.0000    36.0000 </r>
       <r>    -6.6518    -0.0000    36.0000 </r>
       <r>    -6.3454    -0.0000    36.0000 </r>
       <r>    -6.0391     0.0533    36.0163 </r>
       <r>    -5.7327     3.4847    37.0840 </r>
       <r>    -5.4263     2.0538    37.7132 </r>
       <r>    -5.1199     1.8837    38.2904 </r>
       <r>    -4.8135     3.3094    39.3043 </r>
       <r>    -4.5072     2.2066    39.9804 </r>
       <r>    -4.2008     0.0641    40.0000 </r>
       <r>    -3.8944    -0.0000    40.0000 </r>
       <r>    -3.5880    -0.0000    40.0000 </r>
       <r>    -3.2816    -0.0000    40.0000 </r>
       <r>    -2.9753    -0.0004    39.9999 </r>
       <r>    -2.6689     0.3889    40.1190 </r>
       <r>    -2.3625     6.1596    42.0062 </r>
       <r>    -2.0561     6.6925    44.0567 </r>
       <r>    -1.7497     7.3430    46.3064 </r>
       <r>    -1.4434     6.4152    48.2719 </r>
       <r>    -1.1370     8.7400    50.9497 </r>
       <r>    -0.8306     9.0959    53.7365 </r>
       <r>    -0.5242    11.2894    57.1953 </r>
       <r>    -0.2178    18.0836    62.7358 </r>
       <r>     0.0886    29.0255    71.6287 </r>
       <r>     0.3949     1.2126    72.0002 </r>
       <r>     0.7013    -0.0006    72.0000 </r>
       <r>     1.0077    -0.0195    71.9940 </r>
       <r>     1.3141     7.2992    74.2304 </r>
       <r>     1.6205    44.9431    88.0001 </r>
       <r>     1.9268    13.7989    92.2278 </r>
       <r>     2.2332    13.1566    96.2587 </r>
       <r>     2.5396    12.8700   100.2018 </r>
       <r>     2.8460    11.2072   103.6355 </r>
       <r>     3.1524     9.0425   106.4060 </r>
       <r>     3.4587     7.9086   108.8290 </r>
       <r>     3.7651     6.9644   110.9627 </r>
       <r>     4.0715     3.1466   111.9268 </r>
       <r>     4.3779     0.2394   112.0002 </r>
       <r>     4.6843    -0.0005   112.0000 </r>
       <r>     4.9907    -0.0000   112.0000 </r>
       <r>     5.2970    -0.0001   112.0000 </r>
       <r>     5.6034     0.0761   112.0233 </r>
       <r>     5.9098     0.1644   112.0737 </r>
       <r>     6.2162     2.6181   112.8758 </r>
       <r>     6.5226     4.3332   114.2034 </r>
       <r>     6.8289     3.4484   115.2599 </r>
       <r>     7.1353     2.4720   116.0173 </r>
       <r>     7.4417     1.4175   116.4516 </r>
       <r>     7.7481     3.1811   117.4262 </r>
       <r>     8.0545     5.5427   119.1244 </r>
       <r>     8.3608     5.5839   120.8352 </r>
       <r>     8.6672     4.5901   122.2415 </r>
       <r>     8.9736     4.4780   123.6135 </r>
       <r>     9.2800     5.6019   125.3298 </r>
       <r>     9.5864     5.6883   127.0726 </r>
       <r>     9.8927     4.7896   128.5400 </r>
       <r>    10.1991     4.4972   129.9179 </r>
       <r>    10.5055     6.4572   131.8962 </r>
       <r>    10.8119     8.2805   134.4332 </r>
       <r>    11.1183     8.2759   136.9688 </r>
       <r>    11.4247     7.9760   139.4125 </r>
       <r>    11.7310     7.9374   141.8444 </r>
       <r>    12.0374     6.5431   143.8490 </r>
       <r>    12.3438     5.8801   145.6506 </r>
       <r>    12.6502     6.6086   147.6753 </r>
       <r>    12.9566     5.7857   149.4480 </r>
       <r>    13.2629     6.2485   151.3624 </r>
       <r>    13.5693     5.3657   153.0063 </r>
       <r>    13.8757     3.9458   154.2153 </r>
       <r>    14.1821     3.2609   155.2143 </r>
       <r>    14.4885     4.5545   156.6097 </r>
       <r>    14.7948     3.5164   157.6871 </r>
       <r>    15.1012     1.4335   158.1263 </r>
       <r>    15.4076     1.5396   158.5980 </r>
       <r>    15.7140     1.2276   158.9741 </r>
       <r>    16.0204     1.6886   159.4915 </r>
       <r>    16.3267     0.3334   159.5937 </r>
       <r>    16.6331     0.6838   159.8032 </r>
       <r>    16.9395     0.5179   159.9618 </r>
       <r>    17.2459     0.1247   160.0000 </r>
       <r>    17.5523    -0.0000   160.0000 </r>
       <r>    17.8587     0.0000   160.0000 </r>
       <r>    18.1650     0.0000   160.0000 </r>
       <r>    18.4714     0.0000   160.0000 </r>
       <r>    18.7778     0.0000   160.0000 </r>
       <r>    19.0842     0.0000   160.0000 </r>
      </set>
     </set>
    </array>
   </total>
  </dos>
 </calculation>
 <structure name="finalpos" >
  <crystal>
   <varray name="basis" >
    <v>       3.22479600      -5.64383000       0.03157200 </v>
    <v>       3.22479600       5.64383000       0.03157200 </v>
    <v>      -2.10194600       0.00000000       6.07553700 </v>
   </varray>
   <i name="volume">    221.90106089 </i>
   <varray name="rec_basis" >
    <v>       0.15452516      -0.08859232       0.05346088 </v>
    <v>       0.15452516       0.08859232       0.05346088 </v>
    <v>      -0.00160600       0.00000000       0.16403888 </v>
   </varray>
  </crystal>
  <varray name="positions" >
   <v>       0.61844300       0.12117100       0.11953300 </v>
   <v>       0.12117100       0.61844300       0.61953300 </v>
   <v>       0.96295700       0.79032200       0.11881300 </v>
   <v>       0.79032200       0.96295700       0.61881300 </v>
   <v>       0.43973200       0.26728100       0.59904700 </v>
   <v>       0.26728100       0.43973200       0.09904700 </v>
   <v>       0.07949800       0.91321340       0.49736300 </v>
   <v>       0.57140300       0.41236400       0.98018400 </v>
   <v>       0.73711100       0.25006200       0.49504900 </v>
   <v>       0.41236400       0.57140300       0.48018400 </v>
   <v>       0.91167500       0.07949800       0.99736300 </v>
   <v>       0.25006200       0.73711100       0.99504900 </v>
  </varray>
 </structure>
</modeling>
