nqpoint: 1      
npath: 1      
segment_nqpoint:
- 1
reciprocal_lattice:
- [   0.15452516,  -0.08859232,   0.05346088 ] # a*
- [   0.15452516,   0.08859232,   0.05346088 ] # b*
- [  -0.00160600,   0.00000000,   0.16403888 ] # c*
natom: 12     
lattice:
- [     3.224796000000000,    -5.643830000000000,     0.031572000000000 ] # a
- [     3.224796000000000,     5.643830000000000,     0.031572000000000 ] # b
- [    -2.101946000000000,     0.000000000000000,     6.075537000000000 ] # c
points:
- symbol: Cu # 1
  coordinates: [  0.618443000000000,  0.121171000000000,  0.119533000000000 ]
  mass: 63.546000
- symbol: Cu # 2
  coordinates: [  0.121171000000000,  0.618443000000000,  0.619533000000000 ]
  mass: 63.546000
- symbol: Cu # 3
  coordinates: [  0.962957000000000,  0.790322000000000,  0.118813000000000 ]
  mass: 63.546000
- symbol: Cu # 4
  coordinates: [  0.790322000000000,  0.962957000000000,  0.618813000000000 ]
  mass: 63.546000
- symbol: Ge # 5
  coordinates: [  0.439732000000000,  0.267281000000000,  0.599047000000000 ]
  mass: 72.640000
- symbol: Ge # 6
  coordinates: [  0.267281000000000,  0.439732000000000,  0.099047000000000 ]
  mass: 72.640000
- symbol: S  # 7
  coordinates: [  0.079498000000000,  0.911675000000000,  0.497363000000000 ]
  mass: 32.065000
- symbol: S  # 8
  coordinates: [  0.571403000000000,  0.412364000000000,  0.980184000000000 ]
  mass: 32.065000
- symbol: S  # 9
  coordinates: [  0.737111000000000,  0.250062000000000,  0.495049000000000 ]
  mass: 32.065000
- symbol: S  # 10
  coordinates: [  0.412364000000000,  0.571403000000000,  0.480184000000000 ]
  mass: 32.065000
- symbol: S  # 11
  coordinates: [  0.911675000000000,  0.079498000000000,  0.997363000000000 ]
  mass: 32.065000
- symbol: S  # 12
  coordinates: [  0.250062000000000,  0.737111000000000,  0.995049000000000 ]
  mass: 32.065000
supercell_matrix:
- [    1,    0,    0 ]
- [    0,    1,    0 ]
- [    0,    0,    1 ]

phonon:
- q-position: [    0.0000000,    0.0000000,    0.0000000 ]
  distance:    0.0000000
  band:
  - # 1
    frequency:   -0.4133947946
    eigenvector:
    - # atom 1
      - [  0.09428243651824,  0.00000000000000 ]
      - [ -0.01236440546065,  0.00000000000000 ]
      - [ -0.28557230430313,  0.00000000000000 ]
    - # atom 2
      - [  0.09428243651824,  0.00000000000000 ]
      - [  0.01236440546063,  0.00000000000000 ]
      - [ -0.28557230430313,  0.00000000000000 ]
    - # atom 3
      - [  0.07721368002791,  0.00000000000000 ]
      - [  0.00195635708209,  0.00000000000000 ]
      - [ -0.27361890570327,  0.00000000000000 ]
    - # atom 4
      - [  0.07721368002791,  0.00000000000000 ]
      - [ -0.00195635708211,  0.00000000000000 ]
      - [ -0.27361890570327,  0.00000000000000 ]
    - # atom 5
      - [  0.11862789714751,  0.00000000000000 ]
      - [  0.00435814273193,  0.00000000000000 ]
      - [ -0.37164722707906,  0.00000000000000 ]
    - # atom 6
      - [  0.11862789714751,  0.00000000000000 ]
      - [ -0.00435814273195,  0.00000000000000 ]
      - [ -0.37164722707906,  0.00000000000000 ]
    - # atom 7
      - [  0.07033457949550,  0.00000000000000 ]
      - [  0.00389324240269,  0.00000000000000 ]
      - [ -0.22243490017144,  0.00000000000000 ]
    - # atom 8
      - [  0.07412225658808,  0.00000000000000 ]
      - [ -0.00341434959152,  0.00000000000000 ]
      - [ -0.24525926950271,  0.00000000000000 ]
    - # atom 9
      - [  0.07418132840366,  0.00000000000000 ]
      - [ -0.00708283958274,  0.00000000000000 ]
      - [ -0.22518831517455,  0.00000000000000 ]
    - # atom 10
      - [  0.07412225658808,  0.00000000000000 ]
      - [  0.00341434959151,  0.00000000000000 ]
      - [ -0.24525926950271,  0.00000000000000 ]
    - # atom 11
      - [  0.07033457949550,  0.00000000000000 ]
      - [ -0.00389324240270,  0.00000000000000 ]
      - [ -0.22243490017144,  0.00000000000000 ]
    - # atom 12
      - [  0.07418132840366,  0.00000000000000 ]
      - [  0.00708283958273,  0.00000000000000 ]
      - [ -0.22518831517455,  0.00000000000000 ]
  - # 2
    frequency:   -0.3078466843
    eigenvector:
    - # atom 1
      - [  0.01465396090285,  0.00000000000000 ]
      - [  0.32075764176163,  0.00000000000000 ]
      - [  0.01807083381060,  0.00000000000000 ]
    - # atom 2
      - [ -0.01465396090283,  0.00000000000000 ]
      - [  0.32075764176163,  0.00000000000000 ]
      - [ -0.01807083381061,  0.00000000000000 ]
    - # atom 3
      - [ -0.00020419709686,  0.00000000000000 ]
      - [  0.29126916315690,  0.00000000000000 ]
      - [ -0.00762821006121,  0.00000000000000 ]
    - # atom 4
      - [  0.00020419709688,  0.00000000000000 ]
      - [  0.29126916315690,  0.00000000000000 ]
      - [  0.00762821006120,  0.00000000000000 ]
    - # atom 5
      - [ -0.00185049458617,  0.00000000000000 ]
      - [  0.37263384452293,  0.00000000000000 ]
      - [  0.00180965017481,  0.00000000000000 ]
    - # atom 6
      - [  0.00185049458620,  0.00000000000000 ]
      - [  0.37263384452293,  0.00000000000000 ]
      - [ -0.00180965017483,  0.00000000000000 ]
    - # atom 7
      - [  0.00023810432834,  0.00000000000000 ]
      - [  0.23499895801326,  0.00000000000000 ]
      - [ -0.00569696253548,  0.00000000000000 ]
    - # atom 8
      - [ -0.00185409788419,  0.00000000000000 ]
      - [  0.24624442926922,  0.00000000000000 ]
      - [  0.00049908127967,  0.00000000000000 ]
    - # atom 9
      - [ -0.01160698564004,  0.00000000000000 ]
      - [  0.23813240966899,  0.00000000000000 ]
      - [  0.00870683678566,  0.00000000000000 ]
    - # atom 10
      - [  0.00185409788421,  0.00000000000000 ]
      - [  0.24624442926922,  0.00000000000000 ]
      - [ -0.00049908127968,  0.00000000000000 ]
    - # atom 11
      - [ -0.00023810432832,  0.00000000000000 ]
      - [  0.23499895801326,  0.00000000000000 ]
      - [  0.00569696253548,  0.00000000000000 ]
    - # atom 12
      - [  0.01160698564006,  0.00000000000000 ]
      - [  0.23813240966899,  0.00000000000000 ]
      - [ -0.00870683678567,  0.00000000000000 ]
  - # 3
    frequency:   -0.2857707539
    eigenvector:
    - # atom 1
      - [ -0.30346511830030,  0.00000000000000 ]
      - [ -0.00687793225613,  0.00000000000000 ]
      - [ -0.09102894293671,  0.00000000000000 ]
    - # atom 2
      - [ -0.30346511830030,  0.00000000000000 ]
      - [  0.00687793225615,  0.00000000000000 ]
      - [ -0.09102894293671,  0.00000000000000 ]
    - # atom 3
      - [ -0.27809912512724,  0.00000000000000 ]
      - [ -0.00188307045372,  0.00000000000000 ]
      - [ -0.09179937700607,  0.00000000000000 ]
    - # atom 4
      - [ -0.27809912512724,  0.00000000000000 ]
      - [  0.00188307045374,  0.00000000000000 ]
      - [ -0.09179937700607,  0.00000000000000 ]
    - # atom 5
      - [ -0.35367387808801,  0.00000000000000 ]
      - [  0.00436312886915,  0.00000000000000 ]
      - [ -0.10915729745012,  0.00000000000000 ]
    - # atom 6
      - [ -0.35367387808801,  0.00000000000000 ]
      - [ -0.00436312886912,  0.00000000000000 ]
      - [ -0.10915729745012,  0.00000000000000 ]
    - # atom 7
      - [ -0.23433687580004,  0.00000000000000 ]
      - [  0.00016096405366,  0.00000000000000 ]
      - [ -0.07566273877307,  0.00000000000000 ]
    - # atom 8
      - [ -0.23141626256978,  0.00000000000000 ]
      - [  0.00065608337092,  0.00000000000000 ]
      - [ -0.07438269478902,  0.00000000000000 ]
    - # atom 9
      - [ -0.22826786729353,  0.00000000000000 ]
      - [  0.00581375709522,  0.00000000000000 ]
      - [ -0.07014712716741,  0.00000000000000 ]
    - # atom 10
      - [ -0.23141626256978,  0.00000000000000 ]
      - [ -0.00065608337090,  0.00000000000000 ]
      - [ -0.07438269478902,  0.00000000000000 ]
    - # atom 11
      - [ -0.23433687580004,  0.00000000000000 ]
      - [ -0.00016096405364,  0.00000000000000 ]
      - [ -0.07566273877307,  0.00000000000000 ]
    - # atom 12
      - [ -0.22826786729353,  0.00000000000000 ]
      - [ -0.00581375709520,  0.00000000000000 ]
      - [ -0.07014712716741,  0.00000000000000 ]
  - # 4
    frequency:    2.4856287008
    eigenvector:
    - # atom 1
      - [  0.13799861081941,  0.00000000000000 ]
      - [  0.45956069790532,  0.00000000000000 ]
      - [  0.10781233975479,  0.00000000000000 ]
    - # atom 2
      - [  0.13799861081943,  0.00000000000000 ]
      - [ -0.45956069790533,  0.00000000000000 ]
      - [  0.10781233975479,  0.00000000000000 ]
    - # atom 3
      - [ -0.05027228302872,  0.00000000000000 ]
      - [  0.26137449937695,  0.00000000000000 ]
      - [ -0.03643491812934,  0.00000000000000 ]
    - # atom 4
      - [ -0.05027228302870,  0.00000000000000 ]
      - [ -0.26137449937694,  0.00000000000000 ]
      - [ -0.03643491812934,  0.00000000000000 ]
    - # atom 5
      - [ -0.06237590886183,  0.00000000000000 ]
      - [ -0.26128288590238,  0.00000000000000 ]
      - [ -0.07824179600382,  0.00000000000000 ]
    - # atom 6
      - [ -0.06237590886185,  0.00000000000000 ]
      - [  0.26128288590238,  0.00000000000000 ]
      - [ -0.07824179600382,  0.00000000000000 ]
    - # atom 7
      - [ -0.05271983826922,  0.00000000000000 ]
      - [ -0.19985412232849,  0.00000000000000 ]
      - [ -0.00419517224195,  0.00000000000000 ]
    - # atom 8
      - [ -0.01492700107798,  0.00000000000000 ]
      - [  0.17439684155719,  0.00000000000000 ]
      - [ -0.05132552805246,  0.00000000000000 ]
    - # atom 9
      - [  0.02673055931081,  0.00000000000000 ]
      - [ -0.16433453681325,  0.00000000000000 ]
      - [  0.06287874565523,  0.00000000000000 ]
    - # atom 10
      - [ -0.01492700107798,  0.00000000000000 ]
      - [ -0.17439684155719,  0.00000000000000 ]
      - [ -0.05132552805246,  0.00000000000000 ]
    - # atom 11
      - [ -0.05271983826923,  0.00000000000000 ]
      - [  0.19985412232849,  0.00000000000000 ]
      - [ -0.00419517224196,  0.00000000000000 ]
    - # atom 12
      - [  0.02673055931079,  0.00000000000000 ]
      - [  0.16433453681326,  0.00000000000000 ]
      - [  0.06287874565524,  0.00000000000000 ]
  - # 5
    frequency:    2.5181340008
    eigenvector:
    - # atom 1
      - [  0.44742507713094,  0.00000000000000 ]
      - [  0.11099993950910,  0.00000000000000 ]
      - [ -0.01233004827920,  0.00000000000000 ]
    - # atom 2
      - [ -0.44742507713094,  0.00000000000000 ]
      - [  0.11099993950907,  0.00000000000000 ]
      - [  0.01233004827920,  0.00000000000000 ]
    - # atom 3
      - [  0.28739821927720,  0.00000000000000 ]
      - [ -0.08570759406179,  0.00000000000000 ]
      - [ -0.02740770019245,  0.00000000000000 ]
    - # atom 4
      - [ -0.28739821927720,  0.00000000000000 ]
      - [ -0.08570759406181,  0.00000000000000 ]
      - [  0.02740770019245,  0.00000000000000 ]
    - # atom 5
      - [ -0.27940774996389,  0.00000000000000 ]
      - [ -0.01643361096753,  0.00000000000000 ]
      - [ -0.05741709332054,  0.00000000000000 ]
    - # atom 6
      - [  0.27940774996389,  0.00000000000000 ]
      - [ -0.01643361096752,  0.00000000000000 ]
      - [  0.05741709332054,  0.00000000000000 ]
    - # atom 7
      - [ -0.18336332765475,  0.00000000000000 ]
      - [ -0.01775083231488,  0.00000000000000 ]
      - [ -0.03462279121971,  0.00000000000000 ]
    - # atom 8
      - [  0.15346231725449,  0.00000000000000 ]
      - [  0.00946952907922,  0.00000000000000 ]
      - [ -0.04131668045077,  0.00000000000000 ]
    - # atom 9
      - [ -0.22789702112015,  0.00000000000000 ]
      - [ -0.05043517377782,  0.00000000000000 ]
      - [ -0.00659356544956,  0.00000000000000 ]
    - # atom 10
      - [ -0.15346231725449,  0.00000000000000 ]
      - [  0.00946952907921,  0.00000000000000 ]
      - [  0.04131668045076,  0.00000000000000 ]
    - # atom 11
      - [  0.18336332765475,  0.00000000000000 ]
      - [ -0.01775083231487,  0.00000000000000 ]
      - [  0.03462279121972,  0.00000000000000 ]
    - # atom 12
      - [  0.22789702112015,  0.00000000000000 ]
      - [ -0.05043517377781,  0.00000000000000 ]
      - [  0.00659356544956,  0.00000000000000 ]
  - # 6
    frequency:    2.9350950577
    eigenvector:
    - # atom 1
      - [ -0.27935564563098,  0.00000000000000 ]
      - [  0.21099846440165,  0.00000000000000 ]
      - [ -0.38518737335626,  0.00000000000000 ]
    - # atom 2
      - [ -0.27935564563098,  0.00000000000000 ]
      - [ -0.21099846440166,  0.00000000000000 ]
      - [ -0.38518737335626,  0.00000000000000 ]
    - # atom 3
      - [  0.22299498207204,  0.00000000000000 ]
      - [  0.00794349313947,  0.00000000000000 ]
      - [  0.25444809457230,  0.00000000000000 ]
    - # atom 4
      - [  0.22299498207204,  0.00000000000000 ]
      - [ -0.00794349313947,  0.00000000000000 ]
      - [  0.25444809457230,  0.00000000000000 ]
    - # atom 5
      - [  0.06464189528633,  0.00000000000000 ]
      - [ -0.04539872642084,  0.00000000000000 ]
      - [  0.10316242271692,  0.00000000000000 ]
    - # atom 6
      - [  0.06464189528633,  0.00000000000000 ]
      - [  0.04539872642084,  0.00000000000000 ]
      - [  0.10316242271692,  0.00000000000000 ]
    - # atom 7
      - [  0.01475880643235,  0.00000000000000 ]
      - [ -0.04269448066097,  0.00000000000000 ]
      - [  0.13984591931288,  0.00000000000000 ]
    - # atom 8
      - [  0.10268003344877,  0.00000000000000 ]
      - [  0.05034212066511,  0.00000000000000 ]
      - [  0.05178995099968,  0.00000000000000 ]
    - # atom 9
      - [ -0.12538016962143,  0.00000000000000 ]
      - [ -0.03895532890158,  0.00000000000000 ]
      - [ -0.20750907475092,  0.00000000000000 ]
    - # atom 10
      - [  0.10268003344877,  0.00000000000000 ]
      - [ -0.05034212066511,  0.00000000000000 ]
      - [  0.05178995099968,  0.00000000000000 ]
    - # atom 11
      - [  0.01475880643234,  0.00000000000000 ]
      - [  0.04269448066097,  0.00000000000000 ]
      - [  0.13984591931288,  0.00000000000000 ]
    - # atom 12
      - [ -0.12538016962143,  0.00000000000000 ]
      - [  0.03895532890158,  0.00000000000000 ]
      - [ -0.20750907475092,  0.00000000000000 ]
  - # 7
    frequency:    3.2087618048
    eigenvector:
    - # atom 1
      - [ -0.01420061637302,  0.00000000000000 ]
      - [  0.05201545560442,  0.00000000000000 ]
      - [  0.16631562125167,  0.00000000000000 ]
    - # atom 2
      - [  0.01420061637302,  0.00000000000000 ]
      - [  0.05201545560442,  0.00000000000000 ]
      - [ -0.16631562125167,  0.00000000000000 ]
    - # atom 3
      - [ -0.32730695389930,  0.00000000000000 ]
      - [ -0.10666366374606,  0.00000000000000 ]
      - [ -0.44709758753846,  0.00000000000000 ]
    - # atom 4
      - [  0.32730695389929,  0.00000000000000 ]
      - [ -0.10666366374605,  0.00000000000000 ]
      - [  0.44709758753846,  0.00000000000000 ]
    - # atom 5
      - [ -0.16182837873251,  0.00000000000000 ]
      - [  0.03169560877544,  0.00000000000000 ]
      - [ -0.18859461485354,  0.00000000000000 ]
    - # atom 6
      - [  0.16182837873251,  0.00000000000000 ]
      - [  0.03169560877544,  0.00000000000000 ]
      - [  0.18859461485354,  0.00000000000000 ]
    - # atom 7
      - [ -0.06881748209655,  0.00000000000000 ]
      - [  0.02238493092761,  0.00000000000000 ]
      - [ -0.21845059790171,  0.00000000000000 ]
    - # atom 8
      - [ -0.12456367140592,  0.00000000000000 ]
      - [ -0.02824868709089,  0.00000000000000 ]
      - [ -0.09635773717229,  0.00000000000000 ]
    - # atom 9
      - [ -0.06519940720375,  0.00000000000000 ]
      - [ -0.01995477712144,  0.00000000000000 ]
      - [  0.07114767638653,  0.00000000000000 ]
    - # atom 10
      - [  0.12456367140592,  0.00000000000000 ]
      - [ -0.02824868709089,  0.00000000000000 ]
      - [  0.09635773717229,  0.00000000000000 ]
    - # atom 11
      - [  0.06881748209655,  0.00000000000000 ]
      - [  0.02238493092760,  0.00000000000000 ]
      - [  0.21845059790172,  0.00000000000000 ]
    - # atom 12
      - [  0.06519940720375,  0.00000000000000 ]
      - [ -0.01995477712144,  0.00000000000000 ]
      - [ -0.07114767638653,  0.00000000000000 ]
  - # 8
    frequency:    3.2953590228
    eigenvector:
    - # atom 1
      - [  0.20661587380155,  0.00000000000000 ]
      - [ -0.16540941958250,  0.00000000000000 ]
      - [ -0.40333989304270,  0.00000000000000 ]
    - # atom 2
      - [ -0.20661587380261,  0.00000000000000 ]
      - [ -0.16540941958131,  0.00000000000000 ]
      - [  0.40333989304260,  0.00000000000000 ]
    - # atom 3
      - [ -0.34504989679593,  0.00000000000000 ]
      - [  0.17215633378183,  0.00000000000000 ]
      - [  0.09297678691181,  0.00000000000000 ]
    - # atom 4
      - [  0.34504989679618,  0.00000000000000 ]
      - [  0.17215633377997,  0.00000000000000 ]
      - [ -0.09297678691308,  0.00000000000000 ]
    - # atom 5
      - [ -0.07485549148885,  0.00000000000000 ]
      - [  0.01703856372111,  0.00000000000000 ]
      - [ -0.16341653846659,  0.00000000000000 ]
    - # atom 6
      - [  0.07485549148931,  0.00000000000000 ]
      - [  0.01703856372179,  0.00000000000000 ]
      - [  0.16341653846764,  0.00000000000000 ]
    - # atom 7
      - [ -0.09678041219771,  0.00000000000000 ]
      - [ -0.09654369501623,  0.00000000000000 ]
      - [  0.05620678128881,  0.00000000000000 ]
    - # atom 8
      - [ -0.00898368425397,  0.00000000000000 ]
      - [  0.02573106334986,  0.00000000000000 ]
      - [ -0.08241811432150,  0.00000000000000 ]
    - # atom 9
      - [  0.04098665182478,  0.00000000000000 ]
      - [  0.08621685686737,  0.00000000000000 ]
      - [ -0.19705549531678,  0.00000000000000 ]
    - # atom 10
      - [  0.00898368425385,  0.00000000000000 ]
      - [  0.02573106334988,  0.00000000000000 ]
      - [  0.08241811432215,  0.00000000000000 ]
    - # atom 11
      - [  0.09678041219839,  0.00000000000000 ]
      - [ -0.09654369501570,  0.00000000000000 ]
      - [ -0.05620678128947,  0.00000000000000 ]
    - # atom 12
      - [ -0.04098665182492,  0.00000000000000 ]
      - [  0.08621685686785,  0.00000000000000 ]
      - [  0.19705549531676,  0.00000000000000 ]
  - # 9
    frequency:    3.2968726727
    eigenvector:
    - # atom 1
      - [  0.22157254622174,  0.00000000000000 ]
      - [  0.24851582707620,  0.00000000000000 ]
      - [  0.02019838609721,  0.00000000000000 ]
    - # atom 2
      - [  0.22157254622075,  0.00000000000000 ]
      - [ -0.24851582707699,  0.00000000000000 ]
      - [  0.02019838609913,  0.00000000000000 ]
    - # atom 3
      - [ -0.05423798921476,  0.00000000000000 ]
      - [ -0.39070729893288,  0.00000000000000 ]
      - [  0.26774296431507,  0.00000000000000 ]
    - # atom 4
      - [ -0.05423798921311,  0.00000000000000 ]
      - [  0.39070729893369,  0.00000000000000 ]
      - [  0.26774296431463,  0.00000000000000 ]
    - # atom 5
      - [ -0.09637744835024,  0.00000000000000 ]
      - [  0.14277063541046,  0.00000000000000 ]
      - [ -0.22058667890598,  0.00000000000000 ]
    - # atom 6
      - [ -0.09637744834989,  0.00000000000000 ]
      - [ -0.14277063541038,  0.00000000000000 ]
      - [ -0.22058667890520,  0.00000000000000 ]
    - # atom 7
      - [ -0.14284859735773,  0.00000000000000 ]
      - [  0.11230741283607,  0.00000000000000 ]
      - [  0.14017340105600,  0.00000000000000 ]
    - # atom 8
      - [  0.02532284254568,  0.00000000000000 ]
      - [  0.00349217858078,  0.00000000000000 ]
      - [ -0.13675587245913,  0.00000000000000 ]
    - # atom 9
      - [  0.02931993587111,  0.00000000000000 ]
      - [  0.10109935775482,  0.00000000000000 ]
      - [  0.00480726511054,  0.00000000000000 ]
    - # atom 10
      - [  0.02532284254572,  0.00000000000000 ]
      - [ -0.00349217858066,  0.00000000000000 ]
      - [ -0.13675587245874,  0.00000000000000 ]
    - # atom 11
      - [ -0.14284859735727,  0.00000000000000 ]
      - [ -0.11230741283653,  0.00000000000000 ]
      - [  0.14017340105573,  0.00000000000000 ]
    - # atom 12
      - [  0.02931993587091,  0.00000000000000 ]
      - [ -0.10109935775441,  0.00000000000000 ]
      - [  0.00480726511148,  0.00000000000000 ]
  - # 10
    frequency:    3.5096960343
    eigenvector:
    - # atom 1
      - [  0.18068043652276,  0.00000000000000 ]
      - [  0.43944747204065,  0.00000000000000 ]
      - [ -0.16949406838993,  0.00000000000000 ]
    - # atom 2
      - [ -0.18068043652277,  0.00000000000000 ]
      - [  0.43944747204065,  0.00000000000000 ]
      - [  0.16949406838994,  0.00000000000000 ]
    - # atom 3
      - [ -0.12108654243359,  0.00000000000000 ]
      - [ -0.25869902842063,  0.00000000000000 ]
      - [ -0.00912731534554,  0.00000000000000 ]
    - # atom 4
      - [  0.12108654243360,  0.00000000000000 ]
      - [ -0.25869902842063,  0.00000000000000 ]
      - [  0.00912731534553,  0.00000000000000 ]
    - # atom 5
      - [  0.30933423743311,  0.00000000000000 ]
      - [ -0.08252336113467,  0.00000000000000 ]
      - [ -0.02562622068714,  0.00000000000000 ]
    - # atom 6
      - [ -0.30933423743312,  0.00000000000000 ]
      - [ -0.08252336113468,  0.00000000000000 ]
      - [  0.02562622068715,  0.00000000000000 ]
    - # atom 7
      - [  0.18885051216885,  0.00000000000000 ]
      - [ -0.04422176870771,  0.00000000000000 ]
      - [ -0.01113487378794,  0.00000000000000 ]
    - # atom 8
      - [ -0.00727505632175,  0.00000000000000 ]
      - [  0.02995568814007,  0.00000000000000 ]
      - [ -0.00749692198810,  0.00000000000000 ]
    - # atom 9
      - [  0.03751719912739,  0.00000000000000 ]
      - [ -0.12592276134682,  0.00000000000000 ]
      - [ -0.06835724876186,  0.00000000000000 ]
    - # atom 10
      - [  0.00727505632175,  0.00000000000000 ]
      - [  0.02995568814007,  0.00000000000000 ]
      - [  0.00749692198810,  0.00000000000000 ]
    - # atom 11
      - [ -0.18885051216885,  0.00000000000000 ]
      - [ -0.04422176870771,  0.00000000000000 ]
      - [  0.01113487378793,  0.00000000000000 ]
    - # atom 12
      - [ -0.03751719912739,  0.00000000000000 ]
      - [ -0.12592276134682,  0.00000000000000 ]
      - [  0.06835724876186,  0.00000000000000 ]
  - # 11
    frequency:    3.5418325084
    eigenvector:
    - # atom 1
      - [  0.02654171319108,  0.00000000000000 ]
      - [  0.17119259613547,  0.00000000000000 ]
      - [  0.05084098611595,  0.00000000000000 ]
    - # atom 2
      - [  0.02654171319108,  0.00000000000000 ]
      - [ -0.17119259613549,  0.00000000000000 ]
      - [  0.05084098611596,  0.00000000000000 ]
    - # atom 3
      - [  0.42384700063420,  0.00000000000000 ]
      - [ -0.13626323839552,  0.00000000000000 ]
      - [ -0.28680665884860,  0.00000000000000 ]
    - # atom 4
      - [  0.42384700063420,  0.00000000000000 ]
      - [  0.13626323839553,  0.00000000000000 ]
      - [ -0.28680665884860,  0.00000000000000 ]
    - # atom 5
      - [ -0.26401257230326,  0.00000000000000 ]
      - [  0.10611133065344,  0.00000000000000 ]
      - [  0.18679286196112,  0.00000000000000 ]
    - # atom 6
      - [ -0.26401257230325,  0.00000000000000 ]
      - [ -0.10611133065344,  0.00000000000000 ]
      - [  0.18679286196112,  0.00000000000000 ]
    - # atom 7
      - [ -0.08083844347441,  0.00000000000000 ]
      - [ -0.05636030085625,  0.00000000000000 ]
      - [ -0.13246306874627,  0.00000000000000 ]
    - # atom 8
      - [ -0.03435119159586,  0.00000000000000 ]
      - [  0.01545538238431,  0.00000000000000 ]
      - [  0.06018122409904,  0.00000000000000 ]
    - # atom 9
      - [  0.00584716431589,  0.00000000000000 ]
      - [  0.19668209199143,  0.00000000000000 ]
      - [  0.00784227311280,  0.00000000000000 ]
    - # atom 10
      - [ -0.03435119159586,  0.00000000000000 ]
      - [ -0.01545538238431,  0.00000000000000 ]
      - [  0.06018122409905,  0.00000000000000 ]
    - # atom 11
      - [ -0.08083844347440,  0.00000000000000 ]
      - [  0.05636030085624,  0.00000000000000 ]
      - [ -0.13246306874627,  0.00000000000000 ]
    - # atom 12
      - [  0.00584716431590,  0.00000000000000 ]
      - [ -0.19668209199142,  0.00000000000000 ]
      - [  0.00784227311280,  0.00000000000000 ]
  - # 12
    frequency:    3.8157642652
    eigenvector:
    - # atom 1
      - [  0.27408871730650,  0.00000000000000 ]
      - [ -0.23985609653413,  0.00000000000000 ]
      - [  0.21785798903198,  0.00000000000000 ]
    - # atom 2
      - [ -0.27408871730650,  0.00000000000000 ]
      - [ -0.23985609653413,  0.00000000000000 ]
      - [ -0.21785798903199,  0.00000000000000 ]
    - # atom 3
      - [ -0.19104925316695,  0.00000000000000 ]
      - [ -0.23669363954681,  0.00000000000000 ]
      - [  0.12607770426970,  0.00000000000000 ]
    - # atom 4
      - [  0.19104925316694,  0.00000000000000 ]
      - [ -0.23669363954681,  0.00000000000000 ]
      - [ -0.12607770426971,  0.00000000000000 ]
    - # atom 5
      - [  0.11939917582563,  0.00000000000000 ]
      - [  0.31651703897010,  0.00000000000000 ]
      - [  0.17084941332982,  0.00000000000000 ]
    - # atom 6
      - [ -0.11939917582563,  0.00000000000000 ]
      - [  0.31651703897011,  0.00000000000000 ]
      - [ -0.17084941332981,  0.00000000000000 ]
    - # atom 7
      - [  0.07449654740531,  0.00000000000000 ]
      - [ -0.10354156939410,  0.00000000000000 ]
      - [  0.05532211942857,  0.00000000000000 ]
    - # atom 8
      - [ -0.07240109194446,  0.00000000000000 ]
      - [  0.11360570439401,  0.00000000000000 ]
      - [  0.08350505238199,  0.00000000000000 ]
    - # atom 9
      - [ -0.10607398933102,  0.00000000000000 ]
      - [  0.06417344012146,  0.00000000000000 ]
      - [  0.08950978230471,  0.00000000000000 ]
    - # atom 10
      - [  0.07240109194446,  0.00000000000000 ]
      - [  0.11360570439401,  0.00000000000000 ]
      - [ -0.08350505238199,  0.00000000000000 ]
    - # atom 11
      - [ -0.07449654740531,  0.00000000000000 ]
      - [ -0.10354156939410,  0.00000000000000 ]
      - [ -0.05532211942857,  0.00000000000000 ]
    - # atom 12
      - [  0.10607398933102,  0.00000000000000 ]
      - [  0.06417344012146,  0.00000000000000 ]
      - [ -0.08950978230471,  0.00000000000000 ]
  - # 13
    frequency:    3.9340215887
    eigenvector:
    - # atom 1
      - [ -0.28952531508249,  0.00000000000000 ]
      - [  0.04401509273771,  0.00000000000000 ]
      - [  0.30388850561308,  0.00000000000000 ]
    - # atom 2
      - [ -0.28952531508250,  0.00000000000000 ]
      - [ -0.04401509273772,  0.00000000000000 ]
      - [  0.30388850561308,  0.00000000000000 ]
    - # atom 3
      - [  0.20764190113861,  0.00000000000000 ]
      - [  0.20478532033965,  0.00000000000000 ]
      - [  0.10226701017553,  0.00000000000000 ]
    - # atom 4
      - [  0.20764190113862,  0.00000000000000 ]
      - [ -0.20478532033966,  0.00000000000000 ]
      - [  0.10226701017553,  0.00000000000000 ]
    - # atom 5
      - [  0.08656839058474,  0.00000000000000 ]
      - [  0.29579811038248,  0.00000000000000 ]
      - [ -0.28295803275996,  0.00000000000000 ]
    - # atom 6
      - [  0.08656839058473,  0.00000000000000 ]
      - [ -0.29579811038247,  0.00000000000000 ]
      - [ -0.28295803275997,  0.00000000000000 ]
    - # atom 7
      - [ -0.01291956387130,  0.00000000000000 ]
      - [ -0.09888242456480,  0.00000000000000 ]
      - [  0.02037866059206,  0.00000000000000 ]
    - # atom 8
      - [  0.05452499065290,  0.00000000000000 ]
      - [ -0.09851445831549,  0.00000000000000 ]
      - [ -0.13472982202069,  0.00000000000000 ]
    - # atom 9
      - [ -0.05539720793991,  0.00000000000000 ]
      - [  0.02815412044730,  0.00000000000000 ]
      - [  0.07919162275556,  0.00000000000000 ]
    - # atom 10
      - [  0.05452499065291,  0.00000000000000 ]
      - [  0.09851445831549,  0.00000000000000 ]
      - [ -0.13472982202069,  0.00000000000000 ]
    - # atom 11
      - [ -0.01291956387130,  0.00000000000000 ]
      - [  0.09888242456479,  0.00000000000000 ]
      - [  0.02037866059206,  0.00000000000000 ]
    - # atom 12
      - [ -0.05539720793991,  0.00000000000000 ]
      - [ -0.02815412044730,  0.00000000000000 ]
      - [  0.07919162275556,  0.00000000000000 ]
  - # 14
    frequency:    4.6482388929
    eigenvector:
    - # atom 1
      - [ -0.08074386591234,  0.00000000000000 ]
      - [  0.32476346514117,  0.00000000000000 ]
      - [ -0.05822609975732,  0.00000000000000 ]
    - # atom 2
      - [ -0.08074386591234,  0.00000000000000 ]
      - [ -0.32476346514117,  0.00000000000000 ]
      - [ -0.05822609975732,  0.00000000000000 ]
    - # atom 3
      - [ -0.32985090655587,  0.00000000000000 ]
      - [ -0.01124728113364,  0.00000000000000 ]
      - [ -0.25091565253015,  0.00000000000000 ]
    - # atom 4
      - [ -0.32985090655587,  0.00000000000000 ]
      - [  0.01124728113364,  0.00000000000000 ]
      - [ -0.25091565253014,  0.00000000000000 ]
    - # atom 5
      - [  0.18796848234748,  0.00000000000000 ]
      - [  0.29499431121726,  0.00000000000000 ]
      - [  0.13551353041851,  0.00000000000000 ]
    - # atom 6
      - [  0.18796848234748,  0.00000000000000 ]
      - [ -0.29499431121726,  0.00000000000000 ]
      - [  0.13551353041851,  0.00000000000000 ]
    - # atom 7
      - [  0.12319206663953,  0.00000000000000 ]
      - [ -0.00599997687078,  0.00000000000000 ]
      - [  0.04413270784142,  0.00000000000000 ]
    - # atom 8
      - [  0.10864667663225,  0.00000000000000 ]
      - [ -0.13474264550503,  0.00000000000000 ]
      - [  0.09684695360321,  0.00000000000000 ]
    - # atom 9
      - [ -0.01126704056320,  0.00000000000000 ]
      - [  0.12320170087524,  0.00000000000000 ]
      - [  0.01448254591690,  0.00000000000000 ]
    - # atom 10
      - [  0.10864667663225,  0.00000000000000 ]
      - [  0.13474264550503,  0.00000000000000 ]
      - [  0.09684695360321,  0.00000000000000 ]
    - # atom 11
      - [  0.12319206663953,  0.00000000000000 ]
      - [  0.00599997687078,  0.00000000000000 ]
      - [  0.04413270784142,  0.00000000000000 ]
    - # atom 12
      - [ -0.01126704056320,  0.00000000000000 ]