phonopy:
  version: 1.11.14
  configuration:
    dim: "1 1 1"
    create_displacements: ".true."

supercell_matrix:
- [   1,   0,   0 ]
- [   0,   1,   0 ]
- [   0,   0,   1 ]

space_group:
  type: "Cc"
  number: 9
  Hall_symbol: "C -2yc"

primitive_cell:
  lattice:
  - [     3.224796000000000,    -5.643830000000000,     0.031572000000000 ] # a
  - [     3.224796000000000,     5.643830000000000,     0.031572000000000 ] # b
  - [    -2.101946000000000,     0.000000000000000,     6.075537000000000 ] # c
  points:
  - symbol: Cu # 1
    coordinates: [  0.618443000000000,  0.121171000000000,  0.119533000000000 ]
    mass: 63.546000
  - symbol: Cu # 2
    coordinates: [  0.121171000000000,  0.618443000000000,  0.619533000000000 ]
    mass: 63.546000
  - symbol: Cu # 3
    coordinates: [  0.962957000000000,  0.790322000000000,  0.118813000000000 ]
    mass: 63.546000
  - symbol: Cu # 4
    coordinates: [  0.790322000000000,  0.962957000000000,  0.618813000000000 ]
    mass: 63.546000
  - symbol: Ge # 5
    coordinates: [  0.439732000000000,  0.267281000000000,  0.599047000000000 ]
    mass: 72.640000
  - symbol: Ge # 6
    coordinates: [  0.267281000000000,  0.439732000000000,  0.099047000000000 ]
    mass: 72.640000
  - symbol: S  # 7
    coordinates: [  0.079498000000000,  0.911675000000000,  0.497363000000000 ]
    mass: 32.065000
  - symbol: S  # 8
    coordinates: [  0.571403000000000,  0.412364000000000,  0.980184000000000 ]
    mass: 32.065000
  - symbol: S  # 9
    coordinates: [  0.737111000000000,  0.250062000000000,  0.495049000000000 ]
    mass: 32.065000
  - symbol: S  # 10
    coordinates: [  0.412364000000000,  0.571403000000000,  0.480184000000000 ]
    mass: 32.065000
  - symbol: S  # 11
    coordinates: [  0.911675000000000,  0.079498000000000,  0.997363000000000 ]
    mass: 32.065000
  - symbol: S  # 12
    coordinates: [  0.250062000000000,  0.737111000000000,  0.995049000000000 ]
    mass: 32.065000
  reciprocal_lattice: # without 2pi
  - [     0.154525164726739,    -0.088592321171970,     0.053460879572737 ] # a*
  - [     0.154525164726739,     0.088592321171970,     0.053460879572737 ] # b*
  - [    -0.001606004045651,     0.000000000000000,     0.164038876928946 ] # c*

unit_cell:
  lattice:
  - [     3.224796000000000,    -5.643830000000000,     0.031572000000000 ] # a
  - [     3.224796000000000,     5.643830000000000,     0.031572000000000 ] # b
  - [    -2.101946000000000,     0.000000000000000,     6.075537000000000 ] # c
  points:
  - symbol: Cu # 1
    coordinates: [  0.618443000000000,  0.121171000000000,  0.119533000000000 ]
    mass: 63.546000
    reduced_to: 1
  - symbol: Cu # 2
    coordinates: [  0.121171000000000,  0.618443000000000,  0.619533000000000 ]
    mass: 63.546000
    reduced_to: 2
  - symbol: Cu # 3
    coordinates: [  0.962957000000000,  0.790322000000000,  0.118813000000000 ]
    mass: 63.546000
    reduced_to: 3
  - symbol: Cu # 4
    coordinates: [  0.790322000000000,  0.962957000000000,  0.618813000000000 ]
    mass: 63.546000
    reduced_to: 4
  - symbol: Ge # 5
    coordinates: [  0.439732000000000,  0.267281000000000,  0.599047000000000 ]
    mass: 72.640000
    reduced_to: 5
  - symbol: Ge # 6
    coordinates: [  0.267281000000000,  0.439732000000000,  0.099047000000000 ]
    mass: 72.640000
    reduced_to: 6
  - symbol: S  # 7
    coordinates: [  0.079498000000000,  0.911675000000000,  0.497363000000000 ]
    mass: 32.065000
    reduced_to: 7
  - symbol: S  # 8
    coordinates: [  0.571403000000000,  0.412364000000000,  0.980184000000000 ]
    mass: 32.065000
    reduced_to: 8
  - symbol: S  # 9
    coordinates: [  0.737111000000000,  0.250062000000000,  0.495049000000000 ]
    mass: 32.065000
    reduced_to: 9
  - symbol: S  # 10
    coordinates: [  0.412364000000000,  0.571403000000000,  0.480184000000000 ]
    mass: 32.065000
    reduced_to: 10
  - symbol: S  # 11
    coordinates: [  0.911675000000000,  0.079498000000000,  0.997363000000000 ]
    mass: 32.065000
    reduced_to: 11
  - symbol: S  # 12
    coordinates: [  0.250062000000000,  0.737111000000000,  0.995049000000000 ]
    mass: 32.065000
    reduced_to: 12

supercell:
  lattice:
  - [     3.224796000000000,    -5.643830000000000,     0.031572000000000 ] # a
  - [     3.224796000000000,     5.643830000000000,     0.031572000000000 ] # b
  - [    -2.101946000000000,     0.000000000000000,     6.075537000000000 ] # c
  points:
  - symbol: Cu # 1
    coordinates: [  0.618443000000000,  0.121171000000000,  0.119533000000000 ]
    mass: 63.546000
    reduced_to: 1
  - symbol: Cu # 2
    coordinates: [  0.121171000000000,  0.618443000000000,  0.619533000000000 ]
    mass: 63.546000
    reduced_to: 2
  - symbol: Cu # 3
    coordinates: [  0.962957000000000,  0.790322000000000,  0.118813000000000 ]
    mass: 63.546000
    reduced_to: 3
  - symbol: Cu # 4
    coordinates: [  0.790322000000000,  0.962957000000000,  0.618813000000000 ]
    mass: 63.546000
    reduced_to: 4
  - symbol: Ge # 5
    coordinates: [  0.439732000000000,  0.267281000000000,  0.599047000000000 ]
    mass: 72.640000
    reduced_to: 5
  - symbol: Ge # 6
    coordinates: [  0.267281000000000,  0.439732000000000,  0.099047000000000 ]
    mass: 72.640000
    reduced_to: 6
  - symbol: S  # 7
    coordinates: [  0.079498000000000,  0.911675000000000,  0.497363000000000 ]
    mass: 32.065000
    reduced_to: 7
  - symbol: S  # 8
    coordinates: [  0.571403000000000,  0.412364000000000,  0.980184000000000 ]
    mass: 32.065000
    reduced_to: 8
  - symbol: S  # 9
    coordinates: [  0.737111000000000,  0.250062000000000,  0.495049000000000 ]
    mass: 32.065000
    reduced_to: 9
  - symbol: S  # 10
    coordinates: [  0.412364000000000,  0.571403000000000,  0.480184000000000 ]
    mass: 32.065000
    reduced_to: 10
  - symbol: S  # 11
    coordinates: [  0.911675000000000,  0.079498000000000,  0.997363000000000 ]
    mass: 32.065000
    reduced_to: 11
  - symbol: S  # 12
    coordinates: [  0.250062000000000,  0.737111000000000,  0.995049000000000 ]
    mass: 32.065000
    reduced_to: 12
