       N       E                     dE             d eps       ncg     rms          ort
SDA:   1     0.755368561686E+02    0.75537E+02   -0.21320E+03  3360   0.533E+03 0.000E+00
DMP:   2    -0.837981508723E+01   -0.83917E+02   -0.14688E+03  3360   0.395E+03-0.738E+02
DMP:   3    -0.151741742189E+02   -0.67944E+01   -0.20367E+03  3360   0.693E+03-0.481E+03
DMP:   4    -0.226517978505E+02   -0.74776E+01   -0.10736E+03  3360   0.390E+03-0.319E+03
DMP:   5    -0.608263363638E+02   -0.38175E+02   -0.15032E+02  3360   0.704E+02-0.860E+02
DMP:   6    -0.659147478178E+02   -0.50884E+01   -0.82402E+01  3360   0.249E+02-0.111E+02
DMP:   7    -0.674612531601E+02   -0.15465E+01   -0.41607E+01  3360   0.148E+02-0.115E+02
DMP:   8    -0.690842258289E+02   -0.16230E+01   -0.77140E+00  3360   0.284E+01-0.238E+01
DMP:   9    -0.693939921789E+02   -0.30977E+00   -0.38950E+00  3360   0.111E+01-0.370E+00
DMP:  10    -0.694985383158E+02   -0.10455E+00   -0.15289E+00  3360   0.551E+00-0.441E+00
DMP:  11    -0.695684644235E+02   -0.69926E-01   -0.37011E-01  3360   0.105E+00-0.338E-01
DMP:  12    -0.695807870204E+02   -0.12323E-01   -0.22977E-01  3360   0.694E-01-0.314E-01
DMP:  13    -0.695905023947E+02   -0.97154E-02   -0.51294E-02  3360   0.162E-01-0.881E-02
DMP:  14    -0.695929582678E+02   -0.24559E-02   -0.38033E-02  3360   0.971E-02-0.536E-03
DMP:  15    -0.695944701039E+02   -0.15118E-02   -0.10411E-02  3360   0.335E-02-0.196E-02
DMP:  16    -0.695950431519E+02   -0.57305E-03   -0.41125E-03  3360   0.921E-03 0.282E-03
DMP:  17    -0.695952164660E+02   -0.17331E-03   -0.20958E-03  3360   0.583E-03-0.155E-03
DMP:  18    -0.695953338765E+02   -0.11741E-03   -0.56226E-04  3360   0.120E-03 0.549E-04
DMP:  19    -0.695953627125E+02   -0.28836E-04   -0.35432E-04  3360   0.888E-04-0.601E-06
DMP:  20    -0.695953825046E+02   -0.19792E-04   -0.11583E-04  3360   0.242E-04 0.123E-04
DMP:  21    -0.695953898845E+02   -0.73799E-05   -0.70251E-05  3360   0.141E-04 0.908E-05
   1 F= -.69595390E+02 E0= -.69595577E+02  d E =0.562510E-03
