   12   12    1    1
  0.1849176E+02  0.6500240E-09  0.6500240E-09  0.6428867E-09  0.5000000E-15
  1.000000000000000E-004
  CAR 
 CGS                                     
  112   42   80
 
  0.0000000E+00  0.0000000E+00  0.0000000E+00  0.1250000E-01
   1      -68.645600
   2      -68.642224
   3      -68.641954
   4      -68.633487
   5      -68.613023
   6      -68.609076
   7      -68.595925
   8      -68.591848
   9      -68.585323
  10      -68.577724
  11      -68.570321
  12      -68.560781
  13      -12.719648
  14      -11.127063
  15      -10.916985
  16      -10.604141
  17      -10.248383
  18      -10.233484
  19       -5.985821
  20       -4.982429
  21       -2.760069
  22       -2.208788
  23       -2.066391
  24       -1.921783
  25       -1.577410
  26       -0.989516
  27       -0.951768
  28       -0.682681
  29       -0.403940
  30       -0.277387
  31       -0.258958
  32       -0.235794
  33       -0.190840
  34       -0.158232
  35       -0.044972
  36        0.033608
  37        1.350478
  38        1.362394
  39        1.413667
  40        1.454428
  41        1.470178
  42        1.471485
  43        1.520548
  44        1.530068
  45        1.575289
  46        1.711601
  47        1.891606
  48        1.927765
  49        2.057845
  50        2.652471
  51        2.726346
  52        3.091928
  53        3.217850
  54        4.008933
  55        4.038862
  56        4.174809
  57        5.534718
  58        6.353816
  59        7.628030
  60        7.987199
  61        8.614069
  62        8.790770
  63        9.565471
  64        9.740069
  65        9.815202
  66       10.423507
  67       10.580831
  68       10.694121
  69       10.718833
  70       11.292950
  71       11.709381
  72       12.385778
  73       12.450620
  74       12.726224
  75       13.321568
  76       13.390143
  77       13.829274
  78       13.887905
  79       14.145736
  80       14.178121
 
  0.2500000E+00  0.7372575E-17  0.1387779E-16  0.2500000E-01
   1      -68.645577
   2      -68.642183
   3      -68.641911
   4      -68.633462
   5      -68.612919
   6      -68.608976
   7      -68.595923
   8      -68.591868
   9      -68.585265
  10      -68.577656
  11      -68.570287
  12      -68.560748
  13      -12.594774
  14      -11.123762
  15      -10.983379
  16      -10.677333
  17      -10.365519
  18      -10.274143
  19       -5.934516
  20       -4.772801
  21       -2.646441
  22       -2.251026
  23       -2.084917
  24       -1.687185
  25       -1.343698
  26       -1.000146
  27       -0.768908
  28       -0.624835
  29       -0.553516
  30       -0.439722
  31       -0.358827
  32       -0.243524
  33       -0.196453
  34       -0.167848
  35       -0.050830
  36        0.038846
  37        1.277941
  38        1.333605
  39        1.352877
  40        1.392668
  41        1.427391
  42        1.470715
  43        1.495378
  44        1.530704
  45        1.724257
  46        1.859271
  47        2.054988
  48        2.092172
  49        2.231398
  50        2.413230
  51        2.556436
  52        2.826560
  53        2.947328
  54        3.243581
  55        3.664539
  56        4.042637
  57        6.166278
  58        6.901859
  59        8.136450
  60        8.266979
  61        8.591401
  62        9.018353
  63        9.242364
  64        9.530197
  65        9.858899
  66       10.379668
  67       10.634317
  68       10.815542
  69       10.943289
  70       11.187310
  71       11.651027
  72       11.769412
  73       12.116684
  74       12.444524
  75       12.623100
  76       13.007613
  77       13.507361
  78       13.874310
  79       14.210171
  80       14.710086
 
  0.5000000E+00  0.1474515E-16  0.2775558E-16  0.1250000E-01
   1      -68.645408
   2      -68.642127
   3      -68.641779
   4      -68.633376
   5      -68.612904
   6      -68.608929
   7      -68.595856
   8      -68.591780
   9      -68.585255
  10      -68.577598
  11      -68.570117
  12      -68.560633
  13      -12.435607
  14      -11.246111
  15      -10.957386
  16      -10.764281
  17      -10.427643
  18      -10.353762
  19       -5.872666
  20       -4.548810
  21       -2.495120
  22       -2.242784
  23       -1.944578
  24       -1.463055
  25       -1.223405
  26       -1.097761
  27       -0.901365
  28       -0.866128
  29       -0.602033
  30       -0.535786
  31       -0.275272
  32       -0.210501
  33       -0.199994
  34       -0.145232
  35       -0.033244
  36        0.079617
  37        1.251634
  38        1.325685
  39        1.348125
  40        1.396562
  41        1.470169
  42        1.475790
  43        1.499699
  44        1.554001
  45        1.752727
  46        1.789091
  47        1.966247
  48        2.145392
  49        2.318892
  50        2.360378
  51        2.557646
  52        2.671526
  53        2.937767
  54        3.081221
  55        3.248266
  56        3.864564
  57        6.380867
  58        7.094102
  59        7.982450
  60        8.205256
  61        8.518877
  62        8.818647
  63        9.326984
  64        9.893695
  65       10.001070
  66       10.515420
  67       10.687970
  68       10.791279
  69       11.147624
  70       11.407413
  71       11.607023
  72       11.775956
  73       11.949521
  74       12.503332
  75       12.778412
  76       13.002438
  77       13.392304
  78       13.544331
  79       13.942074
  80       14.273832
 
  0.7372575E-17  0.2500000E+00  0.1387779E-16  0.2500000E-01
   1      -68.645555
   2      -68.642203
   3      -68.641930
   4      -68.633447
   5      -68.612914
   6      -68.608981
   7      -68.595949
   8      -68.591841
   9      -68.585252
  10      -68.577671
  11      -68.570285
  12      -68.560746
  13      -12.594549
  14      -11.124689
  15      -10.983754
  16      -10.677370
  17      -10.362570
  18      -10.275920
  19       -5.934573
  20       -4.772378
  21       -2.645282
  22       -2.252711
  23       -2.084446
  24       -1.687863
  25       -1.345460
  26       -1.000790
  27       -0.767796
  28       -0.624930
  29       -0.552478
  30       -0.440822
  31       -0.360008
  32       -0.241258
  33       -0.195806
  34       -0.169182
  35       -0.049970
  36        0.038886
  37        1.278906
  38        1.333953
  39        1.353473
  40        1.390927
  41        1.427604
  42        1.471382
  43        1.497286
  44        1.527591
  45        1.724128
  46        1.859566
  47        2.055594
  48        2.093477
  49        2.230449
  50        2.413231
  51        2.554842
  52        2.827528
  53        2.948560
  54        3.243674
  55        3.663969
  56        4.042428
  57        6.167167
  58        6.901192
  59        8.136895
  60        8.266461
  61        8.592887
  62        9.012973
  63        9.238665
  64        9.529531
  65        9.866138
  66       10.378523
  67       10.634521
  68       10.814518
  69       10.940933
  70       11.197424
  71       11.652876
  72       11.769828
  73       12.115506
  74       12.439720
  75       12.618509
  76       13.009968
  77       13.514700
  78       13.899489
  79       14.274040
  80       14.842431
 
  0.2500000E+00  0.2500000E+00  0.0000000E+00  0.2500000E-01
   1      -68.645577
   2      -68.642150
   3      -68.641870
   4      -68.633346
   5      -68.613052
   6      -68.609114
   7      -68.595825
   8      -68.591741
   9      -68.585384
  10      -68.577787
  11      -68.570304
  12      -68.560765
  13      -12.439122
  14      -11.188715
  15      -10.942995
  16      -10.878529
  17      -10.388510
  18      -10.347875
  19       -5.877702
  20       -4.521665
  21       -2.418194
  22       -2.244907
  23       -1.790996
  24       -1.680301
  25       -1.356150
  26       -1.297601
  27       -1.082808
  28       -0.680109
  29       -0.524500
  30       -0.297640
  31       -0.282929
  32       -0.228537
  33       -0.184196
  34       -0.131988
  35       -0.092305
  36        0.078249
  37        1.292077
  38        1.310153
  39        1.414273
  40        1.426805
  41        1.463983
  42        1.481045
  43        1.493855
  44        1.567665
  45        1.669743
  46        1.878515
  47        1.938295
  48        2.134276
  49        2.278322
  50        2.321200
  51        2.560779
  52        2.652623
  53        2.904899
  54        2.944165
  55        3.698871
  56        3.835286
  57        6.166317
  58        6.985532
  59        8.003330
  60        8.330227
  61        8.430891
  62        8.573405
  63        9.144348
  64        9.248792
  65       10.357268
  66       10.490333
  67       10.923560
  68       11.188687
  69       11.329079
  70       11.553509
  71       11.819496
  72       11.965111
  73       12.313152
  74       12.501219
  75       12.714762
  76       12.911122
  77       13.341869
  78       13.446502
  79       14.253906
  80       14.370871
 
  0.5000000E+00  0.2500000E+00 -0.2775558E-16  0.2500000E-01
   1      -68.645302
   2      -68.642063
   3      -68.641867
   4      -68.633422
   5      -68.612821
   6      -68.608883
   7      -68.595873
   8      -68.591775
   9      -68.585209
  10      -68.577567
  11      -68.570162
  12      -68.560633
  13      -12.439662
  14      -11.350979
  15      -10.938386
  16      -10.738114
  17      -10.387772
  18      -10.269358
  19       -5.948522
  20       -4.642054
  21       -2.391940
  22       -2.225351
  23       -2.057468
  24       -1.638406
  25       -1.359473
  26       -1.282671
  27       -1.022361
  28       -0.510712
  29       -0.485199
  30       -0.331096
  31       -0.284688
  32       -0.214957
  33       -0.152856
  34       -0.133754
  35       -0.012681
  36        0.108439
  37        1.244693
  38        1.314286
  39        1.382324
  40        1.435415
  41        1.460804
  42        1.491320
  43        1.495095
  44        1.549263
  45        1.749233
  46        1.824941
  47        1.920296
  48        2.134327
  49        2.220554
  50        2.383270
  51        2.560363
  52        2.791856
  53        2.978545
  54        3.313096
  55        3.606532
  56        3.750990
  57        6.083272
  58        6.935439
  59        7.609987
  60        8.070272
  61        8.412064
  62        8.615782
  63        8.980689
  64        9.151391
  65       10.087165
  66       10.336250
  67       10.734308
  68       11.106121
  69       11.454704
  70       11.600392
  71       11.797183
  72       12.096008
  73       12.477679
  74       12.916234
  75       13.034194
  76       13.839911
  77       14.215018
  78       14.652465
  79       15.435526
  80       15.643815
 
 -0.2500000E+00  0.2500000E+00  0.0000000E+00  0.2500000E-01
   1      -68.645568
   2      -68.642177
   3      -68.641913
   4      -68.633427
   5      -68.612850
   6      -68.608913
   7      -68.595919
   8      -68.591837
   9      -68.585207
  10      -68.577611
  11      -68.570287
  12      -68.560748
  13      -12.597582
  14      -11.248111
  15      -10.992449
  16      -10.570260
  17      -10.365168
  18      -10.178228
  19       -6.010495
  20       -4.893598
  21       -2.646384
  22       -2.312784
  23       -1.972213
  24       -1.644469
  25       -1.496434
  26       -1.181993
  27       -0.790376
  28       -0.585270
  29       -0.447980
  30       -0.336832
  31       -0.295711
  32       -0.231794
  33       -0.175353
  34       -0.133535
  35       -0.008919
  36        0.067172
  37        1.258420
  38        1.318636
  39        1.366272
  40        1.420802
  41        1.429126
  42        1.474572
  43        1.501635
  44        1.545116
  45        1.725264
  46        1.811131
  47        1.993378
  48        2.070588
  49        2.414906
  50        2.462363
  51        2.531282
  52        2.872572
  53        3.142581
  54        3.228230
  55        3.785044
  56        4.072409
  57        5.977245
  58        6.687307
  59        7.530486
  60        8.224471
  61        8.615637
  62        8.913039
  63        9.301840
  64        9.434348
  65        9.801958
  66       10.271087
  67       10.545690
  68       10.830707
  69       10.977678
  70       11.379517
  71       11.480522
  72       11.730308
  73       12.099517
  74       12.663448
  75       12.939973
  76       13.098588
  77       13.353512
  78       13.516936
  79       14.477030
  80       14.755278
 
  0.1474515E-16  0.5000000E+00  0.2775558E-16  0.1250000E-01
   1      -68.645430
   2      -68.642024
   3      -68.641860
   4      -68.633371
   5      -68.612862
   6      -68.608966
   7      -68.595861
   8      -68.591777
   9      -68.585199
  10      -68.577660
  11      -68.570173
  12      -68.560579
  13      -12.434945
  14      -11.248996
  15      -10.957043
  16      -10.763937
  17      -10.422638
  18      -10.357152
  19       -5.872625
  20       -4.547884
  21       -2.493856
  22       -2.244339
  23       -1.943436
  24       -1.465528
  25       -1.226764
  26       -1.101770
  27       -0.899793
  28       -0.865072
  29       -0.600433
  30       -0.536154
  31       -0.275163
  32       -0.204885
  33       -0.200063
  34       -0.151459
  35       -0.028363
  36        0.078161
  37        1.253894
  38        1.327216
  39        1.345742
  40        1.397042
  41        1.469149
  42        1.477558
  43        1.499643
  44        1.550188
  45        1.751802
  46        1.788400
  47        1.966709
  48        2.148537
  49        2.320629
  50        2.361110
  51        2.558191
  52        2.671633
  53        2.935670
  54        3.082503
  55        3.248988
  56        3.864021
  57        6.381728
  58        7.093199
  59        7.980964
  60        8.201325
  61        8.516398
  62        8.815782
  63        9.330721
  64        9.881772
  65       10.008969
  66       10.521968
  67       10.693080
  68       10.797165
  69       11.139982
  70       11.408060
  71       11.613245
  72       11.776299
  73       11.945297
  74       12.507349
  75       12.825216
  76       13.030548
  77       13.548476
  78       13.690424
  79       14.547680
  80       15.244029
 
  0.2500000E+00  0.5000000E+00 -0.2775558E-16  0.2500000E-01
   1      -68.645340
   2      -68.641899
   3      -68.641980
   4      -68.633410
   5      -68.612790
   6      -68.608926
   7      -68.595868
   8      -68.591797
   9      -68.585176
  10      -68.577603
  11      -68.570193
  12      -68.560595
  13      -12.439313
  14      -11.352183
  15      -10.938287
  16      -10.737904
  17      -10.386798
  18      -10.269735
  19       -5.948540
  20       -4.641682
  21       -2.391187
  22       -2.224856
  23       -2.057462
  24       -1.640466
  25       -1.362748
  26       -1.280711
  27       -1.022750
  28       -0.512320
  29       -0.483369
  30       -0.331924
  31       -0.284269
  32       -0.214683
  33       -0.152116
  34       -0.134492
  35       -0.012110
  36        0.109104
  37        1.245768
  38        1.314786
  39        1.381729
  40        1.436588
  41        1.461560
  42        1.491120
  43        1.495312
  44        1.546172
  45        1.748604
  46        1.825737
  47        1.921236
  48        2.133730
  49        2.220255
  50        2.385064
  51        2.560779
  52        2.791354
  53        2.979780
  54        3.312141
  55        3.606373
  56        3.750153
  57        6.083939
  58        6.935458
  59        7.610307
  60        8.068075
  61        8.410896
  62        8.617100
  63        8.983734
  64        9.147932
  65       10.084684
  66       10.335494
  67       10.734401
  68       11.105773
  69       11.460523
  70       11.584152
  71       11.785713
  72       12.029367
  73       12.506449
  74       12.669668
  75       12.912922
  76       13.203159
  77       14.220055
  78       14.718009
  79       15.169981
  80       15.896917
 
  0.5000000E+00  0.5000000E+00  0.0000000E+00  0.1250000E-01
   1      -68.645169
   2      -68.641727
   3      -68.641795
   4      -68.633231
   5      -68.612690
   6      -68.608819
   7      -68.595670
   8      -68.591613
   9      -68.585094
  10      -68.577490
  11      -68.569959
  12      -68.560417
  13      -12.431421
  14      -11.498667
  15      -10.913489
  16      -10.617550
  17      -10.396353
  18      -10.197948
  19       -6.026209
  20       -4.809190
  21       -2.310890
  22       -2.265017
  23       -2.092536
  24       -1.704567
  25       -1.245520
  26       -1.109842
  27       -0.841991
  28       -0.776753
  29       -0.728250
  30       -0.244101
  31       -0.201734
  32       -0.181178
  33       -0.153148
  34       -0.043038
  35       -0.001083
  36        0.178126
  37        1.263207
  38        1.318647
  39        1.376683
  40        1.411008
  41        1.429500
  42        1.493019
  43        1.506409
  44        1.550595
  45        1.783097
  46        1.847140
  47        1.994618
  48        2.149870
  49        2.250659
  50        2.338553
  51        2.559088
  52        2.761663
  53        2.774528
  54        3.370195
  55        3.765919
  56        4.010877
  57        5.850069
  58        6.766592
  59        7.076199
  60        8.414615
  61        8.561302
  62        8.774429
  63        9.139828
  64        9.240487
  65        9.957392
  66       10.286684
  67       10.724699
  68       10.832057
  69       10.873521
  70       11.274215
  71       11.759648
  72       11.915030
  73       11.969375
  74       12.369392
  75       12.539807
  76       13.452254
  77       14.283002
  78       14.670691
  79       16.745919
  80       16.756722
 
 -0.2168404E-18 -0.2168404E-18  0.2000000E+00  0.2500000E-01
   1      -68.645604
   2      -68.642239
   3      -68.641913
   4      -68.633456
   5      -68.612946
   6      -68.609007
   7      -68.595944
   8      -68.591861
   9      -68.585293
  10      -68.577697
  11      -68.570323
  12      -68.560783
  13      -12.616447
  14      -11.423710
  15      -10.777657
  16      -10.609033
  17      -10.247313
  18      -10.235299
  19       -5.832253
  20       -5.046117
  21       -2.599699
  22       -2.370895
  23       -1.961135
  24       -1.772934
  25       -1.445037
  26       -1.126401
  27       -1.067556
  28       -0.772754
  29       -0.471259
  30       -0.293534
  31       -0.238469
  32       -0.236667
  33       -0.191174
  34       -0.148292
  35       -0.022805
  36        0.025371
  37        1.333071
  38        1.381319
  39        1.416873
  40        1.438072
  41        1.461758
  42        1.465229
  43        1.514065
  44        1.543048
  45        1.632470
  46        1.759127
  47        1.786731
  48        1.949498
  49        2.087353
  50        2.658343
  51        2.720923
  52        3.195646
  53        3.253501
  54        3.523256
  55        3.897132
  56        3.977406
  57        6.041096
  58        6.411823
  59        7.823938
  60        7.908097
  61        8.362652
  62        8.817312
  63        9.775624
  64        9.792706
  65       10.060808
  66       10.583929
  67       10.644965
  68       10.819803
  69       10.857637
  70       11.495560
  71       11.558572
  72       12.029205
  73       12.575031
  74       12.771262
  75       12.915316
  76       13.206833
  77       13.535634
  78       13.825144
  79       14.194799
  80       14.703535
 
  0.2500000E+00  0.1517883E-17  0.2000000E+00  0.2500000E-01
   1      -68.645541
   2      -68.642156
   3      -68.641916
   4      -68.633441
   5      -68.612982
   6      -68.609050
   7      -68.595907
   8      -68.591817
   9      -68.585300
  10      -68.577713
  11      -68.570264
  12      -68.560715
  13      -12.457443
  14      -11.465359
  15      -10.863140
  16      -10.688965
  17      -10.372701
  18      -10.242403
  19       -5.768165
  20       -4.804242
  21       -2.444322
  22       -2.232391
  23       -1.848933
  24       -1.714096
  25       -1.430213
  26       -1.188681
  27       -0.891681
  28       -0.747089
  29       -0.604766
  30       -0.522406
  31       -0.311698
  32       -0.245391
  33       -0.176244
  34       -0.121330
  35       -0.058390
  36        0.060606
  37        1.301143
  38        1.336089
  39        1.369923
  40        1.427819
  41        1.445480
  42        1.478268
  43        1.520098
  44        1.544739
  45        1.641863
  46        1.870168
  47        1.975462
  48        2.048148
  49        2.194702
  50        2.474875
  51        2.596864
  52        2.841043
  53        2.963445
  54        3.134151
  55        3.569793
  56        3.726952
  57        6.435499
  58        6.953282
  59        8.170092
  60        8.244678
  61        8.832754
  62        9.129171
  63        9.464112
  64        9.796820
  65       10.087786
  66       10.295591
  67       10.741922
  68       11.077027
  69       11.290198
  70       11.423054
  71       11.630545
  72       11.727514
  73       12.085479
  74       12.265964
  75       12.542085
  76       12.666552
  77       12.956299
  78       13.056563
  79       13.638876
  80       14.689651
 
  0.5000000E+00  0.9107298E-17  0.2000000E+00  0.2500000E-01
   1      -68.645298
   2      -68.642079
   3      -68.641813
   4      -68.633364
   5      -68.612849
   6      -68.608907
   7      -68.595824
   8      -68.591701
   9      -68.585217
  10      -68.577591
  11      -68.570202
  12      -68.560657
  13      -12.355334
  14      -11.411899
  15      -10.952187
  16      -10.683783
  17      -10.476976
  18      -10.331951
  19       -5.754063
  20       -4.723210
  21       -2.522337
  22       -2.185309
  23       -1.950639
  24       -1.532855
  25       -1.298356
  26       -1.095129
  27       -0.872423
  28       -0.756804
  29       -0.550738
  30       -0.446656
  31       -0.292867
  32       -0.177785
  33       -0.146917
  34       -0.105950
  35       -0.049076
  36        0.022244
  37        1.270508
  38        1.296310
  39        1.352299
  40        1.426662
  41        1.451933
  42        1.480248
  43        1.499547
  44        1.587993
  45        1.718443
  46        1.931080
  47        2.074147
  48        2.146989
  49        2.267399
  50        2.401875
  51        2.569686
  52        2.597372
  53        2.898602
  54        3.011361
  55        3.357589
  56        3.901791
  57        6.359611
  58        6.894514
  59        7.575190
  60        8.084077
  61        8.546964
  62        8.797717
  63        9.279352
  64        9.623090
  65        9.930700
  66       10.273904
  67       10.657017
  68       10.928953
  69       10.970737
  70       11.282982
  71       11.517991
  72       11.787872
  73       12.247627
  74       12.556927
  75       13.097728
  76       13.518155
  77       14.292951
  78       14.573390
  79       15.116007
  80       16.268920
 
 -0.2500000E+00 -0.4098284E-16  0.2000000E+00  0.2500000E-01
   1      -68.645593
   2      -68.642207
   3      -68.641918
   4      -68.633432
   5      -68.612957
   6      -68.609012
   7      -68.595930
   8      -68.591843
   9      -68.585315
  10      -68.577709
  11      -68.570311
  12      -68.560782
  13      -12.540243
  14      -11.335554
  15      -10.872983
  16      -10.606622
  17      -10.395906
  18      -10.280925
  19       -5.826423
  20       -4.974829
  21       -2.666476
  22       -2.452060
  23       -2.036106
  24       -1.574268
  25       -1.170910
  26       -0.982278
  27       -0.793564
  28       -0.659399
  29       -0.516976
  30       -0.391035
  31       -0.269517
  32       -0.255876
  33       -0.191527
  34       -0.146915
  35       -0.050720
  36        0.015459
  37        1.287629
  38        1.309733
  39        1.387080
  40        1.408885
  41        1.433625
  42        1.456213
  43        1.490853
  44        1.565112
  45        1.688099
  46        1.916355
  47        1.985449
  48        2.144033
  49        2.335685
  50        2.563804
  51        2.615615
  52        2.829508
  53        2.972680
  54        3.247583
  55        3.685667
  56        3.946559
  57        6.173818
  58        6.634654
  59        7.765212
  60        7.971912
  61        8.214974
  62        8.560636
  63        9.376950
  64        9.577105
  65        9.909932
  66       10.249532
  67       10.542881
  68       10.789122
  69       10.844274
  70       11.067423
  71       11.564522
  72       12.019931
  73       12.527444
  74       12.741714
  75       12.959483
  76       13.313967
  77       13.417775
  78       13.741115
  79       13.845885
  80       14.727396
 
  0.1517883E-17  0.2500000E+00  0.2000000E+00  0.2500000E-01
   1      -68.645538
   2      -68.642181
   3      -68.641893
   4      -68.633441
   5      -68.612989
   6      -68.609043
   7      -68.595900
   8      -68.591824
   9      -68.585309
  10      -68.577703
  11      -68.570254
  12      -68.560726
  13      -12.457180
  14      -11.465585
  15      -10.864640
  16      -10.688698
  17      -10.370845
  18      -10.243032
  19       -5.768071
  20       -4.803781
  21       -2.443978
  22       -2.231525
  23       -1.850971
  24       -1.714419
  25       -1.432465
  26       -1.189702
  27       -0.888552
  28       -0.746500
  29       -0.605167
  30       -0.522843
  31       -0.311779
  32       -0.250001
  33       -0.173986
  34       -0.122105
  35       -0.055600
  36        0.060846
  37        1.301363
  38        1.334449
  39        1.368152
  40        1.431178
  41        1.446809
  42        1.479551
  43        1.519294
  44        1.545727
  45        1.640603
  46        1.870650
  47        1.978606
  48        2.045216
  49        2.194250
  50        2.476180
  51        2.593382
  52        2.840601
  53        2.967015
  54        3.135011
  55        3.569493
  56        3.725113
  57        6.436611
  58        6.951593
  59        8.170112
  60        8.246620
  61        8.830547
  62        9.128925
  63        9.466598
  64        9.789138
  65       10.084987
  66       10.302164
  67       10.742061
  68       11.076762
  69       11.295417
  70       11.422438
  71       11.633595
  72       11.728249
  73       12.080725
  74       12.265949
  75       12.542633
  76       12.659849
  77       12.953383
  78       13.056840
  79       13.658125
  80       14.697140
 
  0.2500000E+00  0.2500000E+00  0.2000000E+00  0.2500000E-01
   1      -68.645450
   2      -68.642037
   3      -68.641797
   4      -68.633288
   5      -68.612827
   6      -68.608891
   7      -68.595778
   8      -68.591696
   9      -68.585174
  10      -68.577575
  11      -68.570171
  12      -68.560630
  13      -12.325539
  14      -11.474288
  15      -10.863861
  16      -10.854726
  17      -10.405633
  18      -10.284303
  19       -5.749870
  20       -4.692327
  21       -2.239823
  22       -2.138587
  23       -1.928849
  24       -1.849742
  25       -1.451894
  26       -1.396357
  27       -1.038890
  28       -0.520243
  29       -0.460384
  30       -0.349088
  31       -0.248570
  32       -0.223250
  33       -0.163439
  34       -0.112457
  35       -0.089387
  36        0.078181
  37        1.260573
  38        1.347163
  39        1.394680
  40        1.435162
  41        1.452303
  42        1.508897
  43        1.535461
  44        1.544419
  45        1.751046
  46        1.817316
  47        2.037942
  48        2.133373
  49        2.287378
  50        2.308728
  51        2.523800
  52        2.767521
  53        2.900308
  54        3.264405
  55        3.497117
  56        3.801643
  57        6.177535
  58        6.836583
  59        7.829676
  60        8.044954
  61        8.184490
  62        8.725212
  63        9.152937
  64        9.302007
  65       10.224517
  66       10.441037
  67       10.589623
  68       11.007702
  69       11.241399
  70       11.487114
  71       11.814182
  72       12.170782
  73       12.208131
  74       12.578715
  75       12.690171
  76       13.110562
  77       13.416337
  78       13.883636
  79       14.004210
  80       14.521440
 
  0.5000000E+00  0.2500000E+00  0.2000000E+00  0.2500000E-01
   1      -68.645293
   2      -68.641946
   3      -68.641902
   4      -68.633397
   5      -68.612779
   6      -68.608970
   7      -68.595852
   8      -68.591727
   9      -68.585209
  10      -68.577616
  11      -68.570152
  12      -68.560602
  13      -12.372427
  14      -11.471638
  15      -10.936123
  16      -10.653255
  17      -10.416914
  18      -10.303600
  19       -5.801849
  20       -4.836594
  21       -2.526759
  22       -2.244694
  23       -1.870783
  24       -1.640168
  25       -1.503695
  26       -1.308196
  27       -0.899843
  28       -0.534570
  29       -0.381917
  30       -0.348816
  31       -0.224898
  32       -0.179805
  33       -0.160664
  34       -0.077202
  35       -0.025505
  36        0.075299
  37        1.187662
  38        1.361946
  39        1.397967
  40        1.440235
  41        1.462188
  42        1.506989
  43        1.519565
  44        1.583791
  45        1.740797
  46        1.816845
  47        2.035537
  48        2.235784
  49        2.266575
  50        2.362361
  51        2.486992
  52        2.672073
  53        3.051884
  54        3.410724
  55        3.730071
  56        3.867994
  57        5.926911
  58        6.610943
  59        7.350784
  60        7.945135
  61        8.064096
  62        8.721174
  63        8.905260
  64        9.136333
  65        9.846099
  66       10.328593
  67       10.555250
  68       10.928098
  69       11.222833
  70       11.413580
  71       11.752071
  72       12.002190
  73       12.495509
  74       12.834442
  75       13.206211
  76       14.086563
  77       14.714522
  78       15.054693
  79       15.919782
  80       16.569775
 
 -0.2500000E+00  0.2500000E+00  0.2000000E+00  0.2500000E-01
   1      -68.645541
   2      -68.642128
   3      -68.641952
   4      -68.633489
   5      -68.612901