 vasp.5.3.3 18Dez12 (build Nov 13 2015 09:58:40) complex                        
  
 executed on             LinuxIFC date 2017.10.18  13:15:29
 running on   48 total cores
 distrk:  each k-point on   16 cores,    3 groups
 distr:  one band on NCORES_PER_BAND=   1 cores,   16 groups


--------------------------------------------------------------------------------------------------------


 INCAR:
 POTCAR:    PAW_PBE Cu_pv 06Sep2000               
 POTCAR:    PAW_PBE Ge 05Jan2001                  
 POTCAR:    PAW_PBE S 17Jan2003                   

 ----------------------------------------------------------------------------- 
|                                                                             |
|           W    W    AA    RRRRR   N    N  II  N    N   GGGG   !!!           |
|           W    W   A  A   R    R  NN   N  II  NN   N  G    G  !!!           |
|           W    W  A    A  R    R  N N  N  II  N N  N  G       !!!           |
|           W WW W  AAAAAA  RRRRR   N  N N  II  N  N N  G  GGG   !            |
|           WW  WW  A    A  R   R   N   NN  II  N   NN  G    G                |
|           W    W  A    A  R    R  N    N  II  N    N   GGGG   !!!           |
|                                                                             |
|      For optimal performance we recommend that you set                      |
|        NPAR = 4 - approx SQRT( number of cores)                             |
|      (number of cores/NPAR must be integer)                                 |
|      This setting will greatly improve the performance of VASP for DFT.     |
|      The default NPAR=number of cores might be grossly inefficient          |
|      on modern multi-core architectures or massively parallel machines.     |
|      Do your own testing.                                                   |
|      Unfortunately you need to use the default for hybrid, GW and RPA       |
|      calculations.                                                          |
|                                                                             |
 ----------------------------------------------------------------------------- 


 ----------------------------------------------------------------------------- 
|                                                                             |
|           W    W    AA    RRRRR   N    N  II  N    N   GGGG   !!!           |
|           W    W   A  A   R    R  NN   N  II  NN   N  G    G  !!!           |
|           W    W  A    A  R    R  N N  N  II  N N  N  G       !!!           |
|           W WW W  AAAAAA  RRRRR   N  N N  II  N  N N  G  GGG   !            |
|           WW  WW  A    A  R   R   N   NN  II  N   NN  G    G                |
|           W    W  A    A  R    R  N    N  II  N    N   GGGG   !!!           |
|                                                                             |
|      You have enabled k-point parallelism (KPAR>1).                         |
|      This developmental code was originally  written by Paul Kent at ORNL,  |
|      and carefully double checked in Vienna.                                |
|      GW as well as linear response parallelism added by Martijn Marsman     |
|      and Georg Kresse.                                                      |
|      Carefully verify results versus KPAR=1.                                |
|      Report problems to Paul Kent and Vienna.                               |
|                                                                             |
 ----------------------------------------------------------------------------- 

 POTCAR:    PAW_PBE Cu_pv 06Sep2000               
   VRHFIN =Cu: d10 p1                                                           
   LEXCH  = PE                                                                  
   EATOM  =  4120.1201 eV,  302.8203 Ry                                         
                                                                                
   TITEL  = PAW_PBE Cu_pv 06Sep2000                                             
   LULTRA =        F    use ultrasoft PP ?                                      
   IUNSCR =        1    unscreen: 0-lin 1-nonlin 2-no                           
   RPACOR =    1.500    partial core radius                                     
   POMASS =   63.546; ZVAL   =   17.000    mass and valenz                      
   RCORE  =    2.000    outmost cutoff radius                                   
   RWIGS  =    2.000; RWIGS  =    1.058    wigner-seitz radius (au A)           
   ENMAX  =  368.648; ENMIN  =  276.486 eV                                      
   RCLOC  =    1.304    cutoff for local pot                                    
   LCOR   =        T    correct aug charges                                     
   LPAW   =        T    paw PP                                                  
   EAUG   =  758.233                                                            
   DEXC   =    0.000                                                            
   RMAX   =    2.046    core radius for proj-oper                               
   RAUG   =    1.300    factor for augmentation sphere                          
   RDEP   =    2.025    radius for radial grids                                 
   RDEPT  =    1.558    core radius for aug-charge                              
                                                                                
   Atomic configuration                                                         
    8 entries                                                                   
     n  l   j            E        occ.                                          
     1  0  0.50     -8850.2467   2.0000                                         
     2  0  0.50     -1062.3498   2.0000                                         
     2  1  1.50      -916.8226   6.0000                                         
     3  0  0.50      -114.6929   2.0000                                         
     3  1  1.50       -72.1325   6.0000                                         
     3  2  2.50        -5.0394  10.0000                                         
     4  0  0.50        -4.6097   1.0000                                         
     4  3  2.50        -1.3606   0.0000                                         
   Description                                                                  
     l       E           TYP  RCUT    TYP  RCUT                                 
     1    -72.1324777     23  1.700                                             
     1     -1.3605826     23  1.700                                             
     2     -5.0393776     23  2.000                                             
     2     -6.3999602     23  2.000                                             
     0     -4.6097062     23  1.800                                             
     0     14.1620818     23  1.800                                             
  local pseudopotential read in
  partial core-charges read in
  partial kinetic energy density read in
  atomic valenz-charges read in
  non local Contribution for L=           1  read in
    real space projection operators read in
  non local Contribution for L=           1  read in
    real space projection operators read in
  non local Contribution for L=           2  read in
    real space projection operators read in
  non local Contribution for L=           2  read in
    real space projection operators read in
  non local Contribution for L=           0  read in
    real space projection operators read in
  non local Contribution for L=           0  read in
    real space projection operators read in
    PAW grid and wavefunctions read in
 
   number of l-projection  operators is LMAX  =           6
   number of lm-projection operators is LMMAX =          18
 
 POTCAR:    PAW_PBE Ge 05Jan2001                  
   VRHFIN =Ge: s2p2                                                             
   LEXCH  = PE                                                                  
   EATOM  =   104.9960 eV,    7.7170 Ry                                         
                                                                                
   TITEL  = PAW_PBE Ge 05Jan2001                                                
   LULTRA =        F    use ultrasoft PP ?                                      
   IUNSCR =        1    unscreen: 0-lin 1-nonlin 2-no                           
   RPACOR =    2.170    partial core radius                                     
   POMASS =   72.610; ZVAL   =    4.000    mass and valenz                      
   RCORE  =    2.300    outmost cutoff radius                                   
   RWIGS  =    2.300; RWIGS  =    1.217    wigner-seitz radius (au A)           
   ENMAX  =  173.807; ENMIN  =  130.355 eV                                      
   ICORE  =        3    local potential                                         
   LCOR   =        T    correct aug charges                                     
   LPAW   =        T    paw PP                                                  
   EAUG   =  385.843                                                            
   DEXC   =    0.000                                                            
   RMAX   =    2.342    core radius for proj-oper                               
   RAUG   =    1.300    factor for augmentation sphere                          
   RDEP   =    2.318    radius for radial grids                                 
   RDEPT  =    2.103    core radius for aug-charge                              
                                                                                
   Atomic configuration                                                         
   10 entries                                                                   
     n  l   j            E        occ.                                          
     1  0  0.50    -10959.8463   2.0000                                         
     2  0  0.50     -1371.6056   2.0000                                         
     2  1  1.50     -1198.4791   6.0000                                         
     3  0  0.50      -168.4733   2.0000                                         
     3  1  1.50      -115.6019   6.0000                                         
     3  2  2.50       -29.3106  10.0000                                         
     4  0  0.50       -11.7309   2.0000                                         
     4  1  0.50        -3.8952   2.0000                                         
     4  2  1.50        -4.0817   0.0000                                         
     4  3  2.50        -4.0817   0.0000                                         
   Description                                                                  
     l       E           TYP  RCUT    TYP  RCUT                                 
     0    -11.7309493     23  2.300                                             
     0     -7.4578696     23  2.300                                             
     1     -3.8952261     23  2.300                                             
     1      6.1178114     23  2.300                                             
     2     -4.0817478     23  2.300                                             
     3     -1.3605826      7  2.300                                             
  local pseudopotential read in
  partial core-charges read in
  partial kinetic energy density read in
  atomic valenz-charges read in
  non local Contribution for L=           0  read in
    real space projection operators read in
  non local Contribution for L=           0  read in
    real space projection operators read in
  non local Contribution for L=           1  read in
    real space projection operators read in
  non local Contribution for L=           1  read in
    real space projection operators read in
  non local Contribution for L=           2  read in
    real space projection operators read in
    PAW grid and wavefunctions read in
 
   number of l-projection  operators is LMAX  =           5
   number of lm-projection operators is LMMAX =          13
 
 POTCAR:    PAW_PBE S 17Jan2003                   
   VRHFIN =S : s2p4                                                             
   LEXCH  = PE                                                                  
   EATOM  =   276.8230 eV,   20.3459 Ry                                         
                                                                                
   TITEL  = PAW_PBE S 17Jan2003                                                 
   LULTRA =        F    use ultrasoft PP ?                                      
   IUNSCR =        1    unscreen: 0-lin 1-nonlin 2-no                           
   RPACOR =    1.500    partial core radius                                     
   POMASS =   32.066; ZVAL   =    6.000    mass and valenz                      
   RCORE  =    1.900    outmost cutoff radius                                   
   RWIGS  =    2.200; RWIGS  =    1.164    wigner-seitz radius (au A)           
   ENMAX  =  280.000; ENMIN  =  194.016 eV                                      
   ICORE  =        2    local potential                                         
   LCOR   =        T    correct aug charges                                     
   LPAW   =        T    paw PP                                                  
   EAUG   =  335.092                                                            
   DEXC   =     .000                                                            
   RMAX   =    2.867    core radius for proj-oper                               
   RAUG   =    1.300    factor for augmentation sphere                          
   RDEP   =    1.954    radius for radial grids                                 
   QCUT   =   -4.360; QGAM   =    8.721    optimization parameters              
                                                                                
   Description                                                                  
     l     E      TYP  RCUT    TYP  RCUT                                        
     0   .000     23  1.900                                                     
     0   .000     23  1.900                                                     
     1   .000     23  1.900                                                     
     1   .000     23  1.900                                                     
     2   .000     23  1.900                                                     
  local pseudopotential read in
  partial core-charges read in
  atomic valenz-charges read in
  non local Contribution for L=           0  read in
    real space projection operators read in
  non local Contribution for L=           0  read in
    real space projection operators read in
  non local Contribution for L=           1  read in
    real space projection operators read in
  non local Contribution for L=           1  read in
    real space projection operators read in
    PAW grid and wavefunctions read in
 
   number of l-projection  operators is LMAX  =           4
   number of lm-projection operators is LMMAX =           8
 
  PAW_PBE Cu_pv 06Sep2000               :
 energy of atom  1       EATOM=-4120.1201
 kinetic energy error for atom=    0.0996 (will be added to EATOM!!)
  PAW_PBE Ge 05Jan2001                  :
 energy of atom  2       EATOM= -104.9960
 kinetic energy error for atom=    0.0003 (will be added to EATOM!!)
  PAW_PBE S 17Jan2003                   :
 energy of atom  3       EATOM= -276.8230
 kinetic energy error for atom=    0.0046 (will be added to EATOM!!)
 
 
 POSCAR: Cu Ge S                                 
  positions in direct lattice
  No initial velocities read in
 exchange correlation table for  LEXCH =        8
   RHO(1)=    0.500       N(1)  =     2000
   RHO(2)=  100.500       N(2)  =     4000
 


--------------------------------------------------------------------------------------------------------


 ion  position               nearest neighbor table
   1  0.618  0.121  0.120-   9 2.29  11 2.29  12 2.30   8 2.34
   2  0.121  0.618  0.620-  12 2.29   7 2.29   9 2.30  10 2.35
   3  0.963  0.790  0.119-  11 2.30  12 2.30   7 2.31   8 2.36
   4  0.790  0.963  0.619-   7 2.30   9 2.30  11 2.31  10 2.36
   5  0.440  0.267  0.599-   7 2.19   9 2.19  10 2.31   8 2.34
   6  0.267  0.440  0.099-  11 2.19  12 2.19   8 2.30  10 2.33
   7  0.079  0.912  0.497-   5 2.19   2 2.29   4 2.30   3 2.31
   8  0.571  0.412  0.982-   6 2.30   5 2.34   1 2.34   3 2.36
   9  0.737  0.250  0.495-   5 2.19   1 2.29   4 2.30   2 2.30
  10  0.412  0.571  0.480-   5 2.31   6 2.33   2 2.35   4 2.36
  11  0.912  0.079  0.997-   6 2.19   1 2.29   3 2.30   4 2.31
  12  0.250  0.737  0.995-   6 2.19   2 2.29   3 2.30   1 2.30
 
  Warning from LATTYP: Got some problem with cell dimensions!
  Tried to take original basis but could not verify dimensions!
  LATTYP: Found a base centered monoclinic cell.
 ALAT       =     6.4499010947
 B/A-ratio  =     1.7500516418
 C/A-ratio  =     1.9305142024
 COS(beta)  =    -0.4326083233
  
  Lattice vectors:
  
 A1 = (   3.2247960000,   5.6438300000,   0.0315720000)
 A2 = (   3.2247960000,  -5.6438300000,   0.0315720000)
 A3 = ( -10.7972380000,   0.0000000000,  -6.2018250000)


Analysis of symmetry for initial positions (statically):
=====================================================================
 Subroutine PRICEL returns:
 Original cell was already a primitive cell.
 

 Routine SETGRP: Setting up the symmetry group for a 
 base centered monoclinic supercell.


 Subroutine GETGRP returns: Found  1 space group operations
 (whereof  1 operations were pure point group operations)
 out of a pool of  4 trial point group operations.


The static configuration has the point symmetry C_1 .


Analysis of symmetry for dynamics (positions and initial velocities):
=====================================================================
 Subroutine PRICEL returns:
 Original cell was already a primitive cell.
 

 Routine SETGRP: Setting up the symmetry group for a 
 base centered monoclinic supercell.


 Subroutine GETGRP returns: Found  1 space group operations
 (whereof  1 operations were pure point group operations)
 out of a pool of  4 trial point group operations.


The dynamic configuration has the point symmetry C_1 .


 irot  :   1
 --------------------------------------------------------------------
 isymop:   1   0   0
           0   1   0
           0   0   1

 gtrans:     0.0000000     0.0000000     0.0000000

 ptrans:     0.0000000     0.0000000     0.0000000
 rotmap:
 (   1->   1)  (   2->   2)  (   3->   3)  (   4->   4)  (   5->   5) 
 (   6->   6)  (   7->   7)  (   8->   8)  (   9->   9)  (  10->  10) 
 (  11->  11)  (  12->  12) 
 
 
 KPOINTS: pymatgen 4.7.6+ generated KPOINTS with g

Automatic generation of k-mesh.
Space group operators:
 irot       det(A)        alpha          n_x          n_y          n_z        tau_x        tau_y        tau_z
    1     1.000000     0.000000     1.000000     0.000000     0.000000     0.000000     0.000000     0.000000
 
 Subroutine IBZKPT returns following result:
 ===========================================
 
 Found     42 irreducible k-points:
 
 Following reciprocal coordinates:
            Coordinates               Weight
  0.000000  0.000000  0.000000      1.000000
  0.250000  0.000000  0.000000      2.000000
  0.500000  0.000000  0.000000      1.000000
  0.000000  0.250000  0.000000      2.000000
  0.250000  0.250000  0.000000      2.000000
  0.500000  0.250000 -0.000000      2.000000
 -0.250000  0.250000  0.000000      2.000000
  0.000000  0.500000  0.000000      1.000000
  0.250000  0.500000 -0.000000      2.000000
  0.500000  0.500000  0.000000      1.000000
 -0.000000 -0.000000  0.200000      2.000000
  0.250000  0.000000  0.200000      2.000000
  0.500000  0.000000  0.200000      2.000000
 -0.250000 -0.000000  0.200000      2.000000
  0.000000  0.250000  0.200000      2.000000
  0.250000  0.250000  0.200000      2.000000
  0.500000  0.250000  0.200000      2.000000
 -0.250000  0.250000  0.200000      2.000000
  0.000000  0.500000  0.200000      2.000000
  0.250000  0.500000  0.200000      2.000000
  0.500000  0.500000  0.200000      2.000000
 -0.250000  0.500000  0.200000      2.000000
 -0.000000 -0.250000  0.200000      2.000000
  0.250000 -0.250000  0.200000      2.000000
  0.500000 -0.250000  0.200000      2.000000
 -0.250000 -0.250000  0.200000      2.000000
 -0.000000 -0.000000  0.400000      2.000000
  0.250000  0.000000  0.400000      2.000000
  0.500000  0.000000  0.400000      2.000000
 -0.250000  0.000000  0.400000      2.000000
  0.000000  0.250000  0.400000      2.000000
  0.250000  0.250000  0.400000      2.000000
  0.500000  0.250000  0.400000      2.000000
 -0.250000  0.250000  0.400000      2.000000
  0.000000  0.500000  0.400000      2.000000
  0.250000  0.500000  0.400000      2.000000
  0.500000  0.500000  0.400000      2.000000
 -0.250000  0.500000  0.400000      2.000000
  0.000000 -0.250000  0.400000      2.000000
  0.250000 -0.250000  0.400000      2.000000
  0.500000 -0.250000  0.400000      2.000000
 -0.250000 -0.250000  0.400000      2.000000
 
 Following cartesian coordinates:
            Coordinates               Weight
  0.000000  0.000000  0.000000      1.000000
  0.038631 -0.022148  0.013365      2.000000
  0.077263 -0.044296  0.026730      1.000000
  0.038631  0.022148  0.013365      2.000000
  0.077263  0.000000  0.026730      2.000000
  0.115894 -0.022148  0.040096      2.000000
  0.000000  0.044296  0.000000      2.000000
  0.077263  0.044296  0.026730      1.000000
  0.115894  0.022148  0.040096      2.000000
  0.154525  0.000000  0.053461      1.000000
 -0.000321  0.000000  0.032808      2.000000
  0.038310 -0.022148  0.046173      2.000000
  0.076941 -0.044296  0.059538      2.000000
 -0.038952  0.022148  0.019443      2.000000
  0.038310  0.022148  0.046173      2.000000
  0.076941  0.000000  0.059538      2.000000
  0.115573 -0.022148  0.072903      2.000000
 -0.000321  0.044296  0.032808      2.000000
  0.076941  0.044296  0.059538      2.000000
  0.115573  0.022148  0.072903      2.000000
  0.154204  0.000000  0.086269      2.000000
  0.038310  0.066444  0.046173      2.000000
 -0.038952 -0.022148  0.019443      2.000000
 -0.000321 -0.044296  0.032808      2.000000
  0.038310 -0.066444  0.046173      2.000000
 -0.077584  0.000000  0.006077      2.000000
 -0.000642  0.000000  0.065616      2.000000
  0.037989 -0.022148  0.078981      2.000000
  0.076620 -0.044296  0.092346      2.000000
 -0.039274  0.022148  0.052250      2.000000
  0.037989  0.022148  0.078981      2.000000
  0.076620  0.000000  0.092346      2.000000
  0.115251 -0.022148  0.105711      2.000000
 -0.000642  0.044296  0.065616      2.000000
  0.076620  0.044296  0.092346      2.000000
  0.115251  0.022148  0.105711      2.000000
  0.153883  0.000000  0.119076      2.000000
  0.037989  0.066444  0.078981      2.000000
 -0.039274 -0.022148  0.052250      2.000000
 -0.000642 -0.044296  0.065616      2.000000
  0.037989 -0.066444  0.078981      2.000000
 -0.077905  0.000000  0.038885      2.000000
 
 
 Subroutine IBZKPT_HF returns following result:
 ==============================================
 
 Found     80 k-points in 1st BZ
 the following     80 k-points will be used (e.g. in the exchange kernel)
 Following reciprocal coordinates:   # in IRBZ
  0.000000  0.000000  0.000000       1 t-inv F
  0.250000  0.000000  0.000000       2 t-inv F
  0.500000  0.000000  0.000000       3 t-inv F
  0.000000  0.250000  0.000000       4 t-inv F
  0.250000  0.250000  0.000000       5 t-inv F
  0.500000  0.250000 -0.000000       6 t-inv F
 -0.250000  0.250000  0.000000       7 t-inv F
  0.000000  0.500000  0.000000       8 t-inv F
  0.250000  0.500000 -0.000000       9 t-inv F
  0.500000  0.500000  0.000000      10 t-inv F
 -0.000000 -0.000000  0.200000      11 t-inv F
  0.250000  0.000000  0.200000      12 t-inv F
  0.500000  0.000000  0.200000      13 t-inv F
 -0.250000 -0.000000  0.200000      14 t-inv F
  0.000000  0.250000  0.200000      15 t-inv F
  0.250000  0.250000  0.200000      16 t-inv F
  0.500000  0.250000  0.200000      17 t-inv F
 -0.250000  0.250000  0.200000      18 t-inv F
  0.000000  0.500000  0.200000      19 t-inv F
  0.250000  0.500000  0.200000      20 t-inv F
  0.500000  0.500000  0.200000      21 t-inv F
 -0.250000  0.500000  0.200000      22 t-inv F
 -0.000000 -0.250000  0.200000      23 t-inv F
  0.250000 -0.250000  0.200000      24 t-inv F
  0.500000 -0.250000  0.200000      25 t-inv F
 -0.250000 -0.250000  0.200000      26 t-inv F
 -0.000000 -0.000000  0.400000      27 t-inv F
  0.250000  0.000000  0.400000      28 t-inv F
  0.500000  0.000000  0.400000      29 t-inv F
 -0.250000  0.000000  0.400000      30 t-inv F
  0.000000  0.250000  0.400000      31 t-inv F
  0.250000  0.250000  0.400000      32 t-inv F
  0.500000  0.250000  0.400000      33 t-inv F
 -0.250000  0.250000  0.400000      34 t-inv F
  0.000000  0.500000  0.400000      35 t-inv F
  0.250000  0.500000  0.400000      36 t-inv F
  0.500000  0.500000  0.400000      37 t-inv F
 -0.250000  0.500000  0.400000      38 t-inv F
  0.000000 -0.250000  0.400000      39 t-inv F
  0.250000 -0.250000  0.400000      40 t-inv F
  0.500000 -0.250000  0.400000      41 t-inv F
 -0.250000 -0.250000  0.400000      42 t-inv F
 -0.250000 -0.000000 -0.000000       2 t-inv T
 -0.000000 -0.250000 -0.000000       4 t-inv T
 -0.250000 -0.250000  0.000000       5 t-inv T
 -0.500000 -0.250000  0.000000       6 t-inv T
  0.250000 -0.250000  0.000000       7 t-inv T
 -0.250000 -0.500000  0.000000       9 t-inv T
  0.000000  0.000000 -0.200000      11 t-inv T
 -0.250000 -0.000000 -0.200000      12 t-inv T
 -0.500000 -0.000000 -0.200000      13 t-inv T
  0.250000  0.000000 -0.200000      14 t-inv T
 -0.000000 -0.250000 -0.200000      15 t-inv T
 -0.250000 -0.250000 -0.200000      16 t-inv T
 -0.500000 -0.250000 -0.200000      17 t-inv T
  0.250000 -0.250000 -0.200000      18 t-inv T
 -0.000000 -0.500000 -0.200000      19 t-inv T
 -0.250000 -0.500000 -0.200000      20 t-inv T
 -0.500000 -0.500000 -0.200000      21 t-inv T
  0.250000 -0.500000 -0.200000      22 t-inv T
  0.000000  0.250000 -0.200000      23 t-inv T
 -0.250000  0.250000 -0.200000      24 t-inv T
 -0.500000  0.250000 -0.200000      25 t-inv T
  0.250000  0.250000 -0.200000      26 t-inv T
  0.000000  0.000000 -0.400000      27 t-inv T
 -0.250000 -0.000000 -0.400000      28 t-inv T
 -0.500000 -0.000000 -0.400000      29 t-inv T
  0.250000 -0.000000 -0.400000      30 t-inv T
 -0.000000 -0.250000 -0.400000      31 t-inv T
 -0.250000 -0.250000 -0.400000      32 t-inv T
 -0.500000 -0.250000 -0.400000      33 t-inv T
  0.250000 -0.250000 -0.400000      34 t-inv T
 -0.000000 -0.500000 -0.400000      35 t-inv T
 -0.250000 -0.500000 -0.400000      36 t-inv T
 -0.500000 -0.500000 -0.400000      37 t-inv T
  0.250000 -0.500000 -0.400000      38 t-inv T
 -0.000000  0.250000 -0.400000      39 t-inv T
 -0.250000  0.250000 -0.400000      40 t-inv T
 -0.500000  0.250000 -0.400000      41 t-inv T
  0.250000  0.250000 -0.400000      42 t-inv T


--------------------------------------------------------------------------------------------------------




 Dimension of arrays:
   k-points           NKPTS =     42   k-points in BZ     NKDIM =     80   number of bands    NBANDS=     80
   number of dos      NEDOS =    301   number of ions     NIONS =     12
   non local maximal  LDIM  =      6   non local SUM 2l+1 LMDIM =     18
   total plane-waves  NPLWV =  32768
   max r-space proj   IRMAX =      1   max aug-charges    IRDMAX=   8224
   dimension x,y,z NGX =    32 NGY =   32 NGZ =   32
   dimension x,y,z NGXF=    64 NGYF=   64 NGZF=   64
   support grid    NGXF=    64 NGYF=   64 NGZF=   64
   ions per type =               4   2   6
 NGX,Y,Z   is equivalent  to a cutoff of   8.18,  8.18,  8.27 a.u.
 NGXF,Y,Z  is equivalent  to a cutoff of  16.37, 16.37, 16.55 a.u.


 I would recommend the setting:
   dimension x,y,z NGX =    32 NGY =   32 NGZ =   31
 SYSTEM =  CGS                                     
 POSCAR =  Cu Ge S                                 

 Startparameter for this run:
   NWRITE =      2    write-flag & timer
   PREC   = normal    normal or accurate (medium, high low for compatibility)
   ISTART =      1    job   : 0-new  1-cont  2-samecut
   ICHARG =      0    charge: 1-file 2-atom 10-const
   ISPIN  =      1    spin polarized calculation?
   LNONCOLLINEAR =      F non collinear calculations
   LSORBIT =      F    spin-orbit coupling
   INIWAV =      1    electr: 0-lowe 1-rand  2-diag
   LASPH  =      F    aspherical Exc in radial PAW
   METAGGA=      F    non-selfconsistent MetaGGA calc.

 Electronic Relaxation 1
   ENCUT  =  400.0 eV  29.40 Ry    5.42 a.u.  10.60 10.60 10.48*2*pi/ulx,y,z
   ENINI  =  400.0     initial cutoff
   ENAUG  =  758.2 eV  augmentation charge cutoff
   NELM   =     60;   NELMIN=  2; NELMDL=  0     # of ELM steps 
   EDIFF  = 0.1E-04   stopping-criterion for ELM
   LREAL  =      F    real-space projection
   NLSPLINE    = F    spline interpolate recip. space projectors
   LCOMPAT=      F    compatible to vasp.4.4
   GGA_COMPAT  = T    GGA compatible to vasp.4.4-vasp.4.6
   LMAXPAW     = -100 max onsite density
   LMAXMIX     =    2 max onsite mixed and CHGCAR
   VOSKOWN=      0    Vosko Wilk Nusair interpolation
   ROPT   =    0.00000   0.00000   0.00000
 Ionic relaxation
   EDIFFG = 0.1E-03   stopping-criterion for IOM
   NSW    =      0    number of steps for IOM
   NBLOCK =      1;   KBLOCK =      1    inner block; outer block 
   IBRION =     -1    ionic relax: 0-MD 1-quasi-New 2-CG
   NFREE  =      0    steps in history (QN), initial steepest desc. (CG)
   ISIF   =      0    stress and relaxation
   IWAVPR =     10    prediction:  0-non 1-charg 2-wave 3-comb
   ISYM   =      3    0-nonsym 1-usesym 2-fastsym
   LCORR  =      T    Harris-Foulkes like correction to forces

   POTIM  = 0.5000    time-step for ionic-motion
   TEIN   =    0.0    initial temperature
   TEBEG  =    0.0;   TEEND  =   0.0 temperature during run
   SMASS  =  -3.00    Nose mass-parameter (am)
   estimated Nose-frequenzy (Omega)   =  0.10E-29 period in steps =****** mass=  -0.966E-27a.u.
   SCALEE = 1.0000    scale energy and forces
   NPACO  =    256;   APACO  = 16.0  distance and # of slots for P.C.
   PSTRESS=    0.0 pullay stress

  Mass of Ions in am
   POMASS =  63.55 72.61 32.07
  Ionic Valenz
   ZVAL   =  17.00  4.00  6.00
  Atomic Wigner-Seitz radii
   RWIGS  =  -1.00 -1.00 -1.00
  virtual crystal weights 
   VCA    =   1.00  1.00  1.00
   NELECT =     112.0000    total number of electrons
   NUPDOWN=      -1.0000    fix difference up-down

 DOS related values:
   EMIN   =  10.00;   EMAX   =-10.00  energy-range for DOS
   EFERMI =   0.00
   ISMEAR =     1;   SIGMA  =   0.10  broadening in eV -4-tet -1-fermi 0-gaus

 Electronic relaxation 2 (details)
   IALGO  =     53    algorithm
   LDIAG  =      T    sub-space diagonalisation (order eigenvalues)
   LSUBROT=      T    optimize rotation matrix (better conditioning)
   TURBO    =      0    0=normal 1=particle mesh
   IRESTART =      0    0=no restart 2=restart with 2 vectors
   NREBOOT  =      0    no. of reboots
   NMIN     =      0    reboot dimension
   EREF     =   0.00    reference energy to select bands
   IMIX   =      4    mixing-type and parameters
     AMIX     =   0.40;   BMIX     =  1.00
     AMIX_MAG =   1.60;   BMIX_MAG =  1.00
     AMIN     =   0.10
     WC   =   100.;   INIMIX=   1;  MIXPRE=   1;  MAXMIX= -45

 Intra band minimization:
   WEIMIN = 0.0000     energy-eigenvalue tresh-hold
   EBREAK =  0.31E-07  absolut break condition
   DEPER  =   0.30     relativ break condition  

   TIME   =   0.40     timestep for ELM

  volume/ion in A,a.u.               =      18.49       124.79
  Fermi-wavevector in a.u.,A,eV,Ry     =   1.303450  2.463163 23.116052  1.698982
  Thomas-Fermi vector in A             =   2.434451
 
 Write flags
   LWAVE  =      T    write WAVECAR
   LCHARG =      T    write CHGCAR
   LVTOT  =      F    write LOCPOT, total local potential
   LVHAR  =      F    write LOCPOT, Hartree potential only
   LELF   =      F    write electronic localiz. function (ELF)
   LORBIT =      0    0 simple, 1 ext, 2 COOP (PROOUT)


 Dipole corrections
   LMONO  =      F    monopole corrections only (constant potential shift)
   LDIPOL =      F    correct potential (dipole corrections)
   IDIPOL =      0    1-x, 2-y, 3-z, 4-all directions 
   EPSILON=  1.0000000 bulk dielectric constant

 Exchange correlation treatment:
   GGA     =    PE    GGA type
   LEXCH   =     8    internal setting for exchange type
   VOSKOWN=      0    Vosko Wilk Nusair interpolation
   EXXOEP  =     0    0=HF, 1=EXX-LHF (local Hartree Fock) 2=EXX OEP
   LHFCALC =     T    Hartree Fock is set to
   LSYMGRAD=     F    symmetrize gradient (conserves proper symmetry)
   PRECFOCK=fast      Normal, Fast or Accurate (Low or Medium for compatibility)
   LRHFCALC=     F    long range Hartree Fock
   LRSCOR  =     F    long range correlation only (use DFT for short range part)
   LTHOMAS =     F    Thomas Fermi screening in HF
   LMODELHF=     F    short range full HF, long range fraction AEXX
   ENCUT4O =  -1.0   cutoff for four orbital integrals eV
   LMAXFOCK=     4    L truncation for augmentation on plane wave grid
   LMAXFOCKAE=  -1    L truncation for all-electron charge restoration on plane wave grid
   NMAXFOCKAE=   1    number of basis functions for all-electron charge restoration
   LFOCKAEDFT=     F  apply the AE augmentation even for DFT
   NKREDX  =     1    reduce k-point grid by
   NKREDY  =     1    reduce k-point grid by
   NKREDZ  =     1    reduce k-point grid by
   SHIFTRED=     F    shift reduced grid of Gamma
   HFKIDENT=     F    idential grid for each k-point
   ODDONLY =     F    use only odd q-grid points
   EVENONLY=     F    use only even q-grid points
   HFALPHA =   -1.0000 decay constant for conv. correction
   MCALPHA =    0.0000 extent of test-charge in conv. correction in multipole expansion
   AEXX    =    0.2500 exact exchange contribution
   HFSCREEN=    0.2000 screening length (either q_TF or 0.3 A-1)
   HFSCREENC=   0.2000 screening length for correlation (either q_TF or 0.3 A-1)
   HFRCUT  =    0.0000 spherical cutoff for potential kernel
   ALDAX   =    0.7500 LDA exchange part
   AGGAX   =    0.7500 GGA exchange part
   ALDAC   =    1.0000 LDA correlation
   AGGAC   =    1.0000 GGA correlation
   NBANDSGWLOW=     1    first orbital included in HF term
 Linear response parameters
   LEPSILON=     F    determine dielectric tensor
   LRPA    =     F    only Hartree local field effects (RPA)
   LNABLA  =     F    use nabla operator in PAW spheres
   LVEL    =     F    velocity operator in full k-point grid
   LINTERFAST=   F  fast interpolation
   KINTER  =     0    interpolate to denser k-point grid
   CSHIFT  =0.1000    complex shift for real part using Kramers Kronig
   OMEGAMAX=  -1.0    maximum frequency
   DEG_THRESHOLD= 0.2000000E-02 threshold for treating states as degnerate
   RTIME   =    0.100 relaxation time in fs

 Orbital magnetization related:
   ORBITALMAG=     F  switch on orbital magnetization
   LCHIMAG   =     F  perturbation theory with respect to B field
   DQ        =  0.001000  dq finite difference perturbation B field



--------------------------------------------------------------------------------------------------------


 Static calculation
 charge density and potential will be updated during run
 non-spin polarized calculation
 Conjugate gradient for all bands, subspace preconditioning
 perform sub-space diagonalisation
    before iterative eigenvector-optimisation
 modified Broyden-mixing scheme, WC =      100.0
 initial mixing is a Kerker type mixing with AMIX =  0.4000 and BMIX =      1.0000
 Hartree-type preconditioning will be used
 using additional bands           24
 reciprocal scheme for non local part
 use partial core corrections
 no Harris-corrections to forces 
 use gradient corrections 
 use of overlap-Matrix (Vanderbilt PP)
 Methfessel and Paxton  Order N= 1 SIGMA  =   0.10


--------------------------------------------------------------------------------------------------------


  energy-cutoff  :      400.00
  volume of cell :      221.90
      direct lattice vectors                 reciprocal lattice vectors
     3.224796000 -5.643830000  0.031572000     0.154525165 -0.088592321  0.053460880
     3.224796000  5.643830000  0.031572000     0.154525165  0.088592321  0.053460880
    -2.101946000  0.000000000  6.075537000    -0.001606004  0.000000000  0.164038877

  length of vectors
     6.500240234  6.500240234  6.428866683     0.185969598  0.185969598  0.164046738


 
 old parameters found on file WAVECAR:
  energy-cutoff  :      400.00
  volume of cell :      222.35
      direct lattice vectors                 reciprocal lattice vectors
     3.227235519 -5.642745207  0.030241751     0.154430495 -0.088609353  0.053450002
     3.227235519  5.642745207  0.030241751     0.154430495  0.088609353  0.053450002
    -2.106135241  0.000000000  6.085154262    -0.001534965  0.000000000  0.163803104

  length of vectors

 
 k-points in units of 2pi/SCALE and weight: pymatgen 4.7.6+ generated KPOINTS with g
   0.00000000  0.00000000  0.00000000       0.013
   0.03863129 -0.02214808  0.01336522       0.025
   0.07726258 -0.04429616  0.02673044       0.013
   0.03863129  0.02214808  0.01336522       0.025
   0.07726258  0.00000000  0.02673044       0.025
   0.11589387 -0.02214808  0.04009566       0.025
   0.00000000  0.04429616  0.00000000       0.025
   0.07726258  0.04429616  0.02673044       0.013
   0.11589387  0.02214808  0.04009566       0.025
   0.15452516  0.00000000  0.05346088       0.013
  -0.00032120  0.00000000  0.03280778       0.025
   0.03831009 -0.02214808  0.04617300       0.025
   0.07694138 -0.04429616  0.05953822       0.025
  -0.03895249  0.02214808  0.01944256       0.025
   0.03831009  0.02214808  0.04617300       0.025
   0.07694138  0.00000000  0.05953822       0.025
   0.11557267 -0.02214808  0.07290344       0.025
  -0.00032120  0.04429616  0.03280778       0.025
   0.07694138  0.04429616  0.05953822       0.025
   0.11557267  0.02214808  0.07290344       0.025
   0.15420396  0.00000000  0.08626865       0.025
   0.03831009  0.06644424  0.04617300       0.025
  -0.03895249 -0.02214808  0.01944256       0.025
  -0.00032120 -0.04429616  0.03280778       0.025
   0.03831009 -0.06644424  0.04617300       0.025
  -0.07758378  0.00000000  0.00607734       0.025
  -0.00064240  0.00000000  0.06561555       0.025
   0.03798889 -0.02214808  0.07898077       0.025
   0.07662018 -0.04429616  0.09234599       0.025
  -0.03927369  0.02214808  0.05225033       0.025
   0.03798889  0.02214808  0.07898077       0.025
   0.07662018  0.00000000  0.09234599       0.025
   0.11525147 -0.02214808  0.10571121       0.025
  -0.00064240  0.04429616  0.06561555       0.025
   0.07662018  0.04429616  0.09234599       0.025
   0.11525147  0.02214808  0.10571121       0.025
   0.15388276  0.00000000  0.11907643       0.025
   0.03798889  0.06644424  0.07898077       0.025
  -0.03927369 -0.02214808  0.05225033       0.025
  -0.00064240 -0.04429616  0.06561555       0.025
   0.03798889 -0.06644424  0.07898077       0.025
  -0.07790498  0.00000000  0.03888511       0.025
 
 k-points in reciprocal lattice and weights: pymatgen 4.7.6+ generated KPOINTS with g
   0.00000000  0.00000000  0.00000000       0.013
   0.25000000  0.00000000  0.00000000       0.025
   0.50000000  0.00000000  0.00000000       0.013
   0.00000000  0.25000000  0.00000000       0.025
   0.25000000  0.25000000  0.00000000       0.025
   0.50000000  0.25000000 -0.00000000       0.025
  -0.25000000  0.25000000  0.00000000       0.025
   0.00000000  0.50000000  0.00000000       0.013
   0.25000000  0.50000000 -0.00000000       0.025
   0.50000000  0.50000000  0.00000000       0.013
  -0.00000000 -0.00000000  0.20000000       0.025
   0.25000000  0.00000000  0.20000000       0.025
   0.50000000  0.00000000  0.20000000       0.025
  -0.25000000 -0.00000000  0.20000000       0.025
   0.00000000  0.25000000  0.20000000       0.025
   0.25000000  0.25000000  0.20000000       0.025
   0.50000000  0.25000000  0.20000000       0.025
  -0.25000000  0.25000000  0.20000000       0.025
   0.00000000  0.50000000  0.20000000       0.025
   0.25000000  0.50000000  0.20000000       0.025
   0.50000000  0.50000000  0.20000000       0.025
  -0.25000000  0.50000000  0.20000000       0.025
  -0.00000000 -0.25000000  0.20000000       0.025
   0.25000000 -0.25000000  0.20000000       0.025
   0.50000000 -0.25000000  0.20000000       0.025
  -0.25000000 -0.25000000  0.20000000       0.025
  -0.00000000 -0.00000000  0.40000000       0.025
   0.25000000  0.00000000  0.40000000       0.025
   0.50000000  0.00000000  0.40000000       0.025
  -0.25000000  0.00000000  0.40000000       0.025
   0.00000000  0.25000000  0.40000000       0.025
   0.25000000  0.25000000  0.40000000       0.025
   0.50000000  0.25000000  0.40000000       0.025
  -0.25000000  0.25000000  0.40000000       0.025
   0.00000000  0.50000000  0.40000000       0.025
   0.25000000  0.50000000  0.40000000       0.025
   0.50000000  0.50000000  0.40000000       0.025
  -0.25000000  0.50000000  0.40000000       0.025
   0.00000000 -0.25000000  0.40000000       0.025
   0.25000000 -0.25000000  0.40000000       0.025
   0.50000000 -0.25000000  0.40000000       0.025
  -0.25000000 -0.25000000  0.40000000       0.025
 
 position of ions in fractional coordinates (direct lattice) 
   0.61844300  0.12117100  0.11953300
   0.12117100  0.61844300  0.61953300
   0.96295700  0.79032200  0.11881300
   0.79032200  0.96295700  0.61881300
   0.43973200  0.26728100  0.59904700
   0.26728100  0.43973200  0.09904700
   0.07949800  0.91167500  0.49736300
   0.57140300  0.41236400  0.98173948
   0.73711100  0.25006200  0.49504900
   0.41236400  0.57140300  0.48018400
   0.91167500  0.07949800  0.99736300
   0.25006200  0.73711100  0.99504900
 
 position of ions in cartesian coordinates  (Angst):
   2.13385236 -2.80651863  0.74957826
   1.08287936  2.80651863  3.78734676
   5.40422860 -0.97432259  0.77720730
   4.35325560  0.97432259  3.81497580
   1.02080825 -0.97328413  3.66185403
   2.07178125  0.97328413  0.62408553
   2.15090056  4.69666552  3.05304062
   1.10888450 -0.89758908  5.99565405
   2.14286528 -2.74882176  3.03885554
   2.16312705  0.89758908  2.94843515
   1.09992756 -4.69666552  6.09080912
   1.09189228  2.74882176  6.07662404
 


--------------------------------------------------------------------------------------------------------


 k-point  1 :   0.0000 0.0000 0.0000  plane waves:    4051
 k-point  2 :   0.2500 0.0000 0.0000  plane waves:    4032
 k-point  3 :   0.5000 0.0000 0.0000  plane waves:    4030
 k-point  4 :   0.0000 0.2500 0.0000  plane waves:    4032
 k-point  5 :   0.2500 0.2500 0.0000  plane waves:    4038
 k-point  6 :   0.5000 0.2500-0.0000  plane waves:    4037
 k-point  7 :  -0.2500 0.2500 0.0000  plane waves:    4042
 k-point  8 :   0.0000 0.5000 0.0000  plane waves:    4030
 k-point  9 :   0.2500 0.5000-0.0000  plane waves:    4037
 k-point 10 :   0.5000 0.5000 0.0000  plane waves:    4026
 k-point 11 :  -0.0000-0.0000 0.2000  plane waves:    4046
 k-point 12 :   0.2500 0.0000 0.2000  plane waves:    4034
 k-point 13 :   0.5000 0.0000 0.2000  plane waves:    4025
 k-point 14 :  -0.2500-0.0000 0.2000  plane waves:    4044
 k-point 15 :   0.0000 0.2500 0.2000  plane waves:    4034
 k-point 16 :   0.2500 0.2500 0.2000  plane waves:    4017
 k-point 17 :   0.5000 0.2500 0.2000  plane waves:    4039
 k-point 18 :  -0.2500 0.2500 0.2000  plane waves:    4042
 k-point 19 :   0.0000 0.5000 0.2000  plane waves:    4025
 k-point 20 :   0.2500 0.5000 0.2000  plane waves:    4039
 k-point 21 :   0.5000 0.5000 0.2000  plane waves:    4030
 k-point 22 :  -0.2500 0.5000 0.2000  plane waves:    4030
 k-point 23 :  -0.0000-0.2500 0.2000  plane waves:    4044
 k-point 24 :   0.2500-0.2500 0.2000  plane waves:    4042
 k-point 25 :   0.5000-0.2500 0.2000  plane waves:    4030
 k-point 26 :  -0.2500-0.2500 0.2000  plane waves:    4020
 k-point 27 :  -0.0000-0.0000 0.4000  plane waves:    4027
 k-point 28 :   0.2500 0.0000 0.4000  plane waves:    4034
 k-point 29 :   0.5000 0.0000 0.4000  plane waves:    4013
 k-point 30 :  -0.2500 0.0000 0.4000  plane waves:    4042
 k-point 31 :   0.0000 0.2500 0.4000  plane waves:    4034
 k-point 32 :   0.2500 0.2500 0.4000  plane waves:    4009
 k-point 33 :   0.5000 0.2500 0.4000  plane waves:    4026
 k-point 34 :  -0.2500 0.2500 0.4000  plane waves:    4027
 k-point 35 :   0.0000 0.5000 0.4000  plane waves:    4013
 k-point 36 :   0.2500 0.5000 0.4000  plane waves:    4026
 k-point 37 :   0.5000 0.5000 0.4000  plane waves:    4037
 k-point 38 :  -0.2500 0.5000 0.4000  plane waves:    4022
 k-point 39 :   0.0000-0.2500 0.4000  plane waves:    4042
 k-point 40 :   0.2500-0.2500 0.4000  plane waves:    4027
 k-point 41 :   0.5000-0.2500 0.4000  plane waves:    4022
 k-point 42 :  -0.2500-0.2500 0.4000  plane waves:    4015

 maximum and minimum number of plane-waves per node :      4051     4009

 maximum number of plane-waves:      4051
 maximum index in each direction: 
   IXMAX=   10   IYMAX=   10   IZMAX=   10
   IXMIN=  -11   IYMIN=  -11   IZMIN=  -10

 WARNING: aliasing errors must be expected set NGX to  44 to avoid them
 WARNING: aliasing errors must be expected set NGY to  44 to avoid them
 WARNING: aliasing errors must be expected set NGZ to  42 to avoid them
 aliasing errors are usually negligible using standard VASP settings
 and one can safely disregard these warnings

 serial   3D FFT for wavefunctions
 parallel 3D FFT for charge:
    minimum data exchange during FFTs selected (reduces bandwidth)


 FFT grid for exact exchange (Hartree Fock) 
  NGX = 24; NGY = 24; NGZ = 24

 
 Radii for the augmentation spheres in the non-local exchange
 for species   1 augmentation radius   1.120 (default was   0.830)
       energy cutoff for augmentation   1600.0
 for species   2 augmentation radius   1.570 (default was   1.163)
       energy cutoff for augmentation   1600.0
 for species   3 augmentation radius   1.034 (default was   0.970)
       energy cutoff for augmentation   1600.0

 total amount of memory used by VASP on root node   151696. kBytes
========================================================================

   base      :      30000. kBytes
   nonl-proj :      74517. kBytes
   fftplans  :        702. kBytes
   grid      :       2400. kBytes
   one-center:        186. kBytes
   HF        :        194. kBytes
   nonlr-proj:       1121. kBytes
   wavefun   :      42576. kBytes
 
 Broyden mixing: mesh for mixing (old mesh)
   NGX = 21   NGY = 21   NGZ = 21
  (NGX  = 64   NGY  = 64   NGZ  = 64)
  gives a total of   9261 points

 charge density for first step will be calculated from the start-wavefunctions


--------------------------------------------------------------------------------------------------------


 Maximum index for augmentation-charges          485 (set IRDMAX)


--------------------------------------------------------------------------------------------------------


 initial charge from wavefunction
 First call to EWALD:  gamma=   0.293
 Maximum number of real-space cells 3x 3x 3
 Maximum number of reciprocal cells 3x 3x 3

 FEWALD executed in parallel
    FEWALD:  cpu time    0.00: real time    0.00


----------------------------------------- Iteration    1(   1)  ---------------------------------------


    POTLOK:  cpu time    0.05: real time    0.05
    SETDIJ:  cpu time    1.99: real time    2.00
 
    SUBROT:  cpu time    1.53: real time    1.54
    SUBROT:  cpu time    0.82: real time    0.82
    SUBROT:  cpu time    0.80: real time    0.80
    --------------------------------------------
    SUBRT+:  cpu time    3.15: real time    3.18

 Broyden mixing:
  rms(total) = 0.27764E-01    rms(broyden)= 0.27747E-01
  rms(prec ) = 0.43630E-01
  weight for this iteration     100.00

 eigenvalues of (default mixing * dielectric matrix)
  average eigenvalue GAMMA=   1.7701
  1.0987  2.4416
 
    TRIAL :  cpu time  246.34: real time  247.36
    CORREC:  cpu time    0.00: real time    0.00
    CHARGE:  cpu time    0.06: real time    0.06
    --------------------------------------------
      LOOP:  cpu time  248.45: real time  249.48

 eigenvalue-minimisations  :     0
 total energy-change (2. order) : 0.7553615E+02  (-0.2132103E+03)
 number of electron     112.0001478 magnetization 
 augmentation part       38.9113837 magnetization 

 Free energy of the ion-electron system (eV)
  ---------------------------------------------------
  alpha Z        PSCENC =       339.31929130
  Ewald energy   TEWEN  =     -9063.97964668
  -1/2 Hartree   DENC   =     -8067.44322468
  -exchange  EXHF       =       327.44937901
  -V(xc)+E(xc)   XCENC  =       369.90401180
  PAW double counting   =     16899.44085485   -17392.25473821
  entropy T*S    EENTRO =        -0.00148631
  eigenvalues    EBANDS =     -1657.88346533
  atomic energy  EATOM  =     18320.98302006
  ---------------------------------------------------
  free energy    TOTEN  =        75.53614540 eV

  energy without entropy =       75.53763171  energy(sigma->0) =       75.53664084


--------------------------------------------------------------------------------------------------------




----------------------------------------- Iteration    1(   2)  ---------------------------------------


    POTLOK:  cpu time    0.05: real time    0.05
    SETDIJ:  cpu time    2.02: real time    2.02
 
    SUBROT:  cpu time    1.86: real time    1.86
    SUBROT:  cpu time    0.97: real time    0.97
    SUBROT:  cpu time    0.98: real time    0.98
    SUBROT:  cpu time    0.98: real time    0.97
    --------------------------------------------
    SUBRT+:  cpu time    4.79: real time    4.80

 Broyden mixing:
  rms(total) = 0.27793E-01    rms(broyden)= 0.27783E-01
  rms(prec ) = 0.50806E-01
  weight for this iteration     100.00

 eigenvalues of (default mixing * dielectric matrix)
  average eigenvalue GAMMA=   1.5569
  2.5472  1.2646  0.8588
 
    TRIAL :  cpu time  261.47: real time  261.27
    CORREC:  cpu time    0.00: real time    0.00
    CHARGE:  cpu time    0.08: real time    0.08
    --------------------------------------------
      LOOP:  cpu time  263.63: real time  263.44

 eigenvalue-minimisations  :     0
 total energy-change (2. order) :-0.8391253E+02  (-0.1468938E+03)
 number of electron     112.0001383 magnetization 
 augmentation part       35.4519339 magnetization 

 Free energy of the ion-electron system (eV)
  ---------------------------------------------------
  alpha Z        PSCENC =       339.31929130
  Ewald energy   TEWEN  =     -9063.97964668
  -1/2 Hartree   DENC   =     -8371.03250092
  -exchange  EXHF       =       338.95729879
  -V(xc)+E(xc)   XCENC  =       377.32178253
  PAW double counting   =     17401.65756744   -17940.79273533
  entropy T*S    EENTRO =        -0.00033824
  eigenvalues    EBANDS =     -1410.80897977
  atomic energy  EATOM  =     18320.98302006
  ---------------------------------------------------
  free energy    TOTEN  =        -8.37638888 eV

  energy without entropy =       -8.37605064  energy(sigma->0) =       -8.37627613


--------------------------------------------------------------------------------------------------------




----------------------------------------- Iteration    1(   3)  ---------------------------------------


    POTLOK:  cpu time    0.06: real time    0.06
    SETDIJ:  cpu time    1.99: real time    1.99
 
    SUBROT:  cpu time    1.56: real time    1.56
    SUBROT:  cpu time    0.34: real time    0.34
    SUBROT:  cpu time    0.34: real time    0.34
    SUBROT:  cpu time    0.34: real time    0.34
    --------------------------------------------
    SUBRT+:  cpu time    2.58: real time    2.59

 Broyden mixing:
  rms(total) = 0.28134E-01    rms(broyden)= 0.28123E-01
  rms(prec ) = 0.52403E-01
  weight for this iteration     100.00

 eigenvalues of (default mixing * dielectric matrix)
  average eigenvalue GAMMA=   1.7747
  1.0115  2.4990  1.8135
 
    TRIAL :  cpu time  256.18: real time  255.99
    CORREC:  cpu time    0.00: real time    0.00
    CHARGE:  cpu time    0.06: real time    0.06
    --------------------------------------------
      LOOP:  cpu time  258.29: real time  258.10

 eigenvalue-minimisations  :     0
 total energy-change (2. order) :-0.6760244E+01  (-0.2036825E+03)
 number of electron     112.0001508 magnetization 
 augmentation part       39.6860833 magnetization 

 Free energy of the ion-electron system (eV)
  ---------------------------------------------------
  alpha Z        PSCENC =       339.31929130
  Ewald energy   TEWEN  =     -9063.97964668
  -1/2 Hartree   DENC   =     -7477.93634403
  -exchange  EXHF       =       324.97614919
  -V(xc)+E(xc)   XCENC  =       357.38366222
  PAW double counting   =     15149.90887700   -15579.35958130
  entropy T*S    EENTRO =         0.00038527
  eigenvalues    EBANDS =     -2386.43172195
  atomic energy  EATOM  =     18320.98302006
  ---------------------------------------------------
  free energy    TOTEN  =       -15.13663245 eV

  energy without entropy =      -15.13701771  energy(sigma->0) =      -15.13676087


--------------------------------------------------------------------------------------------------------




----------------------------------------- Iteration    1(   4)  ---------------------------------------


    POTLOK:  cpu time    0.05: real time    0.05
    SETDIJ:  cpu time    2.01: real time    2.01
 
    SUBROT:  cpu time    1.73: real time    1.73
    SUBROT:  cpu time    0.85: real time    0.85
    SUBROT:  cpu time    0.85: real time    0.85
    SUBROT:  cpu time    0.85: real time    0.85
    SUBROT:  cpu time    0.81: real time    0.81
    --------------------------------------------
    SUBRT+:  cpu time    5.10: real time    5.12

 Broyden mixing:
  rms(total) = 0.11631E+00    rms(broyden)= 0.11612E+00
  rms(prec ) = 0.20500E+00
  weight for this iteration     100.00

 eigenvalues of (default mixing * dielectric matrix)
  average eigenvalue GAMMA=   1.2343
  2.5745  1.3223  0.6553  0.3851
 
    TRIAL :  cpu time  261.07: real time  260.89
    CORREC:  cpu time    0.00: real time    0.00
    CHARGE:  cpu time    0.08: real time    0.08
    --------------------------------------------
      LOOP:  cpu time  263.22: real time  263.03

 eigenvalue-minimisations  :     0
 total energy-change (2. order) :-0.7470039E+01  (-0.1074787E+03)
 number of electron     112.0001428 magnetization 
 augmentation part       37.2415960 magnetization 

 Free energy of the ion-electron system (eV)
  ---------------------------------------------------
  alpha Z        PSCENC =       339.31929130
  Ewald energy   TEWEN  =     -9063.97964668
  -1/2 Hartree   DENC   =     -8544.35787670
  -exchange  EXHF       =       342.99706931
  -V(xc)+E(xc)   XCENC  =       381.66314844
  PAW double counting   =     17635.32139639   -18216.14196610
  entropy T*S    EENTRO =         0.00037398
  eigenvalues    EBANDS =     -1218.41149282
  atomic energy  EATOM  =     18320.98302006
  ---------------------------------------------------
  free energy    TOTEN  =       -22.60667153 eV

  energy without entropy =      -22.60704552  energy(sigma->0) =      -22.60679619


--------------------------------------------------------------------------------------------------------




----------------------------------------- Iteration    1(   5)  ---------------------------------------


    POTLOK:  cpu time    0.05: real time    0.05
    SETDIJ:  cpu time    2.01: real time    2.01
 
    SUBROT:  cpu time    0.73: real time    0.74
    SUBROT:  cpu time    0.35: real time    0.35
    SUBROT:  cpu time    0.36: real time    0.36
    SUBROT:  cpu time    0.35: real time    0.35
    --------------------------------------------
    SUBRT+:  cpu time    1.78: real time    1.81

 Broyden mixing:
  rms(total) = 0.44656E-01    rms(broyden)= 0.44646E-01
  rms(prec ) = 0.91093E-01
  weight for this iteration     100.00

 eigenvalues of (default mixing * dielectric matrix)
  average eigenvalue GAMMA=   1.6846
  2.4607  0.9355  1.6576
 
    TRIAL :  cpu time  256.11: real time  255.92
    CORREC:  cpu time    0.00: real time    0.00
    CHARGE:  cpu time    0.05: real time    0.05
    --------------------------------------------
      LOOP:  cpu time  258.23: real time  258.05

 eigenvalue-minimisations  :     0
 total energy-change (2. order) :-0.3820244E+02  (-0.1508561E+02)
 number of electron     112.0001428 magnetization 
 augmentation part       37.2456678 magnetization 

 Free energy of the ion-electron system (eV)
  ---------------------------------------------------
  alpha Z        PSCENC =       339.31929130
  Ewald energy   TEWEN  =     -9063.97964668
  -1/2 Hartree   DENC   =     -8008.42350531
  -exchange  EXHF       =       336.37138474
  -V(xc)+E(xc)   XCENC  =       368.38663404
  PAW double counting   =     15869.99146417   -16339.41072941
  entropy T*S    EENTRO =         0.00061098
  eigenvalues    EBANDS =     -1884.04740035
  atomic energy  EATOM  =     18320.98302006
  ---------------------------------------------------
  free energy    TOTEN  =       -60.80911345 eV

  energy without entropy =      -60.80972444  energy(sigma->0) =      -60.80931712


--------------------------------------------------------------------------------------------------------




----------------------------------------- Iteration    1(   6)  ---------------------------------------


    POTLOK:  cpu time    0.05: real time    0.05
    SETDIJ:  cpu time    2.01: real time    2.01
 
    SUBROT:  cpu time    1.60: real time    1.60
    SUBROT:  cpu time    0.73: real time    0.72
    SUBROT:  cpu time    0.93: real time    0.93
    SUBROT:  cpu time    0.82: real time    0.82
    --------------------------------------------
    SUBRT+:  cpu time    4.07: real time    4.07

 Broyden mixing:
  rms(total) = 0.27520E-02    rms(broyden)= 0.27513E-02
  rms(prec ) = 0.45636E-02
  weight for this iteration     100.00

 eigenvalues of (default mixing * dielectric matrix)
  average eigenvalue GAMMA=   1.8160
  1.0118  1.9100  2.5261
 
    TRIAL :  cpu time  262.59: real time  262.38
    CORREC:  cpu time    0.00: real time    0.00
    CHARGE:  cpu time    0.05: real time    0.05
    --------------------------------------------
      LOOP:  cpu time  264.71: real time  264.51

 eigenvalue-minimisations  :     0
 total energy-change (2. order) :-0.5123113E+01  (-0.8173933E+01)
 number of electron     112.0001458 magnetization 
 augmentation part       38.2273310 magnetization 

 Free energy of the ion-electron system (eV)
  ---------------------------------------------------
  alpha Z        PSCENC =       339.31929130
  Ewald energy   TEWEN  =     -9063.97964668
  -1/2 Hartree   DENC   =     -8002.01424021
  -exchange  EXHF       =       337.14140312
  -V(xc)+E(xc)   XCENC  =       368.78290226
  PAW double counting   =     15771.90067664   -16240.97306305
  entropy T*S    EENTRO =         0.00069655
  eigenvalues    EBANDS =     -1897.09318068
  atomic energy  EATOM  =     18320.98302006
  ---------------------------------------------------
  free energy    TOTEN  =       -65.93222626 eV

  energy without entropy =      -65.93292281  energy(sigma->0) =      -65.93245844


--------------------------------------------------------------------------------------------------------




----------------------------------------- Iteration    1(   7)  ---------------------------------------


    POTLOK:  cpu time    0.05: real time    0.05
    SETDIJ:  cpu time    1.97: real time    1.98
 
    SUBROT:  cpu time    0.99: real time    0.99
    SUBROT:  cpu time    0.34: real time    0.34
    SUBROT:  cpu time    0.35: real time    0.35
    SUBROT:  cpu time    0.35: real time    0.35
    --------------------------------------------
    SUBRT+:  cpu time    2.03: real time    2.07

 Broyden mixing:
  rms(total) = 0.13273E-01    rms(broyden)= 0.13269E-01
  rms(prec ) = 0.23498E-01
  weight for this iteration     100.00

 eigenvalues of (default mixing * dielectric matrix)
  average eigenvalue GAMMA=   1.6022
  2.5017  0.8893  1.4155
 
    TRIAL :  cpu time  258.72: real time  258.74
    CORREC:  cpu time    0.00: real time    0.00
    CHARGE:  cpu time    0.06: real time    0.06
    --------------------------------------------
      LOOP:  cpu time  260.80: real time  260.83

 eigenvalue-minimisations  :     0
 total energy-change (2. order) :-0.1539983E+01  (-0.4137990E+01)
 number of electron     112.0001441 magnetization 
 augmentation part       37.7046659 magnetization 

 Free energy of the ion-electron system (eV)
  ---------------------------------------------------
  alpha Z        PSCENC =       339.31929130
  Ewald energy   TEWEN  =     -9063.97964668
  -1/2 Hartree   DENC   =     -8244.05785683
  -exchange  EXHF       =       341.61517138
  -V(xc)+E(xc)   XCENC  =       374.55754491
  PAW double counting   =     16207.63393127   -16711.01386016
  entropy T*S    EENTRO =         0.00045436
  eigenvalues    EBANDS =     -1632.53050149
  atomic energy  EATOM  =     18320.98302006
  ---------------------------------------------------
  free energy    TOTEN  =       -67.47220968 eV

  energy without entropy =      -67.47266404  energy(sigma->0) =      -67.47236113


--------------------------------------------------------------------------------------------------------




----------------------------------------- Iteration    1(   8)  ---------------------------------------


    POTLOK:  cpu time    0.05: real time    0.05
    SETDIJ:  cpu time    2.00: real time    2.00
 
    SUBROT:  cpu time    0.71: real time    0.71
    SUBROT:  cpu time    0.36: real time    0.36
    SUBROT:  cpu time    0.39: real time    0.39
    SUBROT:  cpu time    0.38: real time    0.38
    --------------------------------------------
    SUBRT+:  cpu time    1.83: real time    1.84

 Broyden mixing:
  rms(total) = 0.84294E-02    rms(broyden)= 0.84270E-02
  rms(prec ) = 0.14103E-01
  weight for this iteration     100.00

 eigenvalues of (default mixing * dielectric matrix)
  average eigenvalue GAMMA=   1.6716
  2.4571  0.9466  1.6112
 
    TRIAL :  cpu time  255.70: real time  255.51
    CORREC:  cpu time    0.00: real time    0.00
    CHARGE:  cpu time    0.07: real time    0.07
    --------------------------------------------
      LOOP:  cpu time  257.82: real time  257.64

 eigenvalue-minimisations  :     0
 total energy-change (2. order) :-0.1612056E+01  (-0.7718725E+00)
 number of electron     112.0001442 magnetization 
 augmentation part       37.7241338 magnetization 

 Free energy of the ion-electron system (eV)
  ---------------------------------------------------
  alpha Z        PSCENC =       339.31929130
  Ewald energy   TEWEN  =     -9063.97964668
  -1/2 Hartree   DENC   =     -8117.26486574
  -exchange  EXHF       =       339.51431801
  -V(xc)+E(xc)   XCENC  =       371.37725275
  PAW double counting   =     15916.01972608   -16397.37346555
  entropy T*S    EENTRO =         0.00074552
  eigenvalues    EBANDS =     -1777.68035063
  atomic energy  EATOM  =     18320.98302006
  ---------------------------------------------------
  free energy    TOTEN  =       -69.08426605 eV

  energy without entropy =      -69.08501157  energy(sigma->0) =      -69.08451456


--------------------------------------------------------------------------------------------------------




----------------------------------------- Iteration    1(   9)  ---------------------------------------


    POTLOK:  cpu time    0.06: real time    0.06
    SETDIJ:  cpu time    2.00: real time    2.00
 
    SUBROT:  cpu time    1.61: real time    1.61
    SUBROT:  cpu time    0.79: real time    0.79
    SUBROT:  cpu time    0.81: real time    0.81
    SUBROT:  cpu time    0.37: real time    0.37
    --------------------------------------------
    SUBRT+:  cpu time    3.58: real time    3.60

 Broyden mixing:
  rms(total) = 0.51608E-03    rms(broyden)= 0.51547E-03
  rms(prec ) = 0.81907E-03
  weight for this iteration     100.00

 eigenvalues of (default mixing * dielectric matrix)
  average eigenvalue GAMMA=   1.6926
  2.5238  1.0006  1.5533
 
    TRIAL :  cpu time  259.43: real time  259.50
    CORREC:  cpu time    0.00: real time    0.00
    CHARGE:  cpu time    0.06: real time    0.06
    --------------------------------------------
      LOOP:  cpu time  261.54: real time  261.62

 eigenvalue-minimisations  :     0
 total energy-change (2. order) :-0.3106555E+00  (-0.3862633E+00)
 number of electron     112.0001447 magnetization 
 augmentation part       37.9051900 magnetization 

 Free energy of the ion-electron system (eV)
  ---------------------------------------------------
  alpha Z        PSCENC =       339.31929130
  Ewald energy   TEWEN  =     -9063.97964668
  -1/2 Hartree   DENC   =     -8125.02836761
  -exchange  EXHF       =       339.59052079
  -V(xc)+E(xc)   XCENC  =       371.44338986
  PAW double counting   =     15912.51818008   -16393.78863944
  entropy T*S    EENTRO =         0.00088344
  eigenvalues    EBANDS =     -1770.45341545
  atomic energy  EATOM  =     18320.98302006
  ---------------------------------------------------
  free energy    TOTEN  =       -69.39492157 eV

  energy without entropy =      -69.39580501  energy(sigma->0) =      -69.39521605


--------------------------------------------------------------------------------------------------------




----------------------------------------- Iteration    1(  10)  ---------------------------------------


    POTLOK:  cpu time    0.05: real time    0.05
    SETDIJ:  cpu time    2.01: real time    2.01
 
    SUBROT:  cpu time    1.55: real time    1.55
    SUBROT:  cpu time    0.77: real time    0.77
    SUBROT:  cpu time    0.78: real time    0.78
    SUBROT:  cpu time    0.81: real time    0.81
    --------------------------------------------
    SUBRT+:  cpu time    3.91: real time    3.93

 Broyden mixing:
  rms(total) = 0.23020E-02    rms(broyden)= 0.23015E-02
  rms(prec ) = 0.38673E-02
  weight for this iteration     100.00

 eigenvalues of (default mixing * dielectric matrix)
  average eigenvalue GAMMA=   1.6826
  2.4756  0.9880  1.5843
 
    TRIAL :  cpu time  254.42: real time  254.41
    CORREC:  cpu time    0.00: real time    0.00
    CHARGE:  cpu time    0.07: real time    0.07
    --------------------------------------------
      LOOP:  cpu time  256.55: real time  256.55

 eigenvalue-minimisations  :     0
 total energy-change (2. order) :-0.1037456E+00  (-0.1524771E+00)
 number of electron     112.0001445 magnetization 
 augmentation part       37.8179374 magnetization 

 Free energy of the ion-electron system (eV)
  ---------------------------------------------------
  alpha Z        PSCENC =       339.31929130
  Ewald energy   TEWEN  =     -9063.97964668
  -1/2 Hartree   DENC   =     -8172.35344297
  -exchange  EXHF       =       340.39322839
  -V(xc)+E(xc)   XCENC  =       372.53932026
  PAW double counting   =     15994.19178557   -16482.18702488
  entropy T*S    EENTRO =         0.00074162
  eigenvalues    EBANDS =     -1718.40608166
  atomic energy  EATOM  =     18320.98302006
  ---------------------------------------------------
  free energy    TOTEN  =       -69.49866717 eV

  energy without entropy =      -69.49940879  energy(sigma->0) =      -69.49891438


--------------------------------------------------------------------------------------------------------




----------------------------------------- Iteration    1(  11)  ---------------------------------------


    POTLOK:  cpu time    0.05: real time    0.05
    SETDIJ:  cpu time    2.00: real time    2.00
 
    SUBROT:  cpu time    0.76: real time    0.76
    SUBROT:  cpu time    0.36: real time    0.36
    SUBROT:  cpu time    0.36: real time    0.36
    SUBROT:  cpu time    0.37: real time    0.37
    --------------------------------------------
    SUBRT+:  cpu time    1.86: real time    1.86

 Broyden mixing:
  rms(total) = 0.78320E-03    rms(broyden)= 0.78295E-03
  rms(prec ) = 0.15660E-02
  weight for this iteration     100.00

 eigenvalues of (default mixing * dielectric matrix)
  average eigenvalue GAMMA=   1.6675
  2.4949  0.9837  1.5239
 
    TRIAL :  cpu time  254.25: real time  254.03
    CORREC:  cpu time    0.00: real time    0.00
    CHARGE:  cpu time    0.09: real time    0.09
    --------------------------------------------
      LOOP:  cpu time  256.39: real time  256.21

 eigenvalue-minimisations  :     0
 total energy-change (2. order) :-0.6967383E-01  (-0.3688984E-01)
 number of electron     112.0001444 magnetization 
 augmentation part       37.7852492 magnetization 

 Free energy of the ion-electron system (eV)
  ---------------------------------------------------
  alpha Z        PSCENC =       339.31929130
  Ewald energy   TEWEN  =     -9063.97964668
  -1/2 Hartree   DENC   =     -8150.95573594
  -exchange  EXHF       =       340.06446732
  -V(xc)+E(xc)   XCENC  =       372.06546738
  PAW double counting   =     15942.08134453   -16427.03299729
  entropy T*S    EENTRO =         0.00062217
  eigenvalues    EBANDS =     -1742.11429330
  atomic energy  EATOM  =     18320.98302006
  ---------------------------------------------------
  free energy    TOTEN  =       -69.56834100 eV

  energy without entropy =      -69.56896317  energy(sigma->0) =      -69.56854839


--------------------------------------------------------------------------------------------------------




----------------------------------------- Iteration    1(  12)  ---------------------------------------


    POTLOK:  cpu time    0.06: real time    0.06
    SETDIJ:  cpu time    2.00: real time    2.00
 
    SUBROT:  cpu time    1.55: real time    1.55
    SUBROT:  cpu time    0.78: real time    0.78
    SUBROT:  cpu time    0.80: real time    0.80
    SUBROT:  cpu time    0.90: real time    0.90
    --------------------------------------------
    SUBRT+:  cpu time    4.03: real time    4.04

 Broyden mixing:
  rms(total) = 0.20796E-03    rms(broyden)= 0.20787E-03
  rms(prec ) = 0.45392E-03
  weight for this iteration     100.00

 eigenvalues of (default mixing * dielectric matrix)
  average eigenvalue GAMMA=   1.6428
  2.5065  0.9986  1.4232
 
    TRIAL :  cpu time  256.11: real time  256.01
    CORREC:  cpu time    0.00: real time    0.00
    CHARGE:  cpu time    0.08: real time    0.09
    --------------------------------------------
      LOOP:  cpu time  258.26: real time  258.16

 eigenvalue-minimisations  :     0
 total energy-change (2. order) :-0.1235718E-01  (-0.2285695E-01)
 number of electron     112.0001445 magnetization 
 augmentation part       37.8255635 magnetization 

 Free energy of the ion-electron system (eV)
  ---------------------------------------------------
  alpha Z        PSCENC =       339.31929130
  Ewald energy   TEWEN  =     -9063.97964668
  -1/2 Hartree   DENC   =     -8142.60857519
  -exchange  EXHF       =       339.94896709
  -V(xc)+E(xc)   XCENC  =       371.89122896
  PAW double counting   =     15920.27217481   -16404.14215180
  entropy T*S    EENTRO =         0.00056841
  eigenvalues    EBANDS =     -1751.26562891
  atomic energy  EATOM  =     18320.98302006
  ---------------------------------------------------
  free energy    TOTEN  =       -69.58069818 eV

  energy without entropy =      -69.58126659  energy(sigma->0) =      -69.58088765


--------------------------------------------------------------------------------------------------------




----------------------------------------- Iteration    1(  13)  ---------------------------------------


    POTLOK:  cpu time    0.05: real time    0.05
    SETDIJ:  cpu time    1.98: real time    1.98
 
    SUBROT:  cpu time    0.79: real time    0.79
    SUBROT:  cpu time    0.38: real time    0.39
    SUBROT:  cpu time    0.38: real time    0.38
    SUBROT:  cpu time    0.39: real time    0.39
    --------------------------------------------
    SUBRT+:  cpu time    1.94: real time    1.95

 Broyden mixing:
  rms(total) = 0.55620E-03    rms(broyden)= 0.55608E-03
  rms(prec ) = 0.94463E-03
  weight for this iteration     100.00

 eigenvalues of (default mixing * dielectric matrix)
  average eigenvalue GAMMA=   1.6926
  2.4804  0.9956  1.6019
 
    TRIAL :  cpu time  261.28: real time  261.20
    CORREC:  cpu time    0.00: real time    0.00
    CHARGE:  cpu time    0.09: real time    0.09
    --------------------------------------------
      LOOP:  cpu time  263.40: real time  263.34

 eigenvalue-minimisations  :     0
 total energy-change (2. order) :-0.9661986E-02  (-0.5124279E-02)
 number of electron     112.0001445 magnetization 
 augmentation part       37.8294348 magnetization 

 Free energy of the ion-electron system (eV)
  ---------------------------------------------------
  alpha Z        PSCENC =       339.31929130
  Ewald energy   TEWEN  =     -9063.97964668
  -1/2 Hartree   DENC   =     -8152.50445491
  -exchange  EXHF       =       340.12144047
  -V(xc)+E(xc)   XCENC  =       372.12521421
  PAW double counting   =     15936.44901169   -16421.81163561
  entropy T*S    EENTRO =         0.00055670
  eigenvalues    EBANDS =     -1740.29316910
  atomic energy  EATOM  =     18320.98302006
  ---------------------------------------------------
  free energy    TOTEN  =       -69.59036017 eV

  energy without entropy =      -69.59091686  energy(sigma->0) =      -69.59054573


--------------------------------------------------------------------------------------------------------




----------------------------------------- Iteration    1(  14)  ---------------------------------------


    POTLOK:  cpu time    0.05: real time    0.05
    SETDIJ:  cpu time    2.06: real time    2.06
 
    SUBROT:  cpu time    0.80: real time    0.80
    SUBROT:  cpu time    0.40: real time    0.40
    SUBROT:  cpu time    0.37: real time    0.37
    SUBROT:  cpu time    0.38: real time    0.38
    --------------------------------------------
    SUBRT+:  cpu time    1.95: real time    1.96

 Broyden mixing:
  rms(total) = 0.68323E-04    rms(broyden)= 0.68309E-04
  rms(prec ) = 0.14014E-03
  weight for this iteration     100.00

 eigenvalues of (default mixing * dielectric matrix)
  average eigenvalue GAMMA=   1.6690
  2.5157  0.9901  1.5012
 
    TRIAL :  cpu time  268.93: real time  268.71
    CORREC:  cpu time    0.00: real time    0.00
    CHARGE:  cpu time    0.09: real time    0.09
    --------------------------------------------
      LOOP:  cpu time  271.13: real time  270.94

 eigenvalue-minimisations  :     0
 total energy-change (2. order) :-0.2459351E-02  (-0.3781864E-02)
 number of electron     112.0001445 magnetization 
 augmentation part       37.8118937 magnetization 

 Free energy of the ion-electron system (eV)
  ---------------------------------------------------
  alpha Z        PSCENC =       339.31929130
  Ewald energy   TEWEN  =     -9063.97964668
  -1/2 Hartree   DENC   =     -8153.03141976
  -exchange  EXHF       =       340.11946376
  -V(xc)+E(xc)   XCENC  =       372.13447618
  PAW double counting   =     15934.37161792   -16419.89633243
  entropy T*S    EENTRO =         0.00057568
  eigenvalues    EBANDS =     -1739.61384657
  atomic energy  EATOM  =     18320.98302006
  ---------------------------------------------------
  free energy    TOTEN  =       -69.59281952 eV

  energy without entropy =      -69.59339519  energy(sigma->0) =      -69.59301141


--------------------------------------------------------------------------------------------------------




----------------------------------------- Iteration    1(  15)  ---------------------------------------


    POTLOK:  cpu time    0.05: real time    0.05
    SETDIJ:  cpu time    2.05: real time    2.05
 
    SUBROT:  cpu time    1.75: real time    1.75
    SUBROT:  cpu time    0.70: real time    0.69
    SUBROT:  cpu time    0.39: real time    0.39
    SUBROT:  cpu time    0.38: real time    0.38
    --------------------------------------------
    SUBRT+:  cpu time    3.22: real time    3.22

 Broyden mixing:
  rms(total) = 0.19395E-03    rms(broyden)= 0.19389E-03
  rms(prec ) = 0.33097E-03
  weight for this iteration     100.00

 eigenvalues of (default mixing * dielectric matrix)
  average eigenvalue GAMMA=   1.6842
  2.4722  0.9886  1.5917
 
    TRIAL :  cpu time  273.05: real time  272.82
    CORREC:  cpu time    0.00: real time    0.00
    CHARGE:  cpu time    0.08: real time    0.08
    --------------------------------------------
      LOOP:  cpu time  275.24: real time  275.01

 eigenvalue-minimisations  :     0
 total energy-change (2. order) :-0.1507020E-02  (-0.1038688E-02)
 number of electron     112.0001445 magnetization 
 augmentation part       37.8162226 magnetization 

 Free energy of the ion-electron system (eV)
  ---------------------------------------------------
  alpha Z        PSCENC =       339.31929130
  Ewald energy   TEWEN  =     -9063.97964668
  -1/2 Hartree   DENC   =     -8148.32231812
  -exchange  EXHF       =       340.03039178
  -V(xc)+E(xc)   XCENC  =       372.02328415
  PAW double counting   =     15922.31810618   -16407.23201526
  entropy T*S    EENTRO =         0.00058909
  eigenvalues    EBANDS =     -1744.73501562
  atomic energy  EATOM  =     18320.98302006
  ---------------------------------------------------
  free energy    TOTEN  =       -69.59432654 eV

  energy without entropy =      -69.59491562  energy(sigma->0) =      -69.59452290


--------------------------------------------------------------------------------------------------------




----------------------------------------- Iteration    1(  16)  ---------------------------------------


    POTLOK:  cpu time    0.05: real time    0.05
    SETDIJ:  cpu time    2.05: real time    2.05
 
    SUBROT:  cpu time    1.79: real time    1.79
    SUBROT:  cpu time    0.86: real time    0.86
    SUBROT:  cpu time    0.86: real time    0.86
    SUBROT:  cpu time    0.89: real time    0.89
    --------------------------------------------
    SUBRT+:  cpu time    4.40: real time    4.41

 Broyden mixing:
  rms(total) = 0.84505E-04    rms(broyden)= 0.84487E-04
  rms(prec ) = 0.14091E-03
  weight for this iteration     100.00

 eigenvalues of (default mixing * dielectric matrix)
  average eigenvalue GAMMA=   1.6850
  2.4864  0.9889  1.5797
 
    TRIAL :  cpu time  274.13: real time  273.92
    CORREC:  cpu time    0.00: real time    0.00
    CHARGE:  cpu time    0.10: real time    0.10
    --------------------------------------------
      LOOP:  cpu time  276.34: real time  276.12

 eigenvalue-minimisations  :     0
 total energy-change (2. order) :-0.5718152E-03  (-0.4099258E-03)
 number of electron     112.0001445 magnetization 
 augmentation part       37.8210309 magnetization 

 Free energy of the ion-electron system (eV)
  ---------------------------------------------------
  alpha Z        PSCENC =       339.31929130
  Ewald energy   TEWEN  =     -9063.97964668
  -1/2 Hartree   DENC   =     -8149.44271636
  -exchange  EXHF       =       340.04900391
  -V(xc)+E(xc)   XCENC  =       372.05051182
  PAW double counting   =     15923.17323798   -16408.27585617
  entropy T*S    EENTRO =         0.00058976
  eigenvalues    EBANDS =     -1743.47233329
  atomic energy  EATOM  =     18320.98302006
  ---------------------------------------------------
  free energy    TOTEN  =       -69.59489835 eV

[...]
     22      -2.2873      2.00000
     23      -1.9530      2.00000
     24      -1.6154      2.00000
     25      -1.2171      2.00000
     26      -1.0047      2.00000
     27      -0.9748      2.00000
     28      -0.7148      2.00000
     29      -0.5550      2.00000
     30      -0.3922      2.00000
     31      -0.2868      2.00000
     32      -0.1993      2.00000
     33      -0.1831      2.00000
     34      -0.1401      2.00000
     35      -0.0212      2.00000
     36       0.0182      2.00000
     37       1.2950      2.00000
     38       1.3074      2.00000
     39       1.3673      2.00000
     40       1.4102      2.00000
     41       1.4491      2.00000
     42       1.4644      2.00000
     43       1.5059      2.00000
     44       1.5481      2.00000
     45       1.7612      2.00000
     46       1.8922      2.00000
     47       1.9812      2.00000
     48       2.1530      2.00000
     49       2.3702      2.00000
     50       2.5761      2.00000
     51       2.7059      2.00000
     52       2.9108      2.00000
     53       3.0129      2.00000
     54       3.2195      2.00000
     55       3.3977      2.00000
     56       3.6559      2.00000
     57       6.3762     -0.00000
     58       6.5161     -0.00000
     59       7.7160      0.00000
     60       7.9060      0.00000
     61       8.2974      0.00000
     62       8.5757      0.00000
     63       9.3265      0.00000
     64       9.8474      0.00000
     65      10.0182      0.00000
     66      10.3522      0.00000
     67      10.5838      0.00000
     68      10.7885      0.00000
     69      10.9749      0.00000
     70      11.2505      0.00000
     71      11.3039      0.00000
     72      11.7065      0.00000
     73      12.2506      0.00000
     74      12.4636      0.00000
     75      13.1050      0.00000
     76      13.4920      0.00000
     77      13.8148      0.00000
     78      14.6934      0.00000
     79      14.9998      0.00000
     80      15.7110      0.00000

 k-point  40 :       0.2500   -0.2500    0.4000
  band No.  band energies     occupation 
      1     -68.6507      2.00000
      2     -68.6452      2.00000
      3     -68.6337      2.00000
      4     -68.6337      2.00000
      5     -68.6185      2.00000
      6     -68.6135      2.00000
      7     -68.6015      2.00000
      8     -68.5961      2.00000
      9     -68.5783      2.00000
     10     -68.5778      2.00000
     11     -68.5610      2.00000
     12     -68.5611      2.00000
     13     -12.2171      2.00000
     14     -11.8160      2.00000
     15     -10.8227      2.00000
     16     -10.6703      2.00000
     17     -10.3504      2.00000
     18     -10.2774      2.00000
     19      -5.4441      2.00000
     20      -5.1168      2.00000
     21      -2.4271      2.00000
     22      -2.1527      2.00000
     23      -2.0165      2.00000
     24      -1.5208      2.00000
     25      -1.3578      2.00000
     26      -1.1676      2.00000
     27      -0.9362      2.00000
     28      -0.8139      2.00000
     29      -0.5858      2.00000
     30      -0.5361      2.00000
     31      -0.2804      2.00000
     32      -0.2416      2.00000
     33      -0.1367      2.00000
     34      -0.0929      2.00000
     35      -0.0252      2.00000
     36       0.0322      2.00000
     37       1.3116      2.00000
     38       1.3438      2.00000
     39       1.3618      2.00000
     40       1.3942      2.00000
     41       1.4506      2.00000
     42       1.4814      2.00000
     43       1.4986      2.00000
     44       1.5645      2.00000
     45       1.8002      2.00000
     46       1.8454      2.00000
     47       1.9604      2.00000
     48       2.1094      2.00000
     49       2.2950      2.00000
     50       2.5292      2.00000
     51       2.6408      2.00000
     52       2.7695      2.00000
     53       2.9275      2.00000
     54       3.1601      2.00000
     55       3.3024      2.00000
     56       3.5729      2.00000
     57       6.5544     -0.00000
     58       6.7243     -0.00000
     59       7.9607      0.00000
     60       8.0020      0.00000
     61       8.7281      0.00000
     62       9.0949      0.00000
     63       9.4536      0.00000
     64       9.8236      0.00000
     65      10.3003      0.00000
     66      10.3672      0.00000
     67      10.7834      0.00000
     68      10.8495      0.00000
     69      11.1170      0.00000
     70      11.2703      0.00000
     71      11.3701      0.00000
     72      11.6187      0.00000
     73      12.0484      0.00000
     74      12.2937      0.00000
     75      12.6490      0.00000
     76      13.1217      0.00000
     77      13.2785      0.00000
     78      14.2471      0.00000
     79      15.6312      0.00000
     80      15.8459      0.00000

 k-point  41 :       0.5000   -0.2500    0.4000
  band No.  band energies     occupation 
      1     -68.6506      2.00000
      2     -68.6451      2.00000
      3     -68.6336      2.00000
      4     -68.6334      2.00000
      5     -68.6184      2.00000
      6     -68.6135      2.00000
      7     -68.6013      2.00000
      8     -68.5959      2.00000
      9     -68.5781      2.00000
     10     -68.5780      2.00000
     11     -68.5609      2.00000
     12     -68.5610      2.00000
     13     -12.0762      2.00000
     14     -11.7725      2.00000
     15     -10.8478      2.00000
     16     -10.7593      2.00000
     17     -10.5334      2.00000
     18     -10.3165      2.00000
     19      -5.4162      2.00000
     20      -4.9402      2.00000
     21      -2.3991      2.00000
     22      -2.1280      2.00000
     23      -1.8638      2.00000
     24      -1.7229      2.00000
     25      -1.4437      2.00000
     26      -1.1229      2.00000
     27      -0.8855      2.00000
     28      -0.6456      2.00000
     29      -0.6032      2.00000
     30      -0.4504      2.00000
     31      -0.2642      2.00000
     32      -0.1859      2.00000
     33      -0.1225      2.00000
     34      -0.0550      2.00000
     35      -0.0223      2.00000
     36       0.0202      2.00000
     37       1.2605      2.00000
     38       1.3139      2.00000
     39       1.4080      2.00000
     40       1.4367      2.00000
     41       1.4832      2.00000
     42       1.4905      2.00000
     43       1.5154      2.00000
     44       1.5732      2.00000
     45       1.7602      2.00000
     46       1.8403      2.00000
     47       2.1170      2.00000
     48       2.1876      2.00000
     49       2.3655      2.00000
     50       2.4593      2.00000
     51       2.4916      2.00000
     52       2.6933      2.00000
     53       2.8232      2.00000
     54       3.0861      2.00000
     55       3.2900      2.00000
     56       3.5232      2.00000
     57       6.4851     -0.00000
     58       6.5933     -0.00000
     59       7.4549      0.00000
     60       7.7181      0.00000
     61       8.5818      0.00000
     62       8.7443      0.00000
     63       9.3021      0.00000
     64       9.5281      0.00000
     65       9.9533      0.00000
     66      10.1882      0.00000
     67      10.6813      0.00000
     68      11.1183      0.00000
     69      11.2480      0.00000
     70      11.5740      0.00000
     71      11.7081      0.00000
     72      11.8948      0.00000
     73      12.2985      0.00000
     74      12.6575      0.00000
     75      13.0123      0.00000
     76      13.2308      0.00000
     77      13.6684      0.00000
     78      14.0755      0.00000
     79      14.3961      0.00000
     80      16.5107      0.00000

 k-point  42 :      -0.2500   -0.2500    0.4000
  band No.  band energies     occupation 
      1     -68.6508      2.00000
      2     -68.6453      2.00000
      3     -68.6333      2.00000
      4     -68.6336      2.00000
      5     -68.6184      2.00000
      6     -68.6135      2.00000
      7     -68.6013      2.00000
      8     -68.5959      2.00000
      9     -68.5781      2.00000
     10     -68.5781      2.00000
     11     -68.5611      2.00000
     12     -68.5611      2.00000
     13     -12.1755      2.00000
     14     -11.7026      2.00000
     15     -10.7176      2.00000
     16     -10.6942      2.00000
     17     -10.5869      2.00000
     18     -10.3925      2.00000
     19      -5.4429      2.00000
     20      -5.0716      2.00000
     21      -2.5086      2.00000
     22      -2.3787      2.00000
     23      -1.9639      2.00000
     24      -1.3688      2.00000
     25      -1.3272      2.00000
     26      -1.0536      2.00000
     27      -0.8307      2.00000
     28      -0.7675      2.00000
     29      -0.4254      2.00000
     30      -0.3423      2.00000
     31      -0.2719      2.00000
     32      -0.2102      2.00000
     33      -0.1425      2.00000
     34      -0.1409      2.00000
     35      -0.0133      2.00000
     36       0.0250      2.00000
     37       1.1723      2.00000
     38       1.3698      2.00000
     39       1.3960      2.00000
     40       1.4513      2.00000
     41       1.4529      2.00000
     42       1.4978      2.00000
     43       1.5159      2.00000
     44       1.5472      2.00000
     45       1.7428      2.00000
     46       1.8186      2.00000
     47       1.9729      2.00000
     48       2.2271      2.00000
     49       2.3973      2.00000
     50       2.6135      2.00000
     51       2.6545      2.00000
     52       2.9138      2.00000
     53       3.0693      2.00000
     54       3.1179      2.00000
     55       3.2851      2.00000
     56       3.5809      2.00000
     57       6.2880     -0.00000
     58       6.3770     -0.00000
     59       7.3603      0.00000
     60       7.5227      0.00000
     61       8.3083      0.00000
     62       8.3344      0.00000
     63       9.1053      0.00000
     64       9.3582      0.00000
     65       9.7189      0.00000
     66       9.9477      0.00000
     67      10.5229      0.00000
     68      10.9921      0.00000
     69      11.4223      0.00000
     70      11.5647      0.00000
     71      12.0217      0.00000
     72      12.2881      0.00000
     73      12.4284      0.00000
     74      12.4768      0.00000
     75      13.0312      0.00000
     76      13.1456      0.00000
     77      14.1444      0.00000
     78      14.4342      0.00000
     79      15.1673      0.00000
     80      15.8650      0.00000


--------------------------------------------------------------------------------------------------------


 soft charge-density along one line, spin component           1
         0         1         2         3         4         5         6         7         8         9
 total charge-density along one line
 
 pseudopotential strength for first ion, spin component:           1
-65.427   0.003   0.006   7.365  -0.000  -0.002   0.001   0.007
  0.003 -65.397  -0.004  -0.000   7.354   0.001  -0.001  -0.023
  0.006  -0.004 -65.387  -0.002   0.001   7.351  -0.036  -0.001
  7.365  -0.000  -0.002   6.110   0.000   0.001   0.002  -0.003
 -0.000   7.354   0.001   0.000   6.113  -0.000   0.000   0.007
 -0.002   0.001   7.351   0.001  -0.000   6.113   0.008   0.000
  0.001  -0.001  -0.036   0.002   0.000   0.008  -2.983  -0.003
  0.007  -0.023  -0.001  -0.003   0.007   0.000  -0.003  -2.988
  0.022   0.042   0.009  -0.005  -0.008  -0.003  -0.003   0.008
 -0.001  -0.017   0.007   0.000   0.004  -0.003   0.004   0.007
  0.025   0.000  -0.034  -0.007  -0.000   0.007  -0.000   0.007
  0.001  -0.001  -0.035   0.002   0.000   0.008  -3.629  -0.003
  0.007  -0.023  -0.001  -0.003   0.007   0.000  -0.003  -3.635
  0.021   0.042   0.009  -0.005  -0.008  -0.002  -0.003   0.008
 -0.001  -0.017   0.007   0.000   0.004  -0.003   0.004   0.007
  0.024   0.000  -0.034  -0.007  -0.000   0.006  -0.000   0.007
  0.007  -0.005   0.004  -0.001   0.001  -0.001  -0.001   0.000
  0.015  -0.010   0.009  -0.002   0.001  -0.002  -0.003   0.001
 total augmentation occupancy for first ion, spin component:           1
  2.000  -0.000   0.000  -0.003  -0.000   0.000   0.007  -0.005   0.001  -0.001  -0.004  -0.007   0.005  -0.001   0.001   0.004
 -0.000   2.000  -0.000  -0.000  -0.003   0.000  -0.001   0.005   0.004   0.001   0.000   0.001  -0.005  -0.005  -0.001  -0.000
  0.000  -0.000   2.000   0.000   0.000  -0.003  -0.001  -0.000  -0.001  -0.005  -0.004   0.001   0.000   0.001   0.005   0.005
 -0.003  -0.000   0.000   0.096   0.006  -0.005  -0.336   0.234  -0.071   0.011   0.019   0.283  -0.198   0.056  -0.007  -0.013
 -0.000  -0.003   0.000   0.006   0.102   0.001   0.020  -0.048  -0.445   0.015   0.010  -0.014   0.037   0.377  -0.011  -0.008
  0.000   0.000  -0.003  -0.005   0.001   0.099   0.097  -0.002  -0.012   0.236   0.355  -0.076   0.001   0.010  -0.202  -0.298
  0.007  -0.001  -0.001  -0.336   0.020   0.097   4.016  -0.795   0.089   0.216   0.139  -1.745   0.746  -0.081  -0.182  -0.135
 -0.005   0.005  -0.000   0.234  -0.048  -0.002  -0.795   3.513   0.299   0.156   0.302   0.746  -1.272  -0.221  -0.113  -0.211
  0.001   0.004  -0.001  -0.071  -0.445  -0.012   0.089   0.299   4.698  -0.040  -0.111  -0.081  -0.221  -2.406   0.033   0.081
 -0.001   0.001  -0.005   0.011   0.015   0.236   0.216   0.156  -0.040   3.637   0.800  -0.182  -0.113   0.033  -1.355  -0.762
 -0.004   0.000  -0.004   0.019   0.010   0.355   0.139   0.302  -0.111   0.800   4.004  -0.135  -0.210   0.081  -0.762  -1.750
 -0.007   0.001   0.001   0.283  -0.014  -0.076  -1.745   0.746  -0.081  -0.182  -0.135   1.451  -0.698   0.074   0.153   0.130
  0.005  -0.005   0.000  -0.198   0.037   0.001   0.746  -1.272  -0.221  -0.113  -0.210  -0.698   1.008   0.158   0.079   0.137
 -0.001  -0.005   0.001   0.056   0.377   0.010  -0.081  -0.221  -2.406   0.033   0.081   0.074   0.158   2.089  -0.028  -0.057
  0.001  -0.001   0.005  -0.007  -0.011  -0.202  -0.182  -0.113   0.033  -1.355  -0.762   0.153   0.079  -0.028   1.059   0.723
  0.004  -0.000   0.005  -0.013  -0.008  -0.298  -0.135  -0.211   0.081  -0.762  -1.750   0.130   0.137  -0.057   0.723   1.470
 -0.024   0.016  -0.013  -0.019   0.011  -0.006   0.075  -0.098  -0.017  -0.004   0.032  -0.058   0.086   0.030   0.005   0.000
  0.011  -0.007   0.006   0.001  -0.000  -0.000  -0.008   0.003  -0.004   0.004  -0.020   0.004  -0.005  -0.002  -0.001   0.003


------------------------ aborting loop because EDIFF is reached ----------------------------------------


    FORLOC:  cpu time    0.00: real time    0.00
    FORHF :  cpu time  669.08: real time  668.50
    FORNL :  cpu time    0.39: real time    0.39
    FORCOR:  cpu time    2.05: real time    2.05

 VOLUME and BASIS-vectors are now :
 -----------------------------------------------------------------------------
  energy-cutoff  :      400.00
  volume of cell :      221.90
      direct lattice vectors                 reciprocal lattice vectors
     3.224796000 -5.643830000  0.031572000     0.154525165 -0.088592321  0.053460880
     3.224796000  5.643830000  0.031572000     0.154525165  0.088592321  0.053460880
    -2.101946000  0.000000000  6.075537000    -0.001606004  0.000000000  0.164038877

  length of vectors
     6.500240234  6.500240234  6.428866683     0.185969598  0.185969598  0.164046738


 FORCES acting on ions:
    Electron-Ion                     Ewald-Force                    Non-Local-Force
 -----------------------------------------------------------------------------------------------
   -.140E+02 -.959E+02 0.118E+02   0.128E+02 0.936E+02 -.102E+02   0.100E+01 0.207E+01 -.138E+01
   -.144E+02 0.973E+02 0.111E+02   0.132E+02 -.949E+02 -.956E+01   0.102E+01 -.210E+01 -.141E+01
   0.251E+02 -.169E+02 0.523E+01   -.219E+02 0.167E+02 -.397E+01   -.282E+01 0.158E+00 -.110E+01
   0.254E+02 0.169E+02 0.411E+01   -.222E+02 -.167E+02 -.283E+01   -.284E+01 -.164E+00 -.111E+01
   -.111E+02 -.316E+02 -.118E+02   0.104E+02 0.302E+02 0.106E+02   0.687E+00 0.135E+01 0.119E+01
   -.109E+02 0.312E+02 -.110E+02   0.102E+02 -.299E+02 0.990E+01   0.661E+00 -.131E+01 0.114E+01
   -.135E+03 -.990E+01 -.494E+02   0.132E+03 0.993E+01 0.485E+02   0.278E+01 -.297E-01 0.748E+00
   0.698E+02 -.127E+03 0.966E+02   -.681E+02 0.124E+03 -.946E+02   -.153E+01 0.229E+01 -.194E+01
   0.667E+02 -.133E+03 -.501E+02   -.652E+02 0.130E+03 0.491E+02   -.136E+01 0.218E+01 0.894E+00
   0.703E+02 0.126E+03 0.959E+02   -.686E+02 -.123E+03 -.938E+02   -.157E+01 -.229E+01 -.185E+01
   -.135E+03 0.989E+01 -.490E+02   0.132E+03 -.993E+01 0.482E+02   0.278E+01 0.344E-01 0.736E+00
   0.666E+02 0.133E+03 -.496E+02   -.651E+02 -.130E+03 0.486E+02   -.136E+01 -.218E+01 0.875E+00
 -----------------------------------------------------------------------------------------------
   0.280E+01 -.442E-02 0.364E+01   -.426E-13 0.568E-13 -.142E-13   -.255E+01 -.174E-02 -.321E+01
 
 
 POSITION                                       TOTAL-FORCE (eV/Angst)
 -----------------------------------------------------------------------------------
      2.13385     -2.80652      0.74958        -0.006106     -0.005375      0.003116
      1.08288      2.80652      3.78735        -0.002999      0.001405     -0.001028
      5.40423     -0.97432      0.77721        -0.000546      0.000707      0.001976
      4.35326      0.97432      3.81498         0.003125     -0.000127      0.000209
      1.02081     -0.97328      3.66185         0.001522      0.007664      0.048992
      2.07178      0.97328      0.62409        -0.009577      0.006276      0.012675
      2.15090      4.69667      3.05304         0.006515      0.001267      0.004979
      1.10888     -0.89759      5.99565         0.025274     -0.021221     -0.093514
      2.14287     -2.74882      3.03886        -0.004590      0.001149      0.010424
      2.16313      0.89759      2.94844        -0.004239      0.009679      0.012692
      1.09993     -4.69667      6.09081        -0.002528      0.000384     -0.000904
      1.09189      2.74882      6.07662        -0.005853     -0.001807      0.000383
 -----------------------------------------------------------------------------------
    total drift:                               -0.058992     -0.000972     -0.054038


--------------------------------------------------------------------------------------------------------



  FREE ENERGIE OF THE ION-ELECTRON SYSTEM (eV)
  ---------------------------------------------------
  free  energy   TOTEN  =       -69.59524521 eV

  energy  without entropy=      -69.59582834  energy(sigma->0) =      -69.59543959
 


--------------------------------------------------------------------------------------------------------


    POTLOK:  cpu time    2.08: real time    2.08


--------------------------------------------------------------------------------------------------------


 writing wavefunctions
     LOOP+:  cpu time 6239.88: real time 6239.33
    4ORBIT:  cpu time    0.00: real time    0.00

 total amount of memory used by VASP on root node   155701. kBytes
========================================================================

   base      :      30000. kBytes
   nonl-proj :      74517. kBytes
   fftplans  :        702. kBytes
   grid      :       2400. kBytes
   one-center:        186. kBytes
   HF        :        194. kBytes
   nonlr-proj:       5126. kBytes
   wavefun   :      42576. kBytes
 
  
  
 General timing and accounting informations for this job:
 ========================================================
  
                  Total CPU time used (sec):     6281.332
                            User time (sec):     6276.467
                          System time (sec):        4.865
                         Elapsed time (sec):     6281.986
  
                   Maximum memory used (kb):      300272.
                   Average memory used (kb):           0.
  
                          Minor page faults:        79301
                          Major page faults:            7
                 Voluntary context switches:         3630
